INSANE! Membrane UpperLeaflet>loPI:POPI:DPPI:PYPI:ERGO=80.0:5.0:3.0:2.0:10.0 LowerLeaflet>loPI:POPI:DPPI:PYPI:ERGO=80.0:5.0:3.0:2.0:10.0
49019
    1loPI    C1    1   9.026   0.551  11.786 -0.1228  0.0451  0.1054
    1loPI    C2    2   9.304   0.463  12.059  0.0390 -0.0706 -0.0938
    1loPI    C3    3   9.337   0.796  11.840 -0.0919  0.0235  0.0278
    1loPI   PO4    4   9.014   0.325  11.660  0.0290 -0.0203  0.0390
    1loPI   GL1    5   9.054   0.162  11.198  0.1065 -0.0646 -0.4442
    1loPI   GL2    6   8.992   0.535  11.090 -0.5873 -0.2400  0.2600
    1loPI   C1A    7   9.193   0.199  10.801  0.1904 -0.0504 -0.1105
    1loPI   C2A    8   9.180   0.145  10.256 -0.4234 -0.3465 -0.0198
    1loPI   C3A    9   9.246  -0.015   9.856  0.3918 -0.4974  0.1523
    1loPI   C4A   10   9.233  -0.070   9.438 -0.1531 -0.1444 -0.1120
    1loPI   C5A   11   9.121  -0.056   8.966 -0.0176 -0.2074 -0.0391
    1loPI   C6A   12   8.983   0.378   8.719 -0.0199  0.1027 -0.0554
    1loPI   C1B   13   8.841   0.492  10.674 -0.1633 -0.1379 -0.0901
    1loPI   C2B   14   8.796   0.440  10.232  0.1042  0.2500  0.0580
    1loPI   C3B   15   8.891   0.402   9.828 -0.1472 -0.1625  0.0698
    1loPI   C4B   16   8.887   0.253   9.334  0.1312 -0.2223 -0.0520
    2loPI    C1   17  16.215   1.890  11.932 -0.2464 -0.1035  0.1868
    2loPI    C2   18  16.277   1.574  12.169 -0.1552  0.0498  0.3704
    2loPI    C3   19  16.289   1.944  12.321  0.0518  0.1586  0.0985
    2loPI   PO4   20  16.382   1.805  11.718 -0.1838  0.1911 -0.1528
    2loPI   GL1   21  16.292   1.632  11.431  0.2126  0.1668  0.1336
    2loPI   GL2   22  16.373   1.344  11.196 -0.0817  0.0854 -0.0390
    2loPI   C1A   23  16.516   1.745  10.970 -0.1845 -0.0724  0.0329
    2loPI   C2A   24  16.553   1.681  10.603  0.0509 -0.0365  0.0839
    2loPI   C3A   25  16.482   1.629  10.210  0.0348  0.3768 -0.0553
    2loPI   C4A   26  16.435   1.672   9.791 -0.1812 -0.0197 -0.0688
    2loPI   C5A   27  16.287   1.851   9.406  0.0473 -0.1148  0.1246
    2loPI   C6A   28  16.278   1.916   8.904 -0.0733 -0.2668 -0.0889
    2loPI   C1B   29  16.374   1.095  10.926  0.2757 -0.0727  0.1591
    2loPI   C2B   30  16.388   1.114  10.517 -0.0086 -0.1190 -0.1409
    2loPI   C3B   31  16.316   1.189  10.062  0.0044 -0.0656 -0.0548
    2loPI   C4B   32  16.220   1.232   9.675 -0.1359  0.0483  0.2223
    3loPI    C1   33   9.355   3.864  11.455  0.0556  0.0989 -0.2593
    3loPI    C2   34   9.531   3.511  11.519 -0.2249 -0.0109 -0.0735
    3loPI    C3   35   9.380   3.717  11.826 -0.0758  0.2666 -0.1828
    3loPI   PO4   36   9.217   3.833  11.256 -0.1889  0.2938 -0.0894
    3loPI   GL1   37   9.180   3.830  10.880 -0.1080  0.2198  0.1717
    3loPI   GL2   38   9.072   3.594  10.680  0.0033 -0.0488  0.2621
    3loPI   C1A   39   9.250   4.103  10.466  0.0339  0.1421  0.1249
    3loPI   C2A   40   9.368   4.040  10.022  0.2963  0.0516 -0.2383
    3loPI   C3A   41   9.526   3.896   9.612 -0.0908  0.2869 -0.0019
    3loPI   C4A   42   9.738   3.704   9.293  0.0468 -0.0801 -0.0243
    3loPI   C5A   43  10.035   3.693   8.986 -0.0713 -0.2944  0.1086
    3loPI   C6A   44  10.226   3.579   8.615 -0.0972 -0.1036 -0.0684
    3loPI   C1B   45   9.003   3.656  10.288  0.1041  0.0606 -0.0310
    3loPI   C2B   46   9.015   3.634   9.832 -0.0723  0.0646  0.0313
    3loPI   C3B   47   9.104   3.607   9.448  0.0753  0.3129 -0.2030
    3loPI   C4B   48   9.099   3.580   9.057 -0.0921 -0.0565  0.2198
    4loPI    C1   49   3.021  13.546  11.677  0.1894 -0.0044 -0.2043
    4loPI    C2   50   2.920  13.922  11.768  0.2376  0.0028 -0.1808
    4loPI    C3   51   3.172  13.719  12.004  0.0083 -0.1338 -0.0501
    4loPI   PO4   52   2.965  13.525  11.397 -0.1171 -0.3637 -0.0333
    4loPI   GL1   53   2.673  13.301  11.118  0.1044  0.0271  0.0327
    4loPI   GL2   54   2.776  12.987  10.972  0.0677 -0.2590  0.0803
    4loPI   C1A   55   2.522  13.245  10.683  0.1648 -0.2146  0.2334
    4loPI   C2A   56   2.601  13.308  10.299  0.2468  0.0041 -0.1252
    4loPI   C3A   57   2.655  13.251   9.811  0.0546  0.2120 -0.2364
    4loPI   C4A   58   2.652  13.313   9.419  0.1995  0.0477  0.1601
    4loPI   C5A   59   2.498  13.141   9.090 -0.0117 -0.2619 -0.1072
    4loPI   C6A   60   2.341  12.686   8.861  0.1367  0.0337  0.3856
    4loPI   C1B   61   2.934  12.869  10.549  0.3447  0.4299 -0.2024
    4loPI   C2B   62   2.942  12.832  10.059  0.0900  0.0199 -0.1721
    4loPI   C3B   63   2.971  12.847   9.646 -0.0651 -0.0282  0.0422
    4loPI   C4B   64   3.003  12.973   9.211 -0.2275  0.1518  0.1226
    5loPI    C1   65  13.557  10.250  11.531 -0.0185 -0.2268  0.0667
    5loPI    C2   66  13.390  10.528  11.766  0.1114  0.0302 -0.1391
    5loPI    C3   67  13.776  10.432  11.812  0.1003 -0.0223 -0.1541
    5loPI   PO4   68  13.518  10.351  11.310  0.0479 -0.2263  0.1045
    5loPI   GL1   69  13.437  10.488  10.928 -0.2700  0.0205 -0.1295
    5loPI   GL2   70  13.109  10.469  10.787  0.2487 -0.2275 -0.4109
    5loPI   C1A   71  13.581  10.387  10.548 -0.3226 -0.0814  0.0276
    5loPI   C2A   72  13.580  10.329  10.149  0.0879 -0.2823 -0.1044
    5loPI   C3A   73  13.561  10.313   9.752 -0.3614 -0.0665  0.2548
    5loPI   C4A   74  13.716  10.297   9.316 -0.2682 -0.1433  0.0729
    5loPI   C5A   75  13.956  10.102   9.076  0.0367  0.2523 -0.0026
    5loPI   C6A   76  13.994   9.951   8.734  0.1797 -0.0233 -0.0050
    5loPI   C1B   77  13.137  10.231  10.370  0.0875 -0.2263 -0.1236
    5loPI   C2B   78  13.070  10.183   9.945  0.5136  0.0810 -0.2066
    5loPI   C3B   79  13.102  10.309   9.575 -0.2432 -0.1094 -0.0696
    5loPI   C4B   80  13.236  10.425   9.116 -0.0276 -0.1218 -0.0607
    6loPI    C1   81  15.620   9.563  11.813  0.0184  0.0611  0.0378
    6loPI    C2   82  15.510   9.416  12.168 -0.0777 -0.2918 -0.1333
    6loPI    C3   83  15.352   9.759  12.036 -0.0784 -0.1843  0.1398
    6loPI   PO4   84  15.660   9.372  11.655 -0.0578 -0.0172 -0.0249
    6loPI   GL1   85  15.368   9.201  11.291  0.0299  0.0092  0.0191
    6loPI   GL2   86  15.211   9.459  11.238  0.2087 -0.0487  0.0078
    6loPI   C1A   87  15.479   9.025  10.944  0.0006 -0.0123  0.0185
    6loPI   C2A   88  15.379   8.882  10.533  0.1319 -0.0636 -0.0400
    6loPI   C3A   89  15.413   8.897  10.049  0.3156 -0.0092  0.1725
    6loPI   C4A   90  15.377   8.843   9.578  0.1846 -0.1524  0.0893
    6loPI   C5A   91  15.342   8.961   9.236  0.0054  0.0861 -0.0961
    6loPI   C6A   92  15.523   9.048   8.885 -0.0279  0.0603 -0.1520
    6loPI   C1B   93  15.087   9.275  10.824  0.1095 -0.0499 -0.0858
    6loPI   C2B   94  15.061   9.222  10.376  0.3205  0.0823 -0.1083
    6loPI   C3B   95  15.027   9.219   9.951  0.0754  0.2110 -0.1160
    6loPI   C4B   96  14.983   9.289   9.475  0.0751  0.2343 -0.2566
    7loPI    C1   97   9.253  17.004  11.991 -0.1400 -0.2220 -0.2687
    7loPI    C2   98   9.147  17.388  12.030  0.1239 -0.1883  0.1979
    7loPI    C3   99   8.877  17.099  12.092 -0.0689 -0.0840 -0.1283
    7loPI   PO4  100   9.319  16.937  11.751  0.0829  0.1802  0.0096
    7loPI   GL1  101   9.218  16.899  11.325 -0.2906  0.1528  0.2214
    7loPI   GL2  102   9.314  16.592  11.211  0.1700  0.0085  0.0719
    7loPI   C1A  103   9.081  17.051  11.013  0.2473  0.0083 -0.0842
    7loPI   C2A  104   9.055  17.127  10.521  0.0968  0.0448 -0.0570
    7loPI   C3A  105   8.953  17.036  10.090  0.2262  0.0438  0.1184
    7loPI   C4A  106   8.992  16.949   9.698  0.1187 -0.0232  0.0605
    7loPI   C5A  107   9.060  16.888   9.263  0.0846  0.2453 -0.0056
    7loPI   C6A  108   9.038  16.871   8.870 -0.1163 -0.3559  0.0927
    7loPI   C1B  109   9.299  16.629  10.773  0.1934 -0.0084 -0.4693
    7loPI   C2B  110   9.359  16.587  10.432  0.0716 -0.0946  0.0002
    7loPI   C3B  111   9.272  16.595  10.006  0.1896 -0.0616  0.1960
    7loPI   C4B  112   9.316  16.478   9.541 -0.1518  0.1712  0.4059
    8loPI    C1  113  13.471   5.653  11.767  0.3207 -0.0577  0.2260
    8loPI    C2  114  13.619   5.726  12.132  0.0246  0.5130  0.2415
    8loPI    C3  115  13.244   5.593  12.091  0.2325 -0.0750  0.1611
    8loPI   PO4  116  13.508   5.828  11.654  0.1731 -0.0135  0.2699
    8loPI   GL1  117  13.559   5.871  11.176  0.0969  0.3889  0.0163
    8loPI   GL2  118  13.395   6.098  10.957  0.1815  0.0049  0.3032
    8loPI   C1A  119  13.686   5.789  10.706  0.3034  0.0466  0.1368
    8loPI   C2A  120  13.742   5.774  10.257 -0.0461 -0.0981 -0.0938
    8loPI   C3A  121  13.753   5.719   9.847 -0.1169  0.1108  0.0923
    8loPI   C4A  122  13.800   5.742   9.321  0.1884  0.3803 -0.1324
    8loPI   C5A  123  13.562   6.011   9.050  0.0593  0.1357  0.1804
    8loPI   C6A  124  13.558   6.329   8.689  0.0526  0.0124  0.2317
    8loPI   C1B  125  13.421   6.191  10.513  0.0430  0.1312 -0.2491
    8loPI   C2B  126  13.449   6.151  10.020  0.2659 -0.0742  0.1238
    8loPI   C3B  127  13.449   6.140   9.506 -0.1090 -0.0134  0.4707
    8loPI   C4B  128  13.165   6.244   9.136  0.0697 -0.4539  0.0517
    9loPI    C1  129   6.969   7.812  11.732  0.1973 -0.0203 -0.0011
    9loPI    C2  130   6.877   7.500  11.964  0.0625 -0.1737 -0.2556
    9loPI    C3  131   7.017   7.837  12.128 -0.2495 -0.1967  0.0701
    9loPI   PO4  132   6.950   7.769  11.501 -0.0007 -0.3186  0.3118
    9loPI   GL1  133   7.141   7.484  11.136  0.1709  0.0368 -0.2788
    9loPI   GL2  134   7.428   7.267  11.238  0.0107  0.3270  0.2168
    9loPI   C1A  135   7.163   7.597  10.651  0.0331  0.1718 -0.0524
    9loPI   C2A  136   7.135   7.597  10.235 -0.1887 -0.1021 -0.1353
    9loPI   C3A  137   7.205   7.611   9.799  0.0828  0.1469  0.0489
    9loPI   C4A  138   7.389   7.668   9.298  0.0658  0.1711  0.1309
    9loPI   C5A  139   7.764   7.749   9.107  0.2766 -0.1313  0.0685
    9loPI   C6A  140   8.060   7.917   8.964 -0.1763 -0.0159  0.6025
    9loPI   C1B  141   7.374   7.152  10.829  0.0960  0.0417 -0.1262
    9loPI   C2B  142   7.454   7.156  10.436 -0.3133  0.0474 -0.2030
    9loPI   C3B  143   7.502   7.151   9.994  0.0695  0.0645  0.0943
    9loPI   C4B  144   7.557   7.267   9.654 -0.0199  0.1244 -0.1303
   10loPI    C1  145   0.303  15.288  11.807  0.1532 -0.1394  0.1008
   10loPI    C2  146   0.459  15.001  12.037  0.1435  0.0480  0.3453
   10loPI    C3  147   0.379  15.361  12.193 -0.1359  0.0875  0.1189
   10loPI   PO4  148   0.330  15.166  11.543  0.2035  0.2794 -0.1522
   10loPI   GL1  149   0.592  15.421  11.211  0.1196 -0.0196  0.1277
   10loPI   GL2  150   0.607  15.745  11.106 -0.3224 -0.1578  0.0833
   10loPI   C1A  151   0.865  15.343  10.911  0.3297  0.2240 -0.0287
   10loPI   C2A  152   0.947  15.173  10.548  0.2017 -0.0686 -0.0190
   10loPI   C3A  153   1.025  15.144  10.132  0.2402  0.0725  0.2833
   10loPI   C4A  154   1.039  15.208   9.688  0.4419  0.1816  0.2348
   10loPI   C5A  155   1.101  15.243   9.300  0.2355 -0.0785  0.2937
   10loPI   C6A  156   1.359  15.286   8.934 -0.0956 -0.2033  0.0088
   10loPI   C1B  157   0.749  15.811  10.639  0.1747  0.0560  0.2305
   10loPI   C2B  158   0.715  15.756  10.151 -0.0529 -0.1129 -0.1847
   10loPI   C3B  159   0.661  15.593   9.819  0.1665  0.0928 -0.1301
   10loPI   C4B  160   0.602  15.523   9.322 -0.0488 -0.1680  0.2944
   11loPI    C1  161   0.745  15.606  11.621 -0.2373  0.0576 -0.0117
   11loPI    C2  162   0.574  15.761  11.947  0.0184  0.0711  0.1189
   11loPI    C3  163   0.828  15.454  11.982 -0.1867 -0.1272 -0.0996
   11loPI   PO4  164   0.882  15.830  11.498  0.4022  0.0375  0.0865
   11loPI   GL1  165   0.990  16.056  11.126  0.2791  0.1799  0.1582
   11loPI   GL2  166   1.204  16.259  11.156 -0.0715 -0.0134  0.1986
   11loPI   C1A  167   0.967  16.222  10.705 -0.6079  0.0665 -0.4799
   11loPI   C2A  168   0.906  16.228  10.212 -0.2012  0.0866  0.2215
   11loPI   C3A  169   0.878  16.080   9.827 -0.0625 -0.1144 -0.0950
   11loPI   C4A  170   0.908  16.082   9.342  0.1050  0.1586 -0.1523
   11loPI   C5A  171   0.983  15.724   9.047 -0.1340 -0.0968 -0.0235
   11loPI   C6A  172   0.822  15.274   8.883 -0.1132  0.0104  0.0551
   11loPI   C1B  173   1.454  16.272  10.828  0.0967 -0.3221  0.0469
   11loPI   C2B  174   1.370  16.247  10.400 -0.3565 -0.0625  0.2275
   11loPI   C3B  175   1.350  16.213   9.968  0.1958 -0.0431  0.2954
   11loPI   C4B  176   1.495  16.168   9.677 -0.0331  0.1205 -0.0815
   12loPI    C1  177  13.901  12.982  11.962 -0.2460  0.0594 -0.2416
   12loPI    C2  178  13.972  13.249  12.250 -0.1079  0.1674 -0.3738
   12loPI    C3  179  13.601  13.112  12.191 -0.0808 -0.1274  0.0882
   12loPI   PO4  180  14.022  13.113  11.704  0.1135 -0.0722  0.0955
   12loPI   GL1  181  13.748  13.355  11.411 -0.1887 -0.6096  0.0918
   12loPI   GL2  182  13.634  13.266  11.172 -0.1476  0.1331  0.2485
   12loPI   C1A  183  14.134  13.321  11.048 -0.3145  0.1731 -0.0764
   12loPI   C2A  184  14.274  13.284  10.668 -0.2498  0.1188  0.2542
   12loPI   C3A  185  14.243  13.135  10.216  0.1104 -0.1261 -0.2439
   12loPI   C4A  186  14.178  13.094   9.732 -0.0762 -0.2906  0.1698
   12loPI   C5A  187  14.263  13.185   9.172  0.1045 -0.0241 -0.0665
   12loPI   C6A  188  14.191  12.773   8.857 -0.0061 -0.1146  0.0722
   12loPI   C1B  189  13.480  13.596  10.873 -0.0073  0.0901 -0.2596
   12loPI   C2B  190  13.407  13.489  10.426 -0.0912  0.3781  0.1138
   12loPI   C3B  191  13.452  13.427   9.999  0.0806  0.4090 -0.1322
   12loPI   C4B  192  13.418  13.475   9.534 -0.4115 -0.1381  0.0621
   13loPI    C1  193  13.974  11.653  11.658  0.2787  0.0475 -0.0662
   13loPI    C2  194  14.331  11.515  11.773  0.1929 -0.1745 -0.0616
   13loPI    C3  195  14.002  11.417  11.980  0.1399  0.1101 -0.0070
   13loPI   PO4  196  13.955  11.568  11.394 -0.0147 -0.1992  0.0497
   13loPI   GL1  197  13.994  11.565  10.990  0.0991 -0.2922  0.1178
   13loPI   GL2  198  14.008  11.297  10.743 -0.2213 -0.1037 -0.0046
   13loPI   C1A  199  14.066  11.812  10.703 -0.2126 -0.0141  0.1497
   13loPI   C2A  200  14.186  11.768  10.149  0.1520  0.1395  0.0126
   13loPI   C3A  201  14.155  11.779   9.658 -0.1502  0.0929 -0.1219
   13loPI   C4A  202  14.305  11.902   9.280  0.1532  0.0991 -0.0669
   13loPI   C5A  203  14.631  12.208   9.086 -0.4065 -0.2132 -0.0389
   13loPI   C6A  204  14.778  12.544   8.920 -0.0145  0.1458  0.2686
   13loPI   C1B  205  13.961  11.347  10.239  0.0035 -0.3216  0.1758
   13loPI   C2B  206  13.969  11.363   9.855 -0.0296 -0.0950  0.2588
   13loPI   C3B  207  14.075  11.274   9.384  0.0550 -0.0302  0.1132
   13loPI   C4B  208  14.324  11.436   9.045 -0.5361 -0.0025  0.1559
   14loPI    C1  209  13.342   8.082  11.447 -0.3545  0.1839  0.0006
   14loPI    C2  210  13.109   8.147  11.766  0.0050 -0.0432  0.3195
   14loPI    C3  211  13.465   7.971  11.811  0.1854  0.1744 -0.1759
   14loPI   PO4  212  13.370   8.291  11.285 -0.2574 -0.0469  0.0262
   14loPI   GL1  213  13.543   8.367  10.975 -0.0307 -0.3667  0.0289
   14loPI   GL2  214  13.759   8.122  10.828  0.0847 -0.1524 -0.0283
   14loPI   C1A  215  13.387   8.517  10.591 -0.0695 -0.0851 -0.0392
   14loPI   C2A  216  13.330   8.421  10.168 -0.0128  0.1173  0.2492
   14loPI   C3A  217  13.314   8.468   9.700 -0.1059 -0.0796 -0.0027
   14loPI   C4A  218  13.287   8.457   9.261  0.1017  0.0960  0.0065
   14loPI   C5A  219  13.342   8.285   8.752  0.1951  0.0606 -0.0804
   14loPI   C6A  220  13.580   8.059   8.465  0.1582 -0.4240 -0.0915
   14loPI   C1B  221  13.741   8.079  10.307  0.0981 -0.3243  0.0086
   14loPI   C2B  222  13.642   8.141   9.952  0.2530 -0.2032  0.1362
   14loPI   C3B  223  13.753   8.047   9.543 -0.1054 -0.2008  0.1076
   14loPI   C4B  224  13.767   8.130   9.052  0.2888  0.0245  0.5731
   15loPI    C1  225  10.210  15.987  11.776 -0.1590 -0.0193 -0.0211
   15loPI    C2  226  10.015  15.709  11.987 -0.0647 -0.0046  0.0862
   15loPI    C3  227  10.090  16.067  12.149  0.0128  0.0049  0.0298
   15loPI   PO4  228  10.072  16.023  11.562  0.3317 -0.0163  0.1015
   15loPI   GL1  229  10.098  15.826  11.219 -0.0626  0.2473  0.3146
   15loPI   GL2  230   9.896  15.603  11.053  0.2814 -0.2921  0.2608
   15loPI   C1A  231  10.377  15.780  10.864  0.1893  0.1506  0.2528
   15loPI   C2A  232  10.410  15.903  10.415  0.1388  0.0332  0.3076
   15loPI   C3A  233  10.434  15.835  10.047 -0.0608  0.0023 -0.2368
   15loPI   C4A  234  10.436  15.736   9.662  0.0689  0.0680 -0.1979
   15loPI   C5A  235  10.366  15.686   9.170 -0.4047  0.2780  0.0865
   15loPI   C6A  236  10.048  15.900   8.844 -0.1900  0.0291 -0.3288
   15loPI   C1B  237   9.930  15.771  10.626  0.3186 -0.2604 -0.1935
   15loPI   C2B  238   9.927  15.675  10.138  0.0495  0.0480 -0.0506
   15loPI   C3B  239   9.959  15.607   9.647  0.0918  0.0266  0.1884
   15loPI   C4B  240   9.807  15.717   9.300  0.3289 -0.0820  0.0871
   16loPI    C1  241   6.080  15.334  11.897  0.1820 -0.0677  0.1069
   16loPI    C2  242   5.909  15.680  11.790  0.0921 -0.1707 -0.0871
   16loPI    C3  243   5.884  15.553  12.168  0.1557  0.0514 -0.0070
   16loPI   PO4  244   6.027  15.179  11.669  0.1246  0.1620  0.1662
   16loPI   GL1  245   5.905  15.296  11.226 -0.2395 -0.2617 -0.1913
   16loPI   GL2  246   5.652  15.429  11.331  0.1104  0.2647  0.0556
   16loPI   C1A  247   5.834  15.101  10.793  0.4301 -0.1716 -0.1790
   16loPI   C2A  248   5.776  15.104  10.416 -0.3729 -0.1199 -0.1278
   16loPI   C3A  249   5.716  15.234  10.131 -0.0180 -0.0329  0.1975
   16loPI   C4A  250   5.832  15.224   9.655 -0.0658  0.1536  0.1591
   16loPI   C5A  251   5.899  15.113   9.263 -0.2435  0.3774  0.1917
   16loPI   C6A  252   6.138  15.141   8.888 -0.0053 -0.1063  0.3429
   16loPI   C1B  253   5.480  15.666  10.988  0.0891  0.0483  0.0107
   16loPI   C2B  254   5.428  15.556  10.477 -0.1687  0.2571  0.1819
   16loPI   C3B  255   5.402  15.641  10.093  0.2424 -0.0373 -0.0253
   16loPI   C4B  256   5.412  15.601   9.617  0.0465  0.0472 -0.1164
   17loPI    C1  257  17.009   1.357  11.982 -0.0432 -0.1386  0.0360
   17loPI    C2  258  16.697   1.276  12.219 -0.0257 -0.2376  0.0255
   17loPI    C3  259  17.049   1.378  12.379 -0.0244 -0.2671  0.0411
   17loPI   PO4  260  16.921   1.610  11.749  0.0204 -0.1412  0.0996
   17loPI   GL1  261  16.851   1.559  11.337 -0.0308  0.0091 -0.1104
   17loPI   GL2  262  16.750   1.955  11.406 -0.0605 -0.2488  0.0335
   17loPI   C1A  263  17.063   1.772  10.999  0.2673  0.0260 -0.2971
   17loPI   C2A  264  17.061   1.740  10.575  0.0794  0.2201 -0.1691
   17loPI   C3A  265  17.001   1.726  10.136 -0.0374  0.2597  0.1051
   17loPI   C4A  266  17.008   1.838   9.695  0.1300 -0.3199  0.0433
   17loPI   C5A  267  17.130   1.845   9.287  0.2231  0.1375 -0.1492
   17loPI   C6A  268  17.323   2.013   9.092  0.1889 -0.2519  0.0471
   17loPI   C1B  269  16.764   2.230  11.070  0.3690 -0.0052  0.0425
   17loPI   C2B  270  16.768   2.123  10.650 -0.4367 -0.1164  0.1530
   17loPI   C3B  271  16.720   2.081  10.270  0.3872  0.1664 -0.0448
   17loPI   C4B  272  16.640   2.147   9.813 -0.0731  0.0593 -0.1984
   18loPI    C1  273   6.862  14.652  11.908 -0.1429 -0.1895  0.0616
   18loPI    C2  274   6.637  14.982  11.918  0.1016 -0.0191  0.0249
   18loPI    C3  275   6.846  14.874  12.241  0.0533 -0.1163  0.0237
   18loPI   PO4  276   6.773  14.533  11.646 -0.0578 -0.1763  0.0990
   18loPI   GL1  277   6.865  14.793  11.272 -0.0335 -0.1703 -0.0489
   18loPI   GL2  278   7.183  14.955  11.116  0.2535 -0.1746 -0.3003
   18loPI   C1A  279   6.689  14.815  10.861 -0.2224  0.3259 -0.0589
   18loPI   C2A  280   6.657  14.785  10.422 -0.1405  0.0551  0.0075
   18loPI   C3A  281   6.627  14.790   9.994  0.0907  0.2502  0.2251
   18loPI   C4A  282   6.666  14.814   9.628 -0.1180  0.1409 -0.1353
   18loPI   C5A  283   6.525  15.036   9.260 -0.0928  0.0895 -0.2389
   18loPI   C6A  284   6.658  15.052   8.938 -0.0161 -0.2156  0.0647
   18loPI   C1B  285   7.173  14.883  10.597  0.1758  0.0880 -0.2985
   18loPI   C2B  286   7.042  14.890  10.198  0.0209 -0.2005  0.0351
   18loPI   C3B  287   7.174  14.805   9.721 -0.0401  0.0705  0.0934
   18loPI   C4B  288   7.050  14.931   9.331  0.0308  0.0296 -0.1993
   19loPI    C1  289   5.240  14.948  12.163  0.2018 -0.1958 -0.0555
   19loPI    C2  290   5.318  14.602  12.348  0.3042 -0.0915  0.0980
   19loPI    C3  291   5.081  14.874  12.522 -0.0355 -0.2137 -0.1618
   19loPI   PO4  292   5.338  14.865  11.920  0.0027  0.3034 -0.0590
   19loPI   GL1  293   5.390  14.994  11.523 -0.2477  0.2191 -0.0466
   19loPI   GL2  294   5.137  14.759  11.306 -0.3134  0.1506 -0.3475
   19loPI   C1A  295   5.389  15.117  11.016  0.1561 -0.2772  0.3902
   19loPI   C2A  296   5.287  14.977  10.580  0.3528 -0.0813 -0.2420
   19loPI   C3A  297   5.186  15.082  10.202 -0.1023 -0.1721 -0.0077
   19loPI   C4A  298   5.339  15.093   9.790  0.0345 -0.1327 -0.0142
   19loPI   C5A  299   5.377  15.117   9.309  0.0521 -0.0666  0.0953
   19loPI   C6A  300   5.254  15.265   8.819  0.2070 -0.3011 -0.2468
   19loPI   C1B  301   5.146  14.617  10.900  0.2388  0.2601 -0.1701
   19loPI   C2B  302   5.015  14.556  10.504 -0.2637 -0.0182 -0.1401
   19loPI   C3B  303   5.146  14.601  10.146  0.0639 -0.0966  0.2440
   19loPI   C4B  304   5.119  14.620   9.685 -0.0205  0.2379  0.0476
   20loPI    C1  305   0.494   5.431  11.732 -0.0487 -0.0447 -0.0105
   20loPI    C2  306   0.818   5.471  11.501  0.0090 -0.1987  0.0429
   20loPI    C3  307   0.840   5.264  11.842 -0.0693  0.0481  0.2003
   20loPI   PO4  308   0.369   5.682  11.683  0.0895 -0.2960  0.0035
   20loPI   GL1  309   0.360   5.936  11.252 -0.0176  0.0740  0.1175
   20loPI   GL2  310   0.662   5.903  11.239 -0.0953  0.1501 -0.2542
   20loPI   C1A  311   0.238   5.959  10.850  0.1166  0.0016  0.2547
   20loPI   C2A  312   0.238   6.094  10.497  0.2368  0.1602 -0.1600
   20loPI   C3A  313   0.192   6.004  10.074  0.0882  0.1505 -0.2213
   20loPI   C4A  314   0.328   5.998   9.669 -0.1338 -0.3018  0.0335
   20loPI   C5A  315   0.216   6.139   9.221 -0.1279  0.2732  0.0664
   20loPI   C6A  316   0.153   6.366   8.791  0.0314 -0.0365  0.2567
   20loPI   C1B  317   0.771   6.070  10.904  0.1115  0.0502 -0.0726
   20loPI   C2B  318   0.744   6.181  10.512  0.1834  0.0747 -0.0923
   20loPI   C3B  319   0.689   6.099   9.984  0.3495 -0.0666  0.1414
   20loPI   C4B  320   0.769   6.023   9.530  0.0216  0.2526  0.0949
   21loPI    C1  321   6.112  10.353  11.859  0.1404 -0.0616  0.1341
   21loPI    C2  322   5.923  10.000  11.859 -0.1770  0.1044  0.2018
   21loPI    C3  323   5.882  10.250  12.169  0.3006  0.0720  0.2997
   21loPI   PO4  324   6.090  10.385  11.524  0.1299 -0.0381  0.0562
   21loPI   GL1  325   5.856  10.362  11.196 -0.1968  0.2544  0.1321
   21loPI   GL2  326   5.847  10.539  11.011 -0.3352 -0.1270 -0.0770
   21loPI   C1A  327   5.735  10.105  10.876  0.1965 -0.1698 -0.2625
   21loPI   C2A  328   5.712  10.010  10.415 -0.1409  0.1856  0.0255
   21loPI   C3A  329   5.748  10.176   9.936 -0.2695 -0.0985 -0.2703
   21loPI   C4A  330   5.812  10.116   9.508 -0.0249  0.2816 -0.3620
   21loPI   C5A  331   5.845  10.125   9.083  0.1474  0.0184 -0.2385
   21loPI   C6A  332   5.985  10.204   8.632 -0.1186  0.0248 -0.0640
   21loPI   C1B  333   5.931  10.464  10.560  0.2156 -0.0050  0.1598
   21loPI   C2B  334   6.010  10.551  10.110 -0.1067 -0.1103  0.0155
   21loPI   C3B  335   5.896  10.577   9.709  0.0124 -0.0844  0.0230
   21loPI   C4B  336   6.040  10.577   9.271 -0.0400  0.2632  0.0742
   22loPI    C1  337  15.567  16.793  12.193  0.0518  0.1513 -0.1719
   22loPI    C2  338  15.905  16.987  12.284 -0.0461  0.2442 -0.0003
   22loPI    C3  339  15.815  16.644  12.470  0.0755  0.0863 -0.2277
   22loPI   PO4  340  15.515  16.806  11.947  0.0085  0.1292  0.0075
   22loPI   GL1  341  15.315  16.726  11.540  0.3141 -0.3404 -0.1875
   22loPI   GL2  342  15.153  16.603  11.435 -0.0041 -0.2538  0.1683
   22loPI   C1A  343  15.486  16.586  11.092 -0.0856 -0.2960 -0.2680
   22loPI   C2A  344  15.424  16.627  10.650  0.0850 -0.2773 -0.0474
   22loPI   C3A  345  15.598  16.633  10.258  0.0305 -0.3220  0.4254
   22loPI   C4A  346  15.611  16.719   9.858 -0.0546 -0.1975  0.2531
   22loPI   C5A  347  15.528  16.718   9.516 -0.0162 -0.2318 -0.0430
   22loPI   C6A  348  15.244  16.587   9.131 -0.2090 -0.1753 -0.0136
   22loPI   C1B  349  14.960  16.590  11.020  0.1229 -0.1052 -0.4186
   22loPI   C2B  350  14.942  16.496  10.520  0.0030 -0.2399 -0.5155
   22loPI   C3B  351  15.087  16.584  10.147 -0.1288  0.3077  0.1455
   22loPI   C4B  352  15.052  16.524   9.642 -0.0571 -0.2461 -0.2307
   23loPI    C1  353   3.453  11.099  11.852 -0.1146 -0.1624 -0.3607
   23loPI    C2  354   3.097  11.244  11.963 -0.1165 -0.2993 -0.1842
   23loPI    C3  355   3.326  11.051  12.228  0.1831 -0.0286 -0.2399
   23loPI   PO4  356   3.403  10.867  11.690  0.1170  0.1695  0.0870
   23loPI   GL1  357   3.247  10.730  11.261 -0.0658  0.1649 -0.0720
   23loPI   GL2  358   3.406  11.054  11.129  0.2283  0.1771 -0.1238
   23loPI   C1A  359   3.084  10.642  10.769 -0.3282  0.2804 -0.0609
   23loPI   C2A  360   3.071  10.544  10.308 -0.0151 -0.2247  0.0283
   23loPI   C3A  361   2.986  10.627   9.883  0.1803 -0.2519  0.0120
   23loPI   C4A  362   3.015  10.650   9.483  0.0444  0.0648 -0.1359
   23loPI   C5A  363   3.259  10.618   9.131  0.0752 -0.3572  0.1722
   23loPI   C6A  364   2.938  10.646   8.862  0.0403 -0.3613  0.2557
   23loPI   C1B  365   3.302  11.131  10.752  0.0556  0.2225 -0.0416
   23loPI   C2B  366   3.223  11.033  10.283  0.1166 -0.1053  0.0697
   23loPI   C3B  367   3.171  11.205   9.858 -0.3698 -0.1803  0.0457
   23loPI   C4B  368   3.150  11.091   9.396  0.3371  0.1614  0.2562
   24loPI    C1  369   3.389   3.896  11.897  0.1460  0.1632  0.0053
   24loPI    C2  370   3.578   3.881  12.249 -0.0397  0.0661  0.1023
   24loPI    C3  371   3.225   3.699  12.204 -0.0823  0.1944 -0.0947
   24loPI   PO4  372   3.491   3.859  11.725  0.0923 -0.3315 -0.0940
   24loPI   GL1  373   3.430   3.742  11.304  0.0274  0.1282  0.2590
   24loPI   GL2  374   3.589   3.451  11.034 -0.2751  0.2102 -0.1412
   24loPI   C1A  375   3.170   3.739  10.839 -0.0327  0.0561 -0.0178
   24loPI   C2A  376   3.213   3.699  10.385  0.3365  0.2303  0.1179
   24loPI   C3A  377   3.266   3.708   9.896  0.1927 -0.1943  0.1697
   24loPI   C4A  378   3.169   3.811   9.438  0.2914  0.0221 -0.0038
   24loPI   C5A  379   2.857   3.670   9.042 -0.3131  0.2975 -0.0414
   24loPI   C6A  380   2.537   3.382   9.012 -0.1665  0.3585 -0.2360
   24loPI   C1B  381   3.449   3.331  10.630  0.4304  0.2156  0.0828
   24loPI   C2B  382   3.501   3.311  10.193 -0.0845 -0.2858 -0.1261
   24loPI   C3B  383   3.620   3.350   9.856 -0.1470  0.1579 -0.3573
   24loPI   C4B  384   3.541   3.364   9.443 -0.1042  0.0102 -0.1269
   25loPI    C1  385  16.031   2.696  11.984  0.0570  0.1519 -0.0633
   25loPI    C2  386  16.169   2.907  12.293  0.2133 -0.0536  0.0090
   25loPI    C3  387  16.190   2.508  12.298 -0.0446 -0.0713 -0.1430
   25loPI   PO4  388  16.208   2.723  11.745 -0.2677 -0.1482 -0.0298
   25loPI   GL1  389  16.300   2.620  11.348 -0.0230  0.0429  0.2589
   25loPI   GL2  390  16.214   2.866  11.292  0.2563 -0.1827 -0.1375
   25loPI   C1A  391  16.352   2.513  10.969 -0.0982 -0.2034  0.4954
   25loPI   C2A  392  16.384   2.553  10.525 -0.2736  0.2482  0.0217
   25loPI   C3A  393  16.316   2.576  10.068  0.0204  0.0906  0.0438
   25loPI   C4A  394  16.288   2.547   9.684 -0.0127 -0.0671 -0.0597
   25loPI   C5A  395  16.165   2.514   9.240  0.0798  0.2635 -0.3666
   25loPI   C6A  396  16.495   2.448   8.876 -0.1205  0.0839  0.3003
   25loPI   C1B  397  16.092   2.983  10.826 -0.2244  0.0750 -0.0263
   25loPI   C2B  398  16.037   2.979  10.397 -0.1357  0.0561  0.2323
   25loPI   C3B  399  15.973   2.984   9.973 -0.0541 -0.0042 -0.0989
   25loPI   C4B  400  15.912   2.999   9.534 -0.0649 -0.3932  0.1581
   26loPI    C1  401  14.360   8.337  11.904 -0.1361  0.1522  0.0201
   26loPI    C2  402  14.126   8.244  12.214 -0.0131  0.0938  0.0961
   26loPI    C3  403  14.477   8.058  12.165 -0.0373  0.0943 -0.0848
   26loPI   PO4  404  14.275   8.236  11.641  0.0400  0.0173 -0.1431
   26loPI   GL1  405  14.442   8.364  11.255 -0.0272 -0.3041 -0.3532
   26loPI   GL2  406  14.439   8.744  11.181  0.1265 -0.0781 -0.1608
   26loPI   C1A  407  14.292   8.168  10.868 -0.0621  0.3464 -0.2542
   26loPI   C2A  408  14.203   8.119  10.457  0.1592 -0.1588 -0.0126
   26loPI   C3A  409  14.165   8.163   9.949  0.0177 -0.0434  0.0062
   26loPI   C4A  410  14.239   8.151   9.549  0.3459  0.2481 -0.0493
   26loPI   C5A  411  14.247   8.263   9.070 -0.3478  0.0456  0.1302
   26loPI   C6A  412  14.324   8.468   8.634  0.1830 -0.1905 -0.2155
   26loPI   C1B  413  14.344   8.629  10.877 -0.4592 -0.1574  0.2016
   26loPI   C2B  414  14.335   8.632  10.410  0.3264  0.0291 -0.1844
   26loPI   C3B  415  14.354   8.668   9.944  0.0828 -0.2404 -0.2277
   26loPI   C4B  416  14.295   8.649   9.545  0.0590 -0.0055  0.0588
   27loPI    C1  417   5.301  11.990  11.398 -0.0360 -0.1595 -0.0627
   27loPI    C2  418   5.174  12.116  11.756  0.0818 -0.0082 -0.0731
   27loPI    C3  419   5.394  12.358  11.525 -0.0810 -0.0666 -0.2933
   27loPI   PO4  420   5.200  11.836  11.309  0.2314 -0.1823  0.1669
   27loPI   GL1  421   4.916  11.625  11.118 -0.0720 -0.0426 -0.0697
   27loPI   GL2  422   4.959  11.334  10.991  0.0924  0.0912 -0.1845
   27loPI   C1A  423   5.050  11.856  10.673  0.1243  0.0629 -0.1831
   27loPI   C2A  424   4.962  11.781  10.293  0.2996  0.2570 -0.0615
   27loPI   C3A  425   4.987  11.786   9.831  0.0502  0.1280 -0.0181
   27loPI   C4A  426   4.907  11.814   9.403  0.0353  0.0385 -0.0794
   27loPI   C5A  427   4.916  11.630   8.997 -0.2814  0.2023 -0.0741
   27loPI   C6A  428   5.090  11.473   8.579 -0.3705  0.0702  0.1668
   27loPI   C1B  429   4.872  11.249  10.552  0.1447 -0.0255 -0.2315
   27loPI   C2B  430   4.866  11.337  10.025  0.4939  0.2388  0.0193
   27loPI   C3B  431   4.776  11.342   9.523  0.4159 -0.2117 -0.0511
   27loPI   C4B  432   4.682  11.167   9.091 -0.3727 -0.1441 -0.1642
   28loPI    C1  433   9.988   3.387  11.570 -0.1021  0.1299 -0.1074
   28loPI    C2  434  10.230   3.574  11.827 -0.0328 -0.0809 -0.0167
   28loPI    C3  435   9.884   3.420  11.955 -0.1034  0.0098 -0.0970
   28loPI   PO4  436  10.150   3.407  11.259  0.0324 -0.3404  0.2563
   28loPI   GL1  437  10.061   3.366  10.871  0.1196  0.1157 -0.1196
   28loPI   GL2  438  10.182   3.761  10.810  0.0665 -0.0479 -0.0042
   28loPI   C1A  439  10.038   3.289  10.473 -0.0931 -0.3523 -0.2249
   28loPI   C2A  440  10.049   3.267  10.115 -0.3292  0.3076 -0.1614
   28loPI   C3A  441   9.933   3.175   9.820  0.3529 -0.0979  0.2565
   28loPI   C4A  442  10.001   3.282   9.452  0.2237  0.2401  0.1846
   28loPI   C5A  443   9.918   3.245   9.019  0.0067 -0.1133 -0.0629
   28loPI   C6A  444   9.628   3.472   8.784  0.1054 -0.2769  0.0590
   28loPI   C1B  445  10.434   3.573  10.503  0.2614 -0.1915 -0.3099
   28loPI   C2B  446  10.421   3.646  10.092 -0.0093  0.2972  0.1531
   28loPI   C3B  447  10.419   3.428   9.728  0.1689 -0.2466  0.3021
   28loPI   C4B  448  10.384   3.475   9.304 -0.1310 -0.1463  0.0581
   29loPI    C1  449   2.058   7.029  11.663 -0.0324  0.3162  0.1087
   29loPI    C2  450   2.398   6.901  11.829  0.0076 -0.0495 -0.2417
   29loPI    C3  451   2.048   6.751  11.951 -0.0141  0.1624 -0.0377
   29loPI   PO4  452   2.203   7.032  11.376 -0.1754 -0.1529  0.1591
   29loPI   GL1  453   2.417   7.334  11.044  0.0149 -0.0324 -0.0207
   29loPI   GL2  454   2.325   7.649  10.988  0.0773  0.2010  0.1008
   29loPI   C1A  455   2.180   7.189  10.637  0.2089  0.1520  0.0645
   29loPI   C2A  456   2.165   7.208  10.110 -0.0373  0.1092  0.2042
   29loPI   C3A  457   2.174   7.329   9.703 -0.0470  0.1047 -0.1676
   29loPI   C4A  458   2.143   7.383   9.242  0.0147 -0.4996 -0.0080
   29loPI   C5A  459   1.668   7.510   9.087 -0.1343 -0.0818  0.0185
   29loPI   C6A  460   1.271   7.527   8.954 -0.0354  0.1797  0.0845
   29loPI   C1B  461   2.387   7.686  10.577 -0.3140 -0.2875  0.2071
   29loPI   C2B  462   2.311   7.709  10.126 -0.0260  0.0573 -0.0682
   29loPI   C3B  463   2.424   7.803   9.682  0.0966 -0.0410 -0.0505
   29loPI   C4B  464   2.440   7.945   9.191 -0.2739  0.0707  0.1092
   30loPI    C1  465  17.012  11.254  11.516  0.1173 -0.0756  0.2621
   30loPI    C2  466  16.848  11.610  11.595 -0.0106 -0.0942  0.0852
   30loPI    C3  467  17.030  11.405  11.886 -0.0649  0.0488  0.2213
   30loPI   PO4  468  16.886  11.185  11.291  0.2235  0.1672 -0.1992
   30loPI   GL1  469  16.607  10.844  11.118 -0.1924  0.1359 -0.0441
   30loPI   GL2  470  16.270  10.844  11.114  0.2561  0.0878 -0.0047
   30loPI   C1A  471  16.590  10.816  10.641  0.1175 -0.0281  0.1554
   30loPI   C2A  472  16.698  10.886  10.266  0.2029  0.1436 -0.0880
   30loPI   C3A  473  16.510  11.044   9.772 -0.0033  0.1307  0.1825
   30loPI   C4A  474  16.354  11.217   9.363 -0.1084  0.1442 -0.3579
   30loPI   C5A  475  16.083  11.201   9.041 -0.0554  0.0559 -0.1575
   30loPI   C6A  476  15.660  11.155   8.873  0.1184  0.0258  0.5900
   30loPI   C1B  477  16.098  10.846  10.674 -0.0599  0.0585 -0.3647
   30loPI   C2B  478  16.097  10.826  10.306  0.0761  0.1203 -0.2589
   30loPI   C3B  479  16.123  10.792   9.750 -0.0292  0.1426 -0.2456
   30loPI   C4B  480  16.071  10.700   9.307  0.1190  0.0039  0.0199
   31loPI    C1  481  13.427   0.281  11.866 -0.2224 -0.0513  0.2202
   31loPI    C2  482  13.752   0.087  11.995 -0.0206  0.0588 -0.1101
   31loPI    C3  483  13.389  -0.034  12.109  0.1233 -0.2200  0.0635
   31loPI   PO4  484  13.506   0.394  11.628  0.0996 -0.0436  0.2514
   31loPI   GL1  485  13.463   0.347  11.190  0.3041 -0.2965 -0.1425
   31loPI   GL2  486  13.676   0.090  11.282 -0.0577 -0.0519  0.1686
   31loPI   C1A  487  13.583   0.351  10.752 -0.0426 -0.1742 -0.4323
   31loPI   C2A  488  13.584   0.427  10.317  0.1972  0.0742 -0.1028
   31loPI   C3A  489  13.546   0.182   9.916 -0.0865  0.3137  0.1040
   31loPI   C4A  490  13.595   0.225   9.535 -0.1291 -0.1113 -0.2998
   31loPI   C5A  491  13.823   0.232   9.211 -0.0315 -0.2572 -0.0680
   31loPI   C6A  492  13.834  -0.137   9.017  0.0575  0.2118  0.2760
   31loPI   C1B  493  13.785  -0.149  10.822 -0.0713 -0.0260 -0.3328
   31loPI   C2B  494  13.931  -0.130  10.370 -0.0972  0.2050  0.3417
   31loPI   C3B  495  13.873  -0.147   9.962  0.1319  0.1161 -0.2381
   31loPI   C4B  496  13.863  -0.182   9.582  0.1858 -0.1550  0.2163
   32loPI    C1  497   3.369   7.012  11.391 -0.1123 -0.0654  0.0060
   32loPI    C2  498   3.455   7.183  11.742  0.0097 -0.1810  0.0332
   32loPI    C3  499   3.122   7.287  11.546  0.2043  0.2701 -0.0719
   32loPI   PO4  500   3.590   7.047  11.212 -0.0673 -0.1777  0.3541
   32loPI   GL1  501   3.626   6.974  10.756 -0.1303  0.1051  0.0871
   32loPI   GL2  502   3.764   7.341  10.860 -0.0659 -0.1761 -0.1397
   32loPI   C1A  503   3.577   6.941  10.289  0.3370  0.2726  0.0634
   32loPI   C2A  504   3.411   6.986   9.938 -0.0631  0.1761  0.3390
   32loPI   C3A  505   3.442   6.953   9.484  0.3170 -0.3749  0.0107
   32loPI   C4A  506   3.654   7.156   9.163  0.2051  0.0235  0.0128
   32loPI   C5A  507   3.779   7.372   8.924  0.3315  0.4189  0.0287
   32loPI   C6A  508   4.012   7.368   8.551 -0.4118  0.0071 -0.0807
   32loPI   C1B  509   3.779   7.433  10.382 -0.0076 -0.1479 -0.0220
   32loPI   C2B  510   3.730   7.344   9.946 -0.0079  0.2308 -0.1163
   32loPI   C3B  511   3.639   7.535   9.518 -0.0366  0.1034 -0.1705
   32loPI   C4B  512   3.576   7.698   9.192  0.0060 -0.1437 -0.0668
   33loPI    C1  513   4.359  11.601  11.507  0.2769 -0.1042 -0.0436
   33loPI    C2  514   4.514  11.506  11.863  0.0529  0.1432  0.1240
   33loPI    C3  515   4.308  11.846  11.819 -0.0566  0.0386 -0.2047
   33loPI   PO4  516   4.248  11.412  11.376  0.0470  0.1394 -0.1770
   33loPI   GL1  517   3.990  11.459  11.134 -0.1948 -0.1259  0.0242
   33loPI   GL2  518   4.034  11.647  10.899  0.0762 -0.3605 -0.2812
   33loPI   C1A  519   3.821  11.223  10.750 -0.0006 -0.1416  0.3602
   33loPI   C2A  520   3.708  11.299  10.358  0.0920 -0.2456  0.0463
   33loPI   C3A  521   3.656  11.229   9.962  0.1373  0.2005 -0.2667
   33loPI   C4A  522   3.773  11.175   9.618  0.0269 -0.0432 -0.2287
   33loPI   C5A  523   3.662  11.104   9.146  0.0082 -0.0368  0.0489
   33loPI   C6A  524   3.828  11.016   8.757 -0.0810 -0.1708  0.0594
   33loPI   C1B  525   3.949  11.711  10.423  0.2609  0.1545  0.2242
   33loPI   C2B  526   3.899  11.715   9.941  0.1630 -0.1323 -0.1303
   33loPI   C3B  527   3.934  11.684   9.519 -0.0491 -0.2804  0.4380
   33loPI   C4B  528   3.957  11.780   9.143 -0.2167 -0.0418 -0.1801
   34loPI    C1  529  11.335  14.452  11.750 -0.0089 -0.0482 -0.0613
   34loPI    C2  530  11.509  14.810  11.794  0.1015 -0.0845 -0.1953
   34loPI    C3  531  11.453  14.574  12.112  0.0819  0.0270 -0.1156
   34loPI   PO4  532  11.239  14.500  11.454  0.2825  0.2210 -0.2018
   34loPI   GL1  533  11.073  14.217  11.185 -0.2158  0.2832 -0.2596
   34loPI   GL2  534  10.930  14.588  11.088 -0.1051  0.0947  0.0168
   34loPI   C1A  535  11.170  14.154  10.822 -0.0282  0.1497 -0.4213
   34loPI   C2A  536  11.215  14.039  10.367 -0.1932 -0.2928  0.1932
   34loPI   C3A  537  11.216  14.051   9.967 -0.0383  0.0309 -0.0373
   34loPI   C4A  538  11.167  14.064   9.493  0.1202  0.2770  0.0683
   34loPI   C5A  539  11.128  14.242   9.167  0.1460  0.0923  0.6127
   34loPI   C6A  540  11.193  14.549   8.750 -0.0258  0.0452  0.0108
   34loPI   C1B  541  10.858  14.478  10.687 -0.0129 -0.0641  0.2261
   34loPI   C2B  542  10.901  14.485  10.257  0.2082 -0.1427 -0.0299
   34loPI   C3B  543  10.991  14.486   9.869 -0.0910  0.0482 -0.0843
   34loPI   C4B  544  10.867  14.485   9.534 -0.0074  0.2604 -0.0019
   35loPI    C1  545   7.434   3.252  11.652  0.0464  0.3399 -0.0397
   35loPI    C2  546   7.777   3.254  11.858  0.1551 -0.4818 -0.1768
   35loPI    C3  547   7.430   3.196  12.048  0.1250 -0.0497 -0.0896
   35loPI   PO4  548   7.502   3.146  11.448 -0.1434 -0.1999  0.1284
   35loPI   GL1  549   7.441   3.123  11.035  0.1958  0.0761  0.0116
   35loPI   GL2  550   7.795   3.076  10.981  0.1991 -0.1447 -0.1965
   35loPI   C1A  551   7.349   2.954  10.626  0.1291 -0.0555  0.0805
   35loPI   C2A  552   7.344   2.915  10.123 -0.2312  0.1906 -0.2074
   35loPI   C3A  553   7.312   2.865   9.656 -0.3104 -0.0778 -0.0809
   35loPI   C4A  554   7.373   2.848   9.216 -0.1786 -0.1706  0.1493
   35loPI   C5A  555   7.377   3.112   8.864  0.0255 -0.4166  0.4079
   35loPI   C6A  556   7.561   3.535   8.805  0.0378 -0.1800  0.0260
   35loPI   C1B  557   7.883   3.064  10.509  0.1927  0.0730  0.0055
   35loPI   C2B  558   7.817   3.001  10.069  0.0724  0.1777  0.0248
   35loPI   C3B  559   7.812   3.077   9.602  0.4062 -0.2205  0.1889
   35loPI   C4B  560   7.825   2.975   9.101 -0.0259 -0.3053  0.1460
   36loPI    C1  561  10.231   0.362  11.755  0.0281  0.2355  0.0535
   36loPI    C2  562  10.366   0.195  12.093 -0.0274  0.0266 -0.0257
   36loPI    C3  563  10.131   0.519  12.109  0.0237  0.0566  0.1327
   36loPI   PO4  564  10.415   0.407  11.615 -0.1669  0.1993 -0.1051
   36loPI   GL1  565  10.499   0.349  11.202 -0.0153  0.0695 -0.1281
   36loPI   GL2  566  10.744   0.395  10.999 -0.1431  0.0188  0.2394
   36loPI   C1A  567  10.187   0.182  10.857  0.0473 -0.0171 -0.1423
   36loPI   C2A  568  10.197   0.235  10.265  0.1818 -0.0888 -0.5210
   36loPI   C3A  569  10.248   0.126   9.807 -0.1246  0.2495 -0.0715
   36loPI   C4A  570  10.287   0.157   9.399 -0.1597  0.0027  0.1390
   36loPI   C5A  571  10.466   0.186   9.025  0.2058 -0.1218 -0.0055
   36loPI   C6A  572  10.484  -0.225   8.748 -0.0264  0.2213 -0.0361
   36loPI   C1B  573  10.582   0.337  10.617  0.0209  0.1756  0.1898
   36loPI   C2B  574  10.698   0.214  10.295  0.1641  0.1274 -0.4191
   36loPI   C3B  575  10.694   0.227   9.877 -0.0405 -0.1002 -0.0355
   36loPI   C4B  576  10.806   0.148   9.463  0.1925 -0.1538  0.0464
   37loPI    C1  577  13.465  15.021  11.559 -0.0998  0.0825  0.0950
   37loPI    C2  578  13.113  15.089  11.736 -0.1050  0.0515  0.0967
   37loPI    C3  579  13.434  14.999  11.957 -0.1321 -0.0779  0.0843
   37loPI   PO4  580  13.395  14.890  11.373  0.0792  0.2399 -0.2682
   37loPI   GL1  581  13.252  14.921  10.995  0.0745  0.0133 -0.1652
   37loPI   GL2  582  12.935  14.856  10.911 -0.0543  0.1388  0.0522
   37loPI   C1A  583  13.400  14.841  10.638 -0.1525 -0.2439 -0.2773
   37loPI   C2A  584  13.488  14.973  10.324 -0.0618  0.0644  0.1332
   37loPI   C3A  585  13.553  14.903   9.924 -0.1182  0.0832 -0.0296
   37loPI   C4A  586  13.451  14.772   9.484  0.0450  0.1362 -0.1306
   37loPI   C5A  587  13.484  14.666   9.063 -0.0269 -0.0248  0.1059
   37loPI   C6A  588  13.850  14.435   8.859 -0.1000 -0.1166 -0.0537
   37loPI   C1B  589  12.980  14.793  10.444  0.1903 -0.0216  0.0692
   37loPI   C2B  590  13.085  14.775  10.023 -0.0277  0.1726 -0.2553
   37loPI   C3B  591  12.942  14.641   9.546  0.0610  0.2153  0.1299
   37loPI   C4B  592  13.028  14.475   9.095 -0.1707 -0.0199  0.1366
   38loPI    C1  593   8.817  11.731  11.569 -0.0085 -0.0349  0.1055
   38loPI    C2  594   8.997  11.404  11.714  0.1749  0.0461  0.0643
   38loPI    C3  595   8.845  11.677  11.965  0.0250 -0.0673  0.0988
   38loPI   PO4  596   8.723  11.666  11.378  0.2122 -0.3483 -0.2125
   38loPI   GL1  597   8.696  11.723  11.028 -0.1217  0.2227  0.1849
   38loPI   GL2  598   8.413  11.694  10.912  0.0996 -0.1304  0.1538
   38loPI   C1A  599   8.933  11.848  10.716  0.1056  0.1528 -0.0281
   38loPI   C2A  600   8.916  11.937  10.276 -0.1183 -0.3211 -0.3058
   38loPI   C3A  601   8.932  11.944   9.879  0.1915 -0.3580  0.0346
   38loPI   C4A  602   8.820  11.978   9.416 -0.1137  0.2086  0.0907
   38loPI   C5A  603   8.787  11.780   9.009 -0.0980 -0.3044  0.0533
   38loPI   C6A  604   8.884  11.668   8.608 -0.2279  0.3197 -0.0417
   38loPI   C1B  605   8.466  11.827  10.474 -0.1354 -0.3542  0.0398
   38loPI   C2B  606   8.438  11.885  10.030  0.0741  0.1473 -0.1753
   38loPI   C3B  607   8.370  11.819   9.605 -0.1350  0.1068  0.0990
   38loPI   C4B  608   8.331  11.881   9.116 -0.2557  0.0142 -0.2227
   39loPI    C1  609   1.743   0.594  11.783  0.0627  0.0611 -0.0584
   39loPI    C2  610   1.913   0.441  12.112 -0.0420  0.0509 -0.0085
   39loPI    C3  611   1.827   0.831  12.094 -0.3019  0.0003  0.0922
   39loPI   PO4  612   1.908   0.538  11.490  0.2819  0.0496  0.0904
   39loPI   GL1  613   2.281   0.495  11.201  0.0725 -0.0302 -0.4152
   39loPI   GL2  614   2.568   0.325  11.103  0.1009  0.2417  0.1764
   39loPI   C1A  615   2.151   0.754  10.833  0.0436 -0.3254 -0.0920
   39loPI   C2A  616   2.099   0.720  10.316 -0.4067  0.0353 -0.2862
   39loPI   C3A  617   2.174   0.724   9.883 -0.0692 -0.0928  0.0237
   39loPI   C4A  618   2.305   0.847   9.397 -0.3286  0.0249 -0.0027
   39loPI   C5A  619   2.447   0.988   9.016  0.1539  0.1384  0.0659
   39loPI   C6A  620   2.592   1.094   8.588  0.2736  0.2075 -0.1677
   39loPI   C1B  621   2.437   0.356  10.670 -0.1118 -0.2589  0.0635
   39loPI   C2B  622   2.359   0.292  10.187 -0.1012  0.0830  0.0489
   39loPI   C3B  623   2.507   0.330   9.810 -0.3605  0.0653  0.1676
   39loPI   C4B  624   2.555   0.389   9.364  0.0440  0.2482 -0.1776
   40loPI    C1  625  15.517  13.520  12.049  0.0220 -0.0617  0.1026
   40loPI    C2  626  15.578  13.135  12.137  0.1629 -0.0585  0.0225
   40loPI    C3  627  15.506  13.397  12.429  0.0479 -0.1485  0.0756
   40loPI   PO4  628  15.341  13.542  11.787  0.1387 -0.0291  0.1215
   40loPI   GL1  629  15.500  13.507  11.373 -0.0926  0.0529 -0.2742
   40loPI   GL2  630  15.139  13.579  11.309 -0.1061  0.0794 -0.0052
   40loPI   C1A  631  15.755  13.440  11.025 -0.0692  0.0974  0.0146
   40loPI   C2A  632  15.804  13.506  10.548  0.1157 -0.1636  0.0292
   40loPI   C3A  633  15.778  13.545  10.198  0.1980  0.0982  0.1515
   40loPI   C4A  634  15.787  13.400   9.830 -0.1741  0.1570  0.1601
   40loPI   C5A  635  15.800  13.406   9.419  0.1550  0.2624 -0.1133
   40loPI   C6A  636  15.868  13.247   9.055  0.1630  0.3372 -0.1069
   40loPI   C1B  637  15.207  13.415  10.883 -0.0628 -0.1789 -0.1738
   40loPI   C2B  638  15.311  13.418  10.439 -0.1206 -0.0633 -0.0309
   40loPI   C3B  639  15.316  13.387  10.018 -0.0007  0.1576  0.0021
   40loPI   C4B  640  15.179  13.319   9.610 -0.1038 -0.0754  0.0036
   41loPI    C1  641   5.530  12.875  11.831 -0.1408  0.2026 -0.0830
   41loPI    C2  642   5.482  12.854  12.228  0.2204 -0.0711 -0.0487
   41loPI    C3  643   5.471  12.521  12.007  0.0954  0.0720 -0.2615
   41loPI   PO4  644   5.433  12.950  11.686 -0.1603 -0.2399  0.0473
   41loPI   GL1  645   5.476  13.151  11.292 -0.1960  0.1033 -0.1190
   41loPI   GL2  646   5.289  12.845  11.118 -0.0856 -0.1477  0.0219
   41loPI   C1A  647   5.639  13.299  10.908  0.0661  0.2477  0.2461
   41loPI   C2A  648   5.667  13.243  10.507 -0.1746  0.1520  0.1443
   41loPI   C3A  649   5.611  13.301  10.023 -0.0733 -0.0783  0.0884
   41loPI   C4A  650   5.544  13.332   9.623 -0.0248  0.0651 -0.0661
   41loPI   C5A  651   5.595  13.353   9.164  0.1659  0.0381 -0.1712
   41loPI   C6A  652   5.725  13.551   8.819 -0.1365  0.0435  0.4703
   41loPI   C1B  653   5.436  12.845  10.802  0.1820 -0.0080 -0.0857
   41loPI   C2B  654   5.450  12.799  10.441 -0.2629  0.4437 -0.2116
   41loPI   C3B  655   5.369  12.719  10.009  0.2016  0.1088 -0.0295
   41loPI   C4B  656   5.359  12.758   9.552 -0.0466 -0.1455 -0.1840
   42loPI    C1  657  12.103   9.469  11.855  0.0187 -0.0502 -0.0508
   42loPI    C2  658  11.923   9.707  12.121 -0.0013  0.0166 -0.1236
   42loPI    C3  659  12.015   9.330  12.220 -0.0561  0.0247 -0.0400
   42loPI   PO4  660  11.876   9.545  11.643  0.2370  0.1199  0.2342
   42loPI   GL1  661  11.914   9.478  11.170  0.0055  0.0715 -0.1018
   42loPI   GL2  662  11.828   9.598  10.886  0.1176 -0.1428  0.0598
   42loPI   C1A  663  12.144   9.306  10.726 -0.1223  0.1102 -0.2260
   42loPI   C2A  664  12.178   9.197  10.221 -0.0315 -0.0788 -0.3435
   42loPI   C3A  665  12.148   9.202   9.724  0.1529 -0.1245 -0.5456
   42loPI   C4A  666  12.173   9.152   9.358 -0.0638  0.2577 -0.1555
   42loPI   C5A  667  12.236   9.094   9.016 -0.2079  0.0875  0.1395
   42loPI   C6A  668  12.345   8.913   8.691  0.2451  0.2261  0.0742
   42loPI   C1B  669  11.941   9.644  10.461 -0.1914 -0.2212 -0.0058
   42loPI   C2B  670  11.822   9.570   9.966 -0.2935 -0.1340 -0.2135
   42loPI   C3B  671  11.909   9.598   9.438  0.1815  0.2536  0.1610
   42loPI   C4B  672  11.839   9.576   8.970  0.3334  0.0990 -0.2500
   43loPI    C1  673   9.059  12.708  11.657  0.2690 -0.1980 -0.2067
   43loPI    C2  674   9.205  12.974  11.918  0.2253 -0.2156 -0.1641
   43loPI    C3  675   8.964  12.681  12.045  0.1429 -0.1794 -0.2358
   43loPI   PO4  676   9.231  12.649  11.497  0.3304 -0.2105  0.2656
   43loPI   GL1  677   9.180  12.692  11.118  0.2344 -0.0888  0.1187
   43loPI   GL2  678   8.850  12.653  11.169 -0.0517 -0.0235 -0.1776
   43loPI   C1A  679   9.249  12.831  10.726  0.1575 -0.2221  0.2663
   43loPI   C2A  680   9.336  12.849  10.239  0.1308 -0.0366  0.1162
   43loPI   C3A  681   9.236  12.887   9.800 -0.3332 -0.2151 -0.1801
   43loPI   C4A  682   9.252  12.916   9.380 -0.0174 -0.1347  0.2128
   43loPI   C5A  683   9.096  12.654   9.041  0.2937  0.0627 -0.1733
   43loPI   C6A  684   8.807  12.710   8.872 -0.0238  0.0036 -0.1150
   43loPI   C1B  685   8.725  12.703  10.748  0.0927 -0.1163 -0.1935
   43loPI   C2B  686   8.795  12.739  10.298  0.0345  0.1024 -0.3943
   43loPI   C3B  687   8.740  12.749   9.834 -0.0720 -0.0042  0.2360
   43loPI   C4B  688   8.739  12.879   9.337 -0.0512  0.3862 -0.2288
   44loPI    C1  689   1.838  10.855  11.829 -0.0599 -0.1233 -0.2271
   44loPI    C2  690   2.009  10.573  12.056 -0.1456  0.0188  0.0184
   44loPI    C3  691   1.610  10.599  12.036 -0.1421 -0.1357 -0.3324
   44loPI   PO4  692   1.856  10.919  11.606  0.0575  0.3712 -0.2127
   44loPI   GL1  693   2.040  11.242  11.369 -0.1200 -0.0139 -0.1843
   44loPI   GL2  694   2.295  11.454  11.333  0.1990  0.0137  0.2062
   44loPI   C1A  695   1.934  11.255  10.952 -0.2399 -0.0010 -0.1159
   44loPI   C2A  696   1.907  11.325  10.517  0.1810 -0.1872 -0.1304
   44loPI   C3A  697   1.875  11.409  10.089  0.1174  0.0463  0.3652
   44loPI   C4A  698   1.928  11.354   9.702  0.1477 -0.1163 -0.0197
   44loPI   C5A  699   1.762  11.367   9.297 -0.0842  0.0690 -0.0682
   44loPI   C6A  700   1.763  11.514   8.862 -0.1672  0.0187  0.1351
   44loPI   C1B  701   2.105  11.749  10.974 -0.1667 -0.0972  0.0971
   44loPI   C2B  702   2.103  11.803  10.581  0.0627  0.2587  0.1520
   44loPI   C3B  703   2.064  11.853  10.181  0.0464  0.1206 -0.0471
   44loPI   C4B  704   2.134  11.838   9.779 -0.0424 -0.2449 -0.0116
   45loPI    C1  705  16.868  15.173  12.269  0.3029  0.0945 -0.1175
   45loPI    C2  706  16.827  14.882  12.540 -0.2880  0.3281  0.0594
   45loPI    C3  707  17.088  15.178  12.602  0.1048 -0.0002  0.0169
   45loPI   PO4  708  16.865  15.034  12.027 -0.2234 -0.1451 -0.1621
   45loPI   GL1  709  16.767  14.891  11.566 -0.3579  0.1555 -0.1595
   45loPI   GL2  710  16.945  14.630  11.472  0.1342 -0.1724 -0.0485
   45loPI   C1A  711  16.748  14.990  11.149 -0.2126  0.0338 -0.1866
   45loPI   C2A  712  16.844  14.937  10.725 -0.1518 -0.0721  0.2566
   45loPI   C3A  713  16.928  15.037  10.222 -0.4041  0.0023  0.3543
   45loPI   C4A  714  16.852  15.082   9.909  0.2484  0.0269 -0.0891
   45loPI   C5A  715  16.986  14.967   9.500  0.4638  0.1094  0.0386
   45loPI   C6A  716  16.921  14.952   9.078 -0.0073 -0.2086 -0.1573
   45loPI   C1B  717  17.094  14.594  11.055  0.1677 -0.0034 -0.0221
   45loPI   C2B  718  17.166  14.613  10.622 -0.1214 -0.0430  0.1873
   45loPI   C3B  719  17.118  14.561  10.209 -0.2397  0.0144  0.0846
   45loPI   C4B  720  17.162  14.601   9.765 -0.0661 -0.0023  0.1003
   46loPI    C1  721   6.041  13.881  11.983  0.1903  0.1734  0.0648
   46loPI    C2  722   6.049  13.613  12.279 -0.0001  0.0389 -0.0492
   46loPI    C3  723   5.995  14.001  12.362 -0.0453  0.0033  0.0926
   46loPI   PO4  724   5.832  13.798  11.853  0.0906 -0.0378  0.1525
   46loPI   GL1  725   5.644  13.697  11.321 -0.2207 -0.0313  0.1036
   46loPI   GL2  726   5.882  13.837  11.169  0.1521  0.0923  0.0214
   46loPI   C1A  727   5.382  13.715  10.897 -0.4185  0.0864  0.2880
   46loPI   C2A  728   5.346  13.646  10.498  0.2091 -0.1379  0.1211
   46loPI   C3A  729   5.258  13.695  10.110  0.0859  0.1539 -0.0796
   46loPI   C4A  730   5.233  13.714   9.680  0.2047 -0.1497  0.2309
   46loPI   C5A  731   5.215  13.720   9.249  0.2982  0.0718  0.0659
   46loPI   C6A  732   5.106  13.374   9.126  0.1645 -0.1227  0.0334
   46loPI   C1B  733   5.885  13.686  10.770  0.1034 -0.1396  0.2016
   46loPI   C2B  734   5.779  13.701  10.294 -0.1429 -0.2016  0.2791
   46loPI   C3B  735   5.723  13.773   9.875 -0.1901  0.1885  0.2930
   46loPI   C4B  736   5.793  13.735   9.480  0.1137 -0.1902 -0.1200
   47loPI    C1  737  11.185   2.671  11.657  0.1441  0.0053 -0.0246
   47loPI    C2  738  10.975   2.985  11.789  0.1211 -0.0495  0.0696
   47loPI    C3  739  11.016   2.660  12.019  0.0593 -0.1562 -0.0684
   47loPI   PO4  740  11.100   2.586  11.492  0.1255  0.1281  0.2456
   47loPI   GL1  741  11.177   2.673  11.057  0.2617 -0.0172 -0.0448
   47loPI   GL2  742  10.931   2.554  11.026 -0.0304  0.1744 -0.1556
   47loPI   C1A  743  11.024   2.756  10.578 -0.1512  0.2565  0.1297
   47loPI   C2A  744  11.049   2.783  10.093  0.0517 -0.1474  0.3036
   47loPI   C3A  745  11.102   2.624   9.703 -0.1270 -0.1044  0.2014
   47loPI   C4A  746  11.221   2.493   9.318 -0.0246 -0.1255 -0.1578
   47loPI   C5A  747  11.278   2.600   8.893  0.0748 -0.0246 -0.0995
   47loPI   C6A  748  11.097   2.875   8.610  0.1823  0.1621  0.2786
   47loPI   C1B  749  10.955   2.267  10.751  0.0115  0.2900 -0.2803
   47loPI   C2B  750  10.941   2.162  10.292 -0.1780  0.0339  0.1207
   47loPI   C3B  751  10.965   2.154   9.781  0.0860  0.0866 -0.2429
   47loPI   C4B  752  10.897   2.023   9.321  0.2991 -0.1348  0.1040
   48loPI    C1  753   9.130   1.189  11.587  0.1749  0.1579  0.0311
   48loPI    C2  754   8.915   0.879  11.456  0.1337  0.2475 -0.1161
   48loPI    C3  755   8.858   1.019  11.826 -0.0742  0.2814 -0.1595
   48loPI   PO4  756   9.132   1.323  11.484  0.2557  0.2781  0.1778
   48loPI   GL1  757   9.201   1.494  11.046 -0.1959 -0.1868  0.0684
   48loPI   GL2  758   8.913   1.737  10.940  0.0162  0.0504  0.0687
   48loPI   C1A  759   9.201   1.333  10.675  0.2698  0.1655  0.1306
   48loPI   C2A  760   9.111   1.368  10.288  0.0294 -0.0246 -0.1961
   48loPI   C3A  761   9.163   1.327   9.924  0.2365  0.2252 -0.0844
   48loPI   C4A  762   9.140   1.315   9.518 -0.0911 -0.0710  0.3887
   48loPI   C5A  763   9.240   1.241   9.084 -0.0043  0.1878  0.1115
   48loPI   C6A  764   9.560   1.238   8.670  0.0210  0.1159 -0.1324
   48loPI   C1B  765   8.806   1.746  10.493  0.2740  0.0312  0.4284
   48loPI   C2B  766   8.800   1.741  10.095 -0.3135  0.0450 -0.0310
   48loPI   C3B  767   8.853   1.843   9.736  0.2583  0.0083  0.1315
   48loPI   C4B  768   8.846   1.671   9.331  0.1150 -0.1972 -0.1529
   49loPI    C1  769   8.295  14.391  11.883 -0.0178  0.0392  0.0899
   49loPI    C2  770   8.167  14.573  12.215 -0.0110  0.0258  0.0998
   49loPI    C3  771   8.204  14.175  12.207 -0.2300  0.0055  0.0098
   49loPI   PO4  772   8.160  14.429  11.680  0.1820  0.1235  0.1202
   49loPI   GL1  773   8.101  14.242  11.327  0.2128  0.1402  0.1222
   49loPI   GL2  774   8.295  14.085  11.118  0.0037  0.1550 -0.0205
   49loPI   C1A  775   7.923  14.383  10.951 -0.0943  0.1945  0.0289
   49loPI   C2A  776   8.020  14.503  10.522  0.2107 -0.0686  0.0792
   49loPI   C3A  777   7.954  14.531  10.017  0.2966  0.2198  0.1610
   49loPI   C4A  778   7.903  14.448   9.630 -0.1415 -0.0990 -0.2080
   49loPI   C5A  779   7.939  14.398   9.206  0.0709  0.0297 -0.2035
   49loPI   C6A  780   8.138  14.318   8.839 -0.0455  0.0482  0.3576
   49loPI   C1B  781   8.349  14.148  10.722 -0.2646 -0.4961  0.1728
   49loPI   C2B  782   8.274  14.031  10.272  0.2773 -0.0475 -0.1344
   49loPI   C3B  783   8.220  14.062   9.866 -0.2131 -0.0928  0.2556
   49loPI   C4B  784   8.230  14.121   9.446 -0.0902  0.4524 -0.1631
   50loPI    C1  785   7.828  13.426  11.816 -0.1204  0.1242 -0.0474
   50loPI    C2  786   8.003  13.645  12.101 -0.1645  0.0233  0.0583
   50loPI    C3  787   8.129  13.272  12.029 -0.2674 -0.0130  0.0638
   50loPI   PO4  788   7.799  13.538  11.647  0.1342 -0.0136  0.2117
   50loPI   GL1  789   7.906  13.732  11.225  0.2612 -0.0031  0.0564
   50loPI   GL2  790   7.836  13.511  11.100 -0.2182  0.0449 -0.0877
   50loPI   C1A  791   7.931  13.935  10.806  0.2481  0.0198  0.0332
   50loPI   C2A  792   7.800  13.912  10.376  0.1259 -0.1801 -0.0183
   50loPI   C3A  793   7.766  13.980  10.017  0.0870 -0.0773 -0.1529
   50loPI   C4A  794   7.746  13.996   9.566 -0.1368  0.0441 -0.2921
   50loPI   C5A  795   7.789  13.941   9.213 -0.5175 -0.0864 -0.1076
   50loPI   C6A  796   7.969  13.770   8.801  0.0547  0.1201 -0.0892
   50loPI   C1B  797   7.659  13.486  10.738  0.1017 -0.0151 -0.0153
   50loPI   C2B  798   7.653  13.452  10.334 -0.0975 -0.4259  0.2281
   50loPI   C3B  799   7.532  13.561   9.934 -0.0695 -0.2162 -0.0326
   50loPI   C4B  800   7.560  13.532   9.538  0.1788 -0.0485 -0.2246
   51loPI    C1  801  15.945  14.699  11.972 -0.2027 -0.0812  0.0226
   51loPI    C2  802  15.904  15.078  12.092  0.0143 -0.0597  0.0337
   51loPI    C3  803  15.924  14.784  12.362 -0.2656 -0.0926  0.0217
   51loPI   PO4  804  16.193  14.713  11.776 -0.1254  0.0416 -0.0420
   51loPI   GL1  805  16.275  14.650  11.439 -0.0532  0.0805  0.1574
   51loPI   GL2  806  16.038  14.367  11.433 -0.0924  0.1161 -0.2604
   51loPI   C1A  807  16.269  14.905  11.086  0.1313  0.4601  0.1062
   51loPI   C2A  808  16.319  14.921  10.659  0.1382 -0.0785  0.4177
   51loPI   C3A  809  16.442  14.928  10.240 -0.0618  0.1261  0.1477
   51loPI   C4A  810  16.399  14.978   9.773 -0.0121 -0.1066 -0.3074
   51loPI   C5A  811  16.462  15.187   9.418  0.1192 -0.0824 -0.0442
   51loPI   C6A  812  16.490  15.373   8.997  0.1685 -0.1198 -0.4073
   51loPI   C1B  813  16.055  14.450  11.041  0.0421 -0.1888  0.1116
   51loPI   C2B  814  16.167  14.434  10.598 -0.0635  0.3341  0.1307
   51loPI   C3B  815  16.260  14.457  10.173 -0.0417  0.0560  0.0121
   51loPI   C4B  816  16.185  14.482   9.803  0.0634 -0.1230 -0.2564
   52loPI    C1  817  16.591  17.207  11.857 -0.0151  0.0475 -0.2094
   52loPI    C2  818  16.358  17.147  12.176  0.0648 -0.0366 -0.1665
   52loPI    C3  819  16.580  17.478  12.151  0.0003  0.0064 -0.1707
   52loPI   PO4  820  16.434  17.150  11.643  0.2098 -0.0210  0.1540
   52loPI   GL1  821  16.273  17.286  11.254 -0.0072  0.1272  0.1506
   52loPI   GL2  822  16.468  17.590  11.296  0.1900 -0.1644 -0.0573
   52loPI   C1A  823  16.306  17.109  10.796  0.0381  0.0649  0.2318
   52loPI   C2A  824  16.266  17.294  10.308  0.0540 -0.0144 -0.2759
   52loPI   C3A  825  16.328  17.189   9.896  0.0936 -0.1536  0.1957
   52loPI   C4A  826  16.262  17.239   9.475  0.3005 -0.3063 -0.2010
   52loPI   C5A  827  15.954  17.217   9.054 -0.0476  0.1377 -0.1055
   52loPI   C6A  828  15.603  16.918   8.943  0.1877 -0.0399 -0.1815
   52loPI   C1B  829  16.412  17.623  10.831  0.1011  0.1342  0.2899
   52loPI   C2B  830  16.513  17.724  10.341 -0.1828  0.1938 -0.3068
   52loPI   C3B  831  16.459  17.653   9.901 -0.0947 -0.0149  0.2333
   52loPI   C4B  832  16.576  17.843   9.478  0.2467 -0.2988 -0.1899
   53loPI    C1  833  10.911  11.020  11.788  0.1917  0.1146 -0.0401
   53loPI    C2  834  10.987  11.393  11.910 -0.0995  0.0772  0.2703
   53loPI    C3  835  10.633  11.224  11.991 -0.0314 -0.2090 -0.0115
   53loPI   PO4  836  11.026  11.067  11.543 -0.0081 -0.1657  0.4597
   53loPI   GL1  837  10.994  11.147  11.134  0.0478  0.0551  0.1675
   53loPI   GL2  838  11.274  11.317  10.957  0.0122  0.0969  0.1012
   53loPI   C1A  839  10.912  10.868  10.843 -0.1426  0.1895  0.0987
   53loPI   C2A  840  10.922  10.840  10.319  0.0468 -0.1691  0.1534
   53loPI   C3A  841  10.876  10.800   9.840 -0.2002 -0.2913  0.1924
   53loPI   C4A  842  10.873  10.701   9.441  0.0879  0.0389  0.0376
   53loPI   C5A  843  10.829  10.617   9.033  0.2327 -0.2380 -0.1189
   53loPI   C6A  844  10.678  10.262   8.780  0.3226 -0.0060 -0.0452
   53loPI   C1B  845  11.127  11.243  10.579  0.4774  0.0897 -0.2627
   53loPI   C2B  846  11.114  11.337  10.237  0.2797  0.1006 -0.0843
   53loPI   C3B  847  11.038  11.253   9.856  0.0138 -0.0995 -0.3591
   53loPI   C4B  848  11.033  11.245   9.496  0.0638 -0.0100  0.1494
   54loPI    C1  849  13.414   7.482  11.726  0.0160 -0.1121 -0.1190
   54loPI    C2  850  13.233   7.157  11.873 -0.0047  0.0274  0.1701
   54loPI    C3  851  13.625   7.149  11.794 -0.0621 -0.1605 -0.1117
   54loPI   PO4  852  13.182   7.635  11.441 -0.1187  0.0643 -0.1567
   54loPI   GL1  853  13.185   7.638  11.030  0.2007  0.2101  0.0123
   54loPI   GL2  854  13.252   7.945  10.926 -0.0086 -0.2334  0.0703
   54loPI   C1A  855  13.528   7.592  10.661  0.2466 -0.3836 -0.0042
   54loPI   C2A  856  13.504   7.599  10.170 -0.1226  0.1540 -0.2958
   54loPI   C3A  857  13.476   7.633   9.737  0.1038  0.2726 -0.1100
   54loPI   C4A  858  13.529   7.611   9.344  0.0062  0.0679 -0.0186
   54loPI   C5A  859  13.880   7.589   9.136 -0.0499  0.0550  0.0250
   54loPI   C6A  860  14.190   7.784   9.094  0.1705 -0.2103  0.0765
   54loPI   C1B  861  13.193   7.929  10.476 -0.1895  0.0326 -0.0536
   54loPI   C2B  862  13.106   8.000  10.005  0.1652  0.0834 -0.1493
   54loPI   C3B  863  13.130   8.021   9.523 -0.4860  0.0693 -0.0728
   54loPI   C4B  864  13.285   7.954   9.140 -0.3619 -0.0832 -0.2157
   55loPI    C1  865   6.017   5.036  11.328  0.0893 -0.0099 -0.0836
   55loPI    C2  866   5.844   5.148  11.670 -0.0470  0.0387 -0.1676
   55loPI    C3  867   6.128   5.376  11.506 -0.0582  0.0703 -0.1432
   55loPI   PO4  868   5.822   4.963  11.186  0.0817  0.0979  0.1349
   55loPI   GL1  869   5.883   4.682  10.770 -0.0730  0.1269  0.1189
   55loPI   GL2  870   6.171   4.892  10.819  0.1198  0.1355 -0.4656
   55loPI   C1A  871   6.095   4.627  10.293  0.0158  0.1331 -0.0892
   55loPI   C2A  872   6.160   4.560   9.900  0.1085 -0.0320 -0.1752
   55loPI   C3A  873   6.042   4.595   9.570 -0.0521  0.2202 -0.2569
   55loPI   C4A  874   6.054   4.734   9.145 -0.0430  0.1232 -0.1432
   55loPI   C5A  875   5.959   5.032   8.762 -0.0089  0.0832 -0.2147
   55loPI   C6A  876   5.717   5.362   8.448 -0.1163 -0.0395 -0.3590
   55loPI   C1B  877   6.212   5.124  10.437 -0.1286  0.1260 -0.1859
   55loPI   C2B  878   6.348   4.985  10.053  0.2821  0.1347  0.1050
   55loPI   C3B  879   6.226   5.022   9.680 -0.1021  0.1025 -0.1906
   55loPI   C4B  880   6.351   5.108   9.184 -0.0058  0.0545  0.2256
   56loPI    C1  881   7.960  10.571  11.593  0.0037 -0.2480 -0.0952
   56loPI    C2  882   8.158  10.253  11.733  0.0736 -0.2196 -0.1288
   56loPI    C3  883   7.960  10.492  11.985  0.0870 -0.2448 -0.0944
   56loPI   PO4  884   7.959  10.507  11.397 -0.0921 -0.1333 -0.0193
   56loPI   GL1  885   8.038  10.441  10.978  0.5292  0.0322 -0.1698
   56loPI   GL2  886   8.257  10.300  10.823  0.2033 -0.2990  0.0859
   56loPI   C1A  887   8.047  10.749  10.641  0.1087  0.0417 -0.1971
   56loPI   C2A  888   8.107  10.877  10.264  0.3925  0.1021 -0.1123
   56loPI   C3A  889   8.006  10.836   9.895  0.0381 -0.0171 -0.1348
   56loPI   C4A  890   8.014  10.807   9.573  0.0337  0.1073  0.2714
   56loPI   C5A  891   7.953  10.765   9.124  0.1601 -0.1645 -0.1816
   56loPI   C6A  892   7.670  10.478   8.898  0.2490 -0.2621 -0.2710
   56loPI   C1B  893   8.399  10.413  10.433  0.1234 -0.0563 -0.2754
   56loPI   C2B  894   8.383  10.469   9.971 -0.2935  0.1331  0.0203
   56loPI   C3B  895   8.323  10.497   9.551  0.0989 -0.1097 -0.2883
   56loPI   C4B  896   8.348  10.491   9.112  0.2282  0.0324 -0.0004
   57loPI    C1  897   2.583   7.398  11.620 -0.0305 -0.3061  0.0639
   57loPI    C2  898   2.859   7.452  11.905 -0.0473  0.2590 -0.0145
   57loPI    C3  899   2.478   7.386  12.006  0.0169  0.0388  0.0911
   57loPI   PO4  900   2.681   7.522  11.464  0.0689 -0.1344  0.0605
   57loPI   GL1  901   2.996   7.461  11.042  0.1100  0.1714  0.1056
   57loPI   GL2  902   3.217   7.283  10.997 -0.1498  0.0181 -0.0298
   57loPI   C1A  903   2.747   7.287  10.714  0.1897  0.0205  0.1138
   57loPI   C2A  904   2.644   7.250  10.336 -0.1138 -0.2696  0.1157
   57loPI   C3A  905   2.678   7.357   9.867 -0.0076 -0.0017 -0.0633
   57loPI   C4A  906   2.618   7.408   9.429  0.0844  0.1035  0.0515
   57loPI   C5A  907   2.577   7.494   8.983 -0.4168 -0.0558  0.0820
   57loPI   C6A  908   2.445   7.392   8.496 -0.2789  0.0373 -0.1120
   57loPI   C1B  909   3.288   7.270  10.555  0.1446 -0.3374  0.0858
   57loPI   C2B  910   3.132   7.386  10.098 -0.2828 -0.0156  0.3416
   57loPI   C3B  911   3.179   7.410   9.605  0.0201  0.3959  0.0407
   57loPI   C4B  912   3.153   7.420   9.184  0.0757  0.1631 -0.0592
   58loPI    C1  913  12.932  11.071  11.712 -0.1009  0.0644  0.2660
   58loPI    C2  914  13.182  11.324  11.895  0.4439 -0.2061 -0.0760
   58loPI    C3  915  13.193  10.934  11.982 -0.0240 -0.1947  0.0647
   58loPI   PO4  916  12.936  11.037  11.473  0.1248  0.0720  0.3690
   58loPI   GL1  917  12.912  11.177  11.125  0.3635 -0.3880 -0.2291
   58loPI   GL2  918  12.730  11.459  11.042  0.0040  0.3803 -0.2094
   58loPI   C1A  919  13.014  11.196  10.655  0.2538  0.2964  0.1695
   58loPI   C2A  920  13.055  11.173  10.196 -0.0861 -0.0023 -0.0521
   58loPI   C3A  921  12.961  11.183   9.769 -0.3582  0.3270 -0.1531
   58loPI   C4A  922  12.885  11.205   9.367  0.0114 -0.1312 -0.0113
   58loPI   C5A  923  12.908  11.209   8.946 -0.0665  0.1454  0.0386
   58loPI   C6A  924  13.112  11.249   8.731 -0.1313 -0.0704  0.1881
   58loPI   C1B  925  12.674  11.559  10.534 -0.0352  0.2565  0.0006
   58loPI   C2B  926  12.687  11.559  10.029  0.0493  0.1615 -0.0114
   58loPI   C3B  927  12.568  11.571   9.554 -0.0797 -0.1247 -0.3184
   58loPI   C4B  928  12.601  11.588   9.134 -0.2260 -0.0625 -0.2052
   59loPI    C1  929   5.821  14.765  11.919  0.0144  0.1730 -0.1754
   59loPI    C2  930   5.799  15.032  12.217 -0.0462  0.0913 -0.1061
   59loPI    C3  931   6.156  14.897  12.095 -0.0197  0.1457 -0.0895
   59loPI   PO4  932   5.738  14.715  11.718  0.3924  0.0102  0.2849
   59loPI   GL1  933   5.728  14.757  11.299  0.0893 -0.1250  0.1324
   59loPI   GL2  934   6.031  14.727  11.214 -0.1824  0.0520 -0.2355
   59loPI   C1A  935   5.687  14.620  10.814 -0.0800  0.0201 -0.1584
   59loPI   C2A  936   5.714  14.614  10.329 -0.0257  0.1567 -0.1414
   59loPI   C3A  937   5.638  14.793   9.964 -0.0428  0.1636 -0.1919
   59loPI   C4A  938   5.617  14.764   9.558  0.2725 -0.2194 -0.0926
   59loPI   C5A  939   5.549  14.653   9.193 -0.0179  0.1253 -0.1567
   59loPI   C6A  940   5.192  14.554   9.147  0.1763 -0.0438 -0.0059
   59loPI   C1B  941   6.152  14.674  10.808 -0.0440  0.1807  0.0125
   59loPI   C2B  942   6.183  14.641  10.373  0.3923  0.1277  0.0633
   59loPI   C3B  943   6.107  14.714   9.971  0.0455 -0.0423  0.0749
   59loPI   C4B  944   6.156  14.805   9.536  0.1985  0.0515 -0.0913
   60loPI    C1  945   4.297  15.687  11.964  0.0180  0.3274  0.0188
   60loPI    C2  946   4.055  15.757  12.275 -0.1367  0.1861 -0.0685
   60loPI    C3  947   4.182  15.385  12.200 -0.0669  0.2260 -0.1505
   60loPI   PO4  948   4.160  15.836  11.748 -0.0907 -0.3255  0.1082
   60loPI   GL1  949   4.089  15.972  11.336 -0.1344  0.0393 -0.3833
   60loPI   GL2  950   3.854  16.055  11.309 -0.0342  0.2745  0.3754
   60loPI   C1A  951   4.129  15.797  10.940  0.1195  0.0661  0.0609
   60loPI   C2A  952   4.114  15.864  10.436 -0.1098  0.1404 -0.2183
   60loPI   C3A  953   4.106  15.805   9.964 -0.1464  0.0431  0.0233
   60loPI   C4A  954   4.183  15.703   9.567  0.0601 -0.1044 -0.2588
   60loPI   C5A  955   3.959  15.948   9.133 -0.2153 -0.0903 -0.1536
   60loPI   C6A  956   3.545  15.764   8.904  0.1863 -0.2347 -0.2334
   60loPI   C1B  957   3.798  16.172  10.935  0.1128  0.0223 -0.1259
   60loPI   C2B  958   3.738  16.252  10.501  0.0050  0.2028  0.1456
   60loPI   C3B  959   3.813  16.206  10.025  0.1058 -0.1451  0.0484
   60loPI   C4B  960   3.766  16.177   9.589 -0.3095 -0.0178 -0.2297
   61loPI    C1  961  14.946   1.632  11.890  0.1866 -0.0912  0.1724
   61loPI    C2  962  14.997   1.285  12.083 -0.1147 -0.2329  0.0037
   61loPI    C3  963  14.952   1.624  12.290 -0.2216 -0.3527  0.1793
   61loPI   PO4  964  15.154   1.692  11.698  0.3711 -0.1249 -0.1503
   61loPI   GL1  965  15.401   1.665  11.372  0.1297  0.1678 -0.1328
   61loPI   GL2  966  15.602   1.962  11.264  0.0930 -0.0537 -0.2172
   61loPI   C1A  967  15.438   1.559  10.898 -0.0127 -0.2595 -0.0045
   61loPI   C2A  968  15.462   1.519  10.434 -0.1455 -0.0562 -0.1544
   61loPI   C3A  969  15.423   1.476   9.994  0.1586 -0.2472 -0.3140
   61loPI   C4A  970  15.437   1.426   9.548  0.1381 -0.0512  0.1352
   61loPI   C5A  971  15.311   1.759   9.169 -0.3682 -0.3349 -0.0326
   61loPI   C6A  972  15.586   1.950   8.798  0.2787 -0.2318 -0.0969
   61loPI   C1B  973  15.801   2.026  10.850 -0.0953 -0.0184  0.1032
   61loPI   C2B  974  15.703   2.045  10.430  0.0450 -0.0469 -0.0508
   61loPI   C3B  975  15.681   1.998  10.097 -0.0553  0.1608  0.0077
   61loPI   C4B  976  15.555   1.915   9.644 -0.1490  0.0595 -0.1953
   62loPI    C1  977  15.257   3.006  12.133 -0.1410  0.1436 -0.2466
   62loPI    C2  978  14.911   2.930  12.320 -0.0840  0.0606 -0.1738
   62loPI    C3  979  14.986   3.297  12.178 -0.0990  0.1435  0.0282
   62loPI   PO4  980  15.310   2.999  11.823  0.1376  0.2671 -0.0193
   62loPI   GL1  981  15.087   2.959  11.393 -0.0524 -0.1282 -0.1208
   62loPI   GL2  982  14.773   3.138  11.274 -0.2902 -0.1689 -0.0268
   62loPI   C1A  983  15.025   2.820  10.965 -0.0794 -0.0134  0.1387
   62loPI   C2A  984  15.067   2.882  10.546  0.1406 -0.1383  0.0512
   62loPI   C3A  985  14.965   2.777  10.141 -0.0645  0.0997  0.0482
   62loPI   C4A  986  14.926   2.761   9.694 -0.0466  0.0667 -0.3465
   62loPI   C5A  987  14.856   2.964   9.274 -0.0676 -0.0267  0.0640
   62loPI   C6A  988  15.105   3.207   9.096 -0.1652  0.0096 -0.4552
   62loPI   C1B  989  14.687   3.299  10.923 -0.0941 -0.0045  0.2759
   62loPI   C2B  990  14.665   3.196  10.547 -0.1169  0.0422  0.3889
   62loPI   C3B  991  14.655   3.222  10.042  0.0122 -0.0582  0.2714
   62loPI   C4B  992  14.564   3.181   9.648  0.3441  0.1388 -0.0452
   63loPI    C1  993   0.165   6.726  11.881 -0.1884  0.2154  0.0125
   63loPI    C2  994  -0.075   6.491  12.099 -0.1911  0.0419 -0.1743
   63loPI    C3  995   0.130   6.787  12.275 -0.2629 -0.0378  0.0467
   63loPI   PO4  996   0.224   6.575  11.654 -0.0380 -0.0326  0.2355
   63loPI   GL1  997   0.190   6.618  11.299 -0.0298 -0.3197 -0.0516
   63loPI   GL2  998   0.000   6.362  11.114 -0.0210 -0.0492  0.0026
   63loPI   C1A  999   0.205   6.911  10.912  0.3175  0.2525 -0.0143
   63loPI   C2A 1000   0.126   7.043  10.430 -0.0421  0.1052 -0.0799
   63loPI   C3A 1001   0.176   6.929  10.081  0.2597 -0.1786  0.4173
   63loPI   C4A 1002   0.143   6.923   9.647  0.1948 -0.2463  0.1351
   63loPI   C5A 1003   0.014   6.915   9.236  0.0336 -0.0579  0.2155
   63loPI   C6A 1004   0.442   6.875   9.069 -0.0972 -0.1954  0.0348
   63loPI   C1B 1005  -0.010   6.448  10.687 -0.2713 -0.2828 -0.2790
   63loPI   C2B 1006  -0.042   6.445  10.246 -0.1630 -0.2819  0.0404
   63loPI   C3B 1007  -0.123   6.352   9.796 -0.0534 -0.1383 -0.2731
   63loPI   C4B 1008   0.011   6.473   9.494  0.0415  0.1648  0.2455
   64loPI    C1 1009   6.535   3.219  11.562 -0.0709 -0.0336  0.0940
   64loPI    C2 1010   6.313   2.980  11.793 -0.1723 -0.2390 -0.2112
   64loPI    C3 1011   6.195   3.356  11.724 -0.2691 -0.2538 -0.1295
   64loPI   PO4 1012   6.549   3.156  11.397  0.1052 -0.1052  0.1933
   64loPI   GL1 1013   6.671   3.464  11.003 -0.1605  0.3054  0.1090
   64loPI   GL2 1014   6.364   3.279  10.843  0.0177 -0.3059 -0.1820
   64loPI   C1A 1015   6.914   3.342  10.668  0.2158 -0.0849 -0.2063
   64loPI   C2A 1016   7.109   3.340  10.244 -0.1671 -0.1289 -0.1639
   64loPI   C3A 1017   7.012   3.440   9.814 -0.1168 -0.0109 -0.0555
   64loPI   C4A 1018   7.041   3.244   9.402  0.0556  0.2960 -0.1234
   64loPI   C5A 1019   7.038   3.416   8.978 -0.1906  0.0408  0.0324
   64loPI   C6A 1020   7.063   3.732   8.689  0.2358  0.0812  0.2026
   64loPI   C1B 1021   6.445   3.323  10.493 -0.0373  0.1726 -0.0932
   64loPI   C2B 1022   6.514   3.337  10.056  0.0938 -0.1069  0.1457
   64loPI   C3B 1023   6.543   3.219   9.655 -0.2026 -0.1386 -0.1032
   64loPI   C4B 1024   6.553   3.254   9.170 -0.0262 -0.0868 -0.1117
   65loPI    C1 1025   2.352  14.574  11.691 -0.0106 -0.0975  0.1338
   65loPI    C2 1026   2.052  14.659  11.942  0.0368 -0.1012  0.1920
   65loPI    C3 1027   2.429  14.656  12.075  0.0868  0.1551  0.0626
   65loPI   PO4 1028   2.416  14.781  11.442 -0.0512  0.0111  0.0274
   65loPI   GL1 1029   2.467  14.815  11.064  0.1820 -0.0311  0.0277
   65loPI   GL2 1030   2.285  15.098  10.990 -0.0359  0.4232 -0.1606
   65loPI   C1A 1031   2.655  14.718  10.720  0.0346  0.1862 -0.0323
   65loPI   C2A 1032   2.643  14.594  10.319 -0.2503  0.0478  0.0917
   65loPI   C3A 1033   2.647  14.615   9.894  0.0856  0.0178  0.1069
   65loPI   C4A 1034   2.780  14.622   9.423 -0.4018 -0.2876  0.0542
   65loPI   C5A 1035   2.946  14.568   9.005  0.2428  0.1923  0.2196
   65loPI   C6A 1036   3.420  14.577   8.871  0.1857  0.1668  0.1146
   65loPI   C1B 1037   2.270  14.963  10.497 -0.2381  0.1854 -0.0130
   65loPI   C2B 1038   2.453  15.070  10.044  0.0788  0.0866  0.3825
   65loPI   C3B 1039   2.429  15.042   9.661 -0.1483 -0.0228  0.1124
   65loPI   C4B 1040   2.412  15.057   9.196 -0.0671 -0.1999 -0.2120
   66loPI    C1 1041   1.418   0.204  11.795  0.0545  0.2614 -0.3764
   66loPI    C2 1042   1.044   0.062  11.817  0.1985 -0.0450  0.4294
   66loPI    C3 1043   1.123   0.437  11.932  0.1480  0.0075  0.2946
   66loPI   PO4 1044   1.471   0.108  11.543 -0.1830 -0.0848 -0.2348
   66loPI   GL1 1045   1.780  -0.080  11.306 -0.1009 -0.1135  0.1288
   66loPI   GL2 1046   1.872   0.178  11.143 -0.0244 -0.0298  0.1540
   66loPI   C1A 1047   1.754  -0.267  10.924  0.0622 -0.1289  0.1452
   66loPI   C2A 1048   1.822  -0.181  10.557  0.0721 -0.1361 -0.1388
   66loPI   C3A 1049   1.736  -0.226  10.103 -0.0292 -0.3776  0.4231
   66loPI   C4A 1050   1.790  -0.213   9.723 -0.1150 -0.0718 -0.1100
   66loPI   C5A 1051   1.833  -0.075   9.312  0.0217  0.0243  0.1809
   66loPI   C6A 1052   1.678  -0.066   8.922  0.1373 -0.2532  0.3296
   66loPI   C1B 1053   1.934   0.318  10.749 -0.3475  0.0202  0.1151
   66loPI   C2B 1054   1.873   0.256  10.293  0.0961  0.4429  0.1487
   66loPI   C3B 1055   1.957   0.260   9.817  0.0080  0.0239  0.2702
   66loPI   C4B 1056   2.079   0.427   9.459  0.3302 -0.2521  0.0261
   67loPI    C1 1057   4.276  12.444  11.799  0.1807 -0.1131 -0.0312
   67loPI    C2 1058   3.991  12.569  12.050  0.1760 -0.0520 -0.0667
   67loPI    C3 1059   4.224  12.260  12.151 -0.0087 -0.2065 -0.1066
   67loPI   PO4 1060   4.156  12.389  11.543 -0.0978  0.1780  0.2668
   67loPI   GL1 1061   3.822  12.261  11.194  0.0442  0.0317  0.0601
   67loPI   GL2 1062   3.637  12.029  11.046 -0.2083  0.1414  0.4591
   67loPI   C1A 1063   3.768  12.557  10.866  0.0026 -0.0337 -0.2494
   67loPI   C2A 1064   3.844  12.477  10.404 -0.0048 -0.1268 -0.1830
   67loPI   C3A 1065   3.815  12.605   9.941 -0.0502  0.3435  0.1727
   67loPI   C4A 1066   3.744  12.587   9.569  0.2752  0.0802 -0.1085
   67loPI   C5A 1067   3.857  12.557   9.114  0.3670 -0.1245  0.1683
   67loPI   C6A 1068   4.203  12.828   8.795 -0.1998  0.1315  0.0061
   67loPI   C1B 1069   3.626  12.031  10.685  0.2179 -0.1046 -0.1724
   67loPI   C2B 1070   3.598  12.082  10.247 -0.2010  0.0009  0.0023
   67loPI   C3B 1071   3.591  12.135   9.820 -0.1277  0.0421  0.0422
   67loPI   C4B 1072   3.596  12.059   9.485 -0.1563  0.0671 -0.1661
   68loPI    C1 1073  12.662   4.728  11.785  0.0386 -0.0779 -0.1220
   68loPI    C2 1074  12.956   4.502  11.935  0.0024  0.0695  0.1773
   68loPI    C3 1075  13.041   4.857  11.771  0.0497 -0.1198 -0.2191
   68loPI   PO4 1076  12.561   4.553  11.566 -0.0983  0.0308 -0.1221
   68loPI   GL1 1077  12.437   4.575  11.169 -0.0676 -0.0736 -0.3629
   68loPI   GL2 1078  12.601   4.355  11.089  0.1363 -0.1587  0.2901
   68loPI   C1A 1079  12.335   4.634  10.771  0.1717  0.0129 -0.1866
   68loPI   C2A 1080  12.410   4.634  10.384 -0.0607 -0.1475 -0.1200
   68loPI   C3A 1081  12.348   4.674   9.979 -0.2140  0.1364 -0.0272
   68loPI   C4A 1082  12.401   4.645   9.527 -0.1262 -0.0596 -0.0557
   68loPI   C5A 1083  12.439   4.497   9.110  0.0477  0.1833  0.0721
   68loPI   C6A 1084  12.452   4.354   8.779  0.3182 -0.0601 -0.1409
   68loPI   C1B 1085  12.677   4.283  10.608 -0.1570  0.0426 -0.2077
   68loPI   C2B 1086  12.710   4.254  10.163 -0.0447 -0.0327  0.0999
   68loPI   C3B 1087  12.656   4.254   9.738 -0.2670 -0.0216 -0.2327
   68loPI   C4B 1088  12.670   4.164   9.400  0.0391 -0.0382 -0.0698
   69loPI    C1 1089   3.006   0.311  11.629  0.1182 -0.1835  0.0931
   69loPI    C2 1090   3.100   0.570  11.918 -0.1640 -0.1681  0.1734
   69loPI    C3 1091   3.220   0.190  11.944  0.2289 -0.0562  0.0679
   69loPI   PO4 1092   3.019   0.448  11.387 -0.0452 -0.1499 -0.1326
   69loPI   GL1 1093   3.048   0.373  10.985 -0.2910 -0.3651  0.0909
   69loPI   GL2 1094   3.030   0.356  10.588  0.2790  0.3685  0.1423
   69loPI   C1A 1095   3.283  -0.009  10.826  0.1938 -0.2768 -0.0656
   69loPI   C2A 1096   3.411   0.011  10.474 -0.0427 -0.1448 -0.2437
   69loPI   C3A 1097   3.287   0.013  10.030 -0.1041  0.0619  0.1419
   69loPI   C4A 1098   3.298   0.075   9.634 -0.0695 -0.1369 -0.1240
   69loPI   C5A 1099   3.122   0.132   9.271 -0.2016  0.0355  0.1324
   69loPI   C6A 1100   2.797   0.159   8.944  0.1471  0.2511 -0.1793
   69loPI   C1B 1101   2.946   0.399  10.126 -0.0370  0.2403  0.0471
   69loPI   C2B 1102   3.026   0.481   9.712  0.0159 -0.0588  0.2660
   69loPI   C3B 1103   3.025   0.622   9.237  0.0754 -0.1827 -0.1660
   69loPI   C4B 1104   2.923   0.792   8.811 -0.1939 -0.1725 -0.1608
   70loPI    C1 1105   4.362   0.466  11.558 -0.1949 -0.0298  0.1704
   70loPI    C2 1106   4.644   0.363  11.824 -0.0385 -0.1376 -0.0342
   70loPI    C3 1107   4.262   0.262  11.888 -0.0285 -0.0178  0.2295
   70loPI   PO4 1108   4.547   0.581  11.383  0.0563  0.0665 -0.2767
   70loPI   GL1 1109   4.544   0.845  10.974 -0.3401 -0.1503  0.1258
   70loPI   GL2 1110   4.718   0.509  10.946  0.1080  0.1488 -0.0509
   70loPI   C1A 1111   4.527   0.791  10.550 -0.2447  0.0454  0.1116
   70loPI   C2A 1112   4.497   0.806  10.159 -0.0189 -0.0756 -0.0791
   70loPI   C3A 1113   4.494   0.761   9.672 -0.1466 -0.0409  0.0656
   70loPI   C4A 1114   4.588   0.826   9.338  0.3481 -0.3184  0.2653
   70loPI   C5A 1115   4.453   0.865   8.934  0.2679 -0.1797 -0.3560
   70loPI   C6A 1116   4.405   0.749   8.603  0.1125 -0.0392 -0.0207
   70loPI   C1B 1117   4.755   0.295  10.557  0.1333  0.3490 -0.0550
   70loPI   C2B 1118   4.794   0.299  10.121  0.0424  0.2352  0.2780
   70loPI   C3B 1119   4.828   0.357   9.701  0.1592 -0.0121  0.1082
   70loPI   C4B 1120   4.922   0.289   9.326  0.0252  0.1220 -0.0329
   71loPI    C1 1121   3.912   4.743  11.537  0.1142  0.1959 -0.0013
   71loPI    C2 1122   4.221   4.943  11.693  0.0245  0.2505  0.1079
   71loPI    C3 1123   3.851   5.009  11.829  0.0060 -0.0690  0.2221
   71loPI   PO4 1124   3.894   4.743  11.276 -0.0431 -0.0611 -0.2628
   71loPI   GL1 1125   3.826   4.896  10.904  0.2094  0.0454  0.2190
   71loPI   GL2 1126   3.812   5.188  10.890 -0.1261  0.3113 -0.1355
   71loPI   C1A 1127   3.704   4.738  10.504  0.0321 -0.0384  0.2625
   71loPI   C2A 1128   3.540   4.677  10.156 -0.0074 -0.2671 -0.1754
   71loPI   C3A 1129   3.537   4.695   9.664 -0.0933 -0.1170 -0.2840
   71loPI   C4A 1130   3.602   4.680   9.268 -0.4866  0.1740  0.1711
   71loPI   C5A 1131   3.698   4.708   8.852  0.2013 -0.1529 -0.3444
   71loPI   C6A 1132   3.353   4.562   8.518 -0.0059  0.0483 -0.2253
   71loPI   C1B 1133   3.855   5.203  10.505  0.1598 -0.1777 -0.0771
   71loPI   C2B 1134   3.785   5.141   9.978 -0.1467 -0.0845 -0.0471
   71loPI   C3B 1135   3.725   5.190   9.574 -0.0500  0.2993  0.2373
   71loPI   C4B 1136   3.801   5.218   9.162  0.0219 -0.1306 -0.0725
   72loPI    C1 1137   7.479   1.891  11.633 -0.0125 -0.0516 -0.0799
   72loPI    C2 1138   7.108   1.831  11.772  0.0389 -0.1475  0.0174
   72loPI    C3 1139   7.418   1.842  12.026  0.0673  0.2446 -0.0282
   72loPI   PO4 1140   7.412   1.826  11.370 -0.0782 -0.0823 -0.1772
   72loPI   GL1 1141   7.503   1.532  11.034 -0.3453  0.0653 -0.1043
   72loPI   GL2 1142   7.233   1.701  10.934  0.2691 -0.1911 -0.1540
   72loPI   C1A 1143   7.795   1.711  10.649 -0.0610 -0.1510 -0.0546
   72loPI   C2A 1144   7.805   1.670  10.280  0.0912  0.0996  0.2904
   72loPI   C3A 1145   7.863   1.600   9.838  0.0344  0.0406 -0.2593
   72loPI   C4A 1146   7.823   1.670   9.336  0.3480 -0.2258 -0.2315
   72loPI   C5A 1147   7.842   1.496   8.978 -0.0495  0.0253  0.1560
   72loPI   C6A 1148   7.820   1.340   8.546  0.1154  0.0451  0.1138
   72loPI   C1B 1149   7.330   1.615  10.510 -0.3632 -0.1918  0.0421
   72loPI   C2B 1150   7.333   1.519   9.992  0.1897  0.2447  0.0566
   72loPI   C3B 1151   7.380   1.607   9.612 -0.0250 -0.0195  0.0287
   72loPI   C4B 1152   7.368   1.502   9.201  0.0826  0.0838  0.1516
   73loPI    C1 1153   4.953   2.534  11.623 -0.0736 -0.2010  0.1914
   73loPI    C2 1154   4.755   2.851  11.481  0.1950 -0.1766 -0.1410
   73loPI    C3 1155   4.688   2.725  11.854  0.0623  0.2508 -0.0140
   73loPI   PO4 1156   4.936   2.373  11.349 -0.0846 -0.0434 -0.1397
   73loPI   GL1 1157   4.591   2.424  10.917 -0.2484 -0.0826  0.1626
   73loPI   GL2 1158   4.683   2.209  10.893  0.0918 -0.2397 -0.0382
   73loPI   C1A 1159   4.714   2.661  10.527  0.0781  0.0937 -0.2931
   73loPI   C2A 1160   4.765   2.560  10.107  0.1978 -0.0581 -0.0327
   73loPI   C3A 1161   4.833   2.546   9.689 -0.0003 -0.0054 -0.1238
   73loPI   C4A 1162   4.739   2.569   9.269  0.0664 -0.2981 -0.0652
   73loPI   C5A 1163   4.918   2.767   8.960 -0.2156  0.4149  0.2566
   73loPI   C6A 1164   4.765   2.946   8.533 -0.1879 -0.1803 -0.0005
   73loPI   C1B 1165   4.672   2.106  10.533 -0.2553  0.1025 -0.2081
   73loPI   C2B 1166   4.585   2.139  10.054  0.1936 -0.1262  0.0820
   73loPI   C3B 1167   4.594   2.096   9.619  0.4020 -0.1541  0.1123
   73loPI   C4B 1168   4.613   2.123   9.143  0.0671  0.0403  0.0298
   74loPI    C1 1169   0.041  13.254  11.991 -0.1337 -0.2685 -0.2402
   74loPI    C2 1170  -0.243  13.031  12.163 -0.2362 -0.0133 -0.0732
   74loPI    C3 1171  -0.153  13.391  12.313  0.2160 -0.1135 -0.0904
   74loPI   PO4 1172  -0.078  13.289  11.706  0.1867 -0.0482  0.0758
   74loPI   GL1 1173   0.149  13.182  11.423 -0.2508  0.0517  0.1118
   74loPI   GL2 1174   0.057  12.895  11.413 -0.1356 -0.3613  0.1092
   74loPI   C1A 1175   0.274  13.378  11.097 -0.0212  0.1289  0.1685
   74loPI   C2A 1176   0.237  13.256  10.662 -0.0185 -0.2498  0.1793
   74loPI   C3A 1177   0.264  13.303  10.173  0.2772 -0.0303 -0.1039
   74loPI   C4A 1178   0.243  13.268   9.767  0.1885  0.6057  0.1251
   74loPI   C5A 1179   0.081  13.300   9.331  0.2833 -0.0498  0.0396
   74loPI   C6A 1180  -0.415  13.187   9.280  0.0006 -0.1104  0.0531
   74loPI   C1B 1181   0.049  12.840  10.952 -0.2387  0.1406  0.1177
   74loPI   C2B 1182   0.086  12.792  10.506 -0.0257 -0.1654  0.0624
   74loPI   C3B 1183   0.079  12.844  10.018 -0.0453 -0.0710 -0.0445
   74loPI   C4B 1184   0.035  12.859   9.499  0.0859 -0.3484 -0.0608
   75loPI    C1 1185   2.801  10.895  11.861 -0.0423 -0.0063  0.1040
   75loPI    C2 1186   3.055  10.659  12.061 -0.0750 -0.1764 -0.0530
   75loPI    C3 1187   2.784  10.875  12.261 -0.0083 -0.2287  0.0954
   75loPI   PO4 1188   2.876  10.783  11.610  0.3679  0.0091  0.1344
   75loPI   GL1 1189   2.630  10.445  11.415 -0.1858  0.0535 -0.2731
   75loPI   GL2 1190   2.884  10.206  11.339  0.0536  0.0409  0.0441
   75loPI   C1A 1191   2.606  10.589  10.989  0.0613  0.2349  0.1157
   75loPI   C2A 1192   2.585  10.509  10.549 -0.0200  0.0398 -0.2635
   75loPI   C3A 1193   2.516  10.573  10.138  0.1877  0.1588  0.3535
   75loPI   C4A 1194   2.525  10.566   9.701 -0.2530  0.0908 -0.2668
   75loPI   C5A 1195   2.632  10.461   9.245  0.2665 -0.0067 -0.0419
   75loPI   C6A 1196   2.547  10.283   8.753  0.0786  0.0280 -0.0424
   75loPI   C1B 1197   2.855  10.103  10.908 -0.0277 -0.1370  0.1888
   75loPI   C2B 1198   2.854  10.064  10.460 -0.0382 -0.1959  0.2283
   75loPI   C3B 1199   2.764  10.143  10.047 -0.0199 -0.0017 -0.0714
   75loPI   C4B 1200   2.868  10.077   9.628 -0.0215  0.2476 -0.0818
   76loPI    C1 1201   0.701  16.643  11.799  0.1293 -0.0102 -0.1054
   76loPI    C2 1202   0.686  16.245  11.839 -0.2017  0.0220  0.1299
   76loPI    C3 1203   0.939  16.460  12.063  0.2142 -0.0804 -0.2297
   76loPI   PO4 1204   0.716  16.729  11.557 -0.3089 -0.0193  0.2307
   76loPI   GL1 1205   0.807  17.173  11.404  0.2793  0.2966  0.1337
   76loPI   GL2 1206   0.545  17.404  11.331  0.1086 -0.0728 -0.1738
   76loPI   C1A 1207   0.774  17.063  10.945 -0.0641 -0.0238 -0.1869
   76loPI   C2A 1208   0.775  17.038  10.562  0.2028 -0.2680  0.0582
   76loPI   C3A 1209   0.807  17.032  10.128  0.1379  0.3319 -0.1182
   76loPI   C4A 1210   0.792  17.004   9.679 -0.1295  0.0760  0.1761
   76loPI   C5A 1211   0.748  17.160   9.242  0.1477  0.1829 -0.0934
   76loPI   C6A 1212   0.757  16.979   8.816 -0.2422  0.0193  0.0057
   76loPI   C1B 1213   0.387  17.423  10.866  0.1032 -0.4703  0.2553
   76loPI   C2B 1214   0.469  17.420  10.426 -0.1036  0.1548  0.4188
   76loPI   C3B 1215   0.459  17.427   9.939 -0.0609 -0.0390 -0.0951
   76loPI   C4B 1216   0.411  17.362   9.531 -0.0399 -0.1671  0.0041
   77loPI    C1 1217   6.205   9.357  11.873  0.1269  0.1388  0.1010
   77loPI    C2 1218   5.808   9.303  11.873  0.1164  0.2144  0.1185
   77loPI    C3 1219   5.971   9.590  12.100  0.1900  0.1196  0.1865
   77loPI   PO4 1220   6.350   9.307  11.711  0.2889  0.2057 -0.2227
   77loPI   GL1 1221   6.529   9.324  11.305  0.3674  0.3303 -0.2706
   77loPI   GL2 1222   6.430   9.609  11.227  0.0751  0.0622  0.0415
   77loPI   C1A 1223   6.746   9.259  10.996  0.0268 -0.1978  0.1075
   77loPI   C2A 1224   6.848   9.234  10.504 -0.0422 -0.2235  0.1952
   77loPI   C3A 1225   6.846   9.345  10.091 -0.5125 -0.1761  0.2316
   77loPI   C4A 1226   6.875   9.357   9.672  0.1000  0.2893 -0.0277
   77loPI   C5A 1227   6.926   9.174   9.218  0.0668 -0.1203 -0.2927
   77loPI   C6A 1228   7.320   8.913   9.010  0.0075  0.3945 -0.0167
   77loPI   C1B 1229   6.103   9.519  10.918 -0.4512 -0.0338  0.1001
   77loPI   C2B 1230   6.071   9.581  10.495 -0.1151 -0.1583  0.0198
   77loPI   C3B 1231   6.032   9.774  10.116  0.0990  0.0911 -0.0532
   77loPI   C4B 1232   6.206   9.708   9.699 -0.1497 -0.1268 -0.3056
   78loPI    C1 1233  13.010   9.625  11.766 -0.1816 -0.1394  0.0456
   78loPI    C2 1234  13.056   9.315  12.015 -0.2371  0.0093  0.2440
   78loPI    C3 1235  12.915   9.663  12.153  0.0254  0.1894  0.0686
   78loPI   PO4 1236  12.897   9.577  11.598  0.0070 -0.0391 -0.0471
   78loPI   GL1 1237  12.871   9.601  11.216 -0.3239  0.1857 -0.4504
   78loPI   GL2 1238  13.096   9.438  11.119 -0.2095  0.0783 -0.1711
   78loPI   C1A 1239  12.670   9.387  10.824  0.2672  0.0278 -0.0732
   78loPI   C2A 1240  12.693   9.298  10.407 -0.3685  0.1004  0.2250
   78loPI   C3A 1241  12.626   9.296   9.965  0.0210  0.2037 -0.0364
   78loPI   C4A 1242  12.647   9.212   9.555 -0.0041  0.1599  0.1377
   78loPI   C5A 1243  12.642   9.402   9.120  0.0421 -0.1963 -0.1101
   78loPI   C6A 1244  12.692   9.306   8.679  0.2363 -0.2153  0.0445
   78loPI   C1B 1245  13.140   9.396  10.664 -0.0756 -0.1712  0.1897
   78loPI   C2B 1246  13.185   9.298  10.216 -0.0021  0.1517  0.0266
   78loPI   C3B 1247  13.201   9.346   9.665 -0.1495 -0.0618 -0.1357
   78loPI   C4B 1248  13.116   9.374   9.355  0.1968 -0.1639  0.1667
   79loPI    C1 1249   3.729  14.249  11.737 -0.0457  0.0347  0.0296
   79loPI    C2 1250   3.831  13.943  11.973  0.1376 -0.1239 -0.2492
   79loPI    C3 1251   3.490  14.141  12.039  0.1789 -0.1729  0.1370
   79loPI   PO4 1252   3.831  14.111  11.491 -0.1071  0.0717 -0.0855
   79loPI   GL1 1253   3.623  14.241  11.106 -0.1614  0.0816  0.1610
   79loPI   GL2 1254   3.874  14.496  11.097 -0.0466  0.0723  0.0455
   79loPI   C1A 1255   3.538  14.366  10.622  0.0596 -0.0498  0.3892
   79loPI   C2A 1256   3.577  14.342  10.158 -0.2385  0.0978 -0.0328
   79loPI   C3A 1257   3.520  14.353   9.742  0.0788  0.2096 -0.1867
   79loPI   C4A 1258   3.581  14.334   9.283  0.0141  0.0585  0.1571
   79loPI   C5A 1259   3.461  13.942   9.104  0.1349  0.1693 -0.1299
   79loPI   C6A 1260   3.418  13.548   8.899  0.3781  0.0726 -0.0170
   79loPI   C1B 1261   4.060  14.516  10.748  0.1230  0.0892 -0.0695
   79loPI   C2B 1262   4.053  14.510  10.269  0.0266 -0.1996 -0.4309
   79loPI   C3B 1263   4.115  14.409   9.794  0.1346 -0.0407  0.1263
   79loPI   C4B 1264   4.114  14.367   9.283 -0.0642 -0.2664  0.3171
   80loPI    C1 1265  17.082   7.421  11.845  0.0186 -0.0274 -0.1567
   80loPI    C2 1266  17.381   7.235  12.035 -0.1962 -0.2999 -0.0803
   80loPI    C3 1267  17.021   7.265  12.208 -0.2307 -0.0238 -0.1952
   80loPI   PO4 1268  17.280   7.576  11.602 -0.3593  0.1338 -0.0922
   80loPI   GL1 1269  17.331   7.402  11.200 -0.0931 -0.2345 -0.1410
   80loPI   GL2 1270  17.663   7.317  11.121  0.1969  0.4146  0.4817
   80loPI   C1A 1271  17.315   7.313  10.778 -0.1796  0.2077 -0.0838
   80loPI   C2A 1272  17.176   7.411  10.365 -0.1438 -0.0535 -0.0353
   80loPI   C3A 1273  17.218   7.311   9.943 -0.2789  0.0231  0.3215
   80loPI   C4A 1274  17.267   7.315   9.495  0.0241  0.0851 -0.1446
   80loPI   C5A 1275  17.216   7.319   9.082  0.0484 -0.0188 -0.3074
   80loPI   C6A 1276  17.585   7.257   8.781  0.1894  0.0324 -0.0535
   80loPI   C1B 1277  17.804   7.461  10.682 -0.2830  0.0803  0.4690
   80loPI   C2B 1278  17.742   7.484  10.215 -0.1886  0.1643  0.0876
   80loPI   C3B 1279  17.761   7.400   9.747  0.0475 -0.3542  0.1989
   80loPI   C4B 1280  17.706   7.376   9.316 -0.2614 -0.2861 -0.1394
   81loPI    C1 1281   9.571  17.343  11.718  0.0697  0.0378 -0.0774
   81loPI    C2 1282   9.740  17.665  11.884  0.0016  0.0406 -0.0127
   81loPI    C3 1283   9.961  17.341  11.806  0.0431  0.0552  0.0431
   81loPI   PO4 1284   9.449  17.416  11.508  0.2198 -0.0306  0.1296
   81loPI   GL1 1285   9.557  17.310  11.173 -0.0044 -0.1386  0.0581
   81loPI   GL2 1286   9.621  17.618  10.985 -0.2131 -0.1958  0.1000
   81loPI   C1A 1287   9.532  17.126  10.752  0.0451 -0.2135 -0.2413
   81loPI   C2A 1288   9.480  17.158  10.344  0.2951  0.1160 -0.0040
   81loPI   C3A 1289   9.591  16.994   9.914  0.3354  0.2031  0.0951
   81loPI   C4A 1290   9.611  16.951   9.502 -0.0251  0.0895 -0.1609
   81loPI   C5A 1291   9.511  16.967   9.062  0.1345 -0.0083 -0.0272
   81loPI   C6A 1292   9.508  17.150   8.743  0.1211 -0.0080  0.2539
   81loPI   C1B 1293   9.665  17.582  10.506  0.0305  0.1632 -0.1783
   81loPI   C2B 1294   9.701  17.493  10.125 -0.3007 -0.0986 -0.2862
   81loPI   C3B 1295   9.729  17.472   9.649 -0.2977  0.4914  0.1177
   81loPI   C4B 1296   9.693  17.413   9.249  0.3863  0.1799 -0.2547
   82loPI    C1 1297  12.619   5.265  11.649  0.1694 -0.2437 -0.0303
   82loPI    C2 1298  12.868   5.280  11.961 -0.1018  0.0639  0.1786
   82loPI    C3 1299  12.474   5.250  12.021 -0.1329 -0.2346 -0.1448
   82loPI   PO4 1300  12.731   5.139  11.460  0.1523 -0.1698 -0.2351
   82loPI   GL1 1301  12.816   4.893  11.143 -0.0575  0.0322 -0.0165
   82loPI   GL2 1302  12.913   5.232  11.037  0.1872 -0.1932 -0.3208
   82loPI   C1A 1303  12.829   4.774  10.820 -0.0112 -0.0072 -0.2809
   82loPI   C2A 1304  12.887   4.762  10.355  0.3137  0.1609 -0.3409
   82loPI   C3A 1305  12.867   4.708   9.942  0.2102 -0.0438  0.2082
   82loPI   C4A 1306  12.887   4.741   9.431 -0.1920 -0.0900 -0.3147
   82loPI   C5A 1307  12.808   4.779   8.965 -0.1579  0.2635  0.0275
   82loPI   C6A 1308  12.725   4.607   8.485 -0.4379 -0.2422 -0.3556
   82loPI   C1B 1309  13.054   5.193  10.598  0.2292 -0.0762 -0.1684
   82loPI   C2B 1310  13.077   5.185  10.155  0.0982 -0.0267 -0.0840
   82loPI   C3B 1311  13.058   5.200   9.702  0.4024 -0.4147 -0.3572
   82loPI   C4B 1312  13.062   5.200   9.243  0.2457 -0.2224  0.0580
   83loPI    C1 1313   9.682   2.999  11.356  0.1482  0.1733 -0.0918
   83loPI    C2 1314   9.315   3.044  11.510  0.0528 -0.3218 -0.1573
   83loPI    C3 1315   9.635   3.044  11.751  0.0025 -0.0156 -0.0863
   83loPI   PO4 1316   9.725   3.132  11.196 -0.3008  0.0234 -0.1508
   83loPI   GL1 1317   9.875   2.888  10.839  0.1549  0.2239 -0.0618
   83loPI   GL2 1318  10.117   2.888  10.767  0.1391  0.1641 -0.0197
   83loPI   C1A 1319   9.641   2.752  10.498  0.3637 -0.2875  0.0054
   83loPI   C2A 1320   9.665   2.761  10.033 -0.2981  0.0660  0.0668
   83loPI   C3A 1321   9.610   2.774   9.660 -0.0925 -0.0124  0.0422
   83loPI   C4A 1322   9.742   2.848   9.270  0.1104 -0.1827  0.0300
   83loPI   C5A 1323   9.901   2.521   8.937 -0.1119 -0.0023  0.1750
   83loPI   C6A 1324   9.842   2.497   8.633  0.0293 -0.2033 -0.1454
   83loPI   C1B 1325  10.192   2.802  10.299 -0.0576  0.0881  0.1936
   83loPI   C2B 1326  10.232   2.830   9.924  0.2052  0.2019  0.1680
   83loPI   C3B 1327  10.140   2.822   9.565  0.0363 -0.2504  0.0903
   83loPI   C4B 1328  10.239   2.891   9.171  0.2053  0.1365 -0.1654
   84loPI    C1 1329  13.572   4.274  11.955 -0.1592 -0.0993 -0.1516
   84loPI    C2 1330  13.652   3.900  11.839 -0.2669 -0.1919  0.0665
   84loPI    C3 1331  13.465   3.965  12.186 -0.0457  0.0751  0.1386
   84loPI   PO4 1332  13.453   4.407  11.665  0.1678  0.0083  0.1631
   84loPI   GL1 1333  13.446   4.425  11.231  0.1761  0.0409  0.1646
   84loPI   GL2 1334  13.680   4.533  11.189 -0.1352 -0.2047 -0.0537
   84loPI   C1A 1335  13.364   4.701  10.836 -0.0679  0.0222 -0.0895
   84loPI   C2A 1336  13.392   4.871  10.397  0.0014  0.0891  0.5294
   84loPI   C3A 1337  13.356   4.837  10.003  0.0349  0.1538 -0.2020
   84loPI   C4A 1338  13.369   4.865   9.534 -0.0095 -0.0301 -0.0057
   84loPI   C5A 1339  13.367   4.835   9.097  0.1344 -0.1501 -0.0795
   84loPI   C6A 1340  13.280   5.059   8.789  0.1428 -0.0541  0.2146
   84loPI   C1B 1341  13.803   4.374  10.816 -0.0634 -0.1218 -0.0725
   84loPI   C2B 1342  13.739   4.425  10.393 -0.5268  0.1338 -0.0597
   84loPI   C3B 1343  13.750   4.413   9.972  0.0209 -0.1426  0.1563
   84loPI   C4B 1344  13.718   4.364   9.568  0.1291  0.0482 -0.0746
   85loPI    C1 1345  13.989   5.399  11.694  0.0996 -0.0034  0.2763
   85loPI    C2 1346  14.135   5.047  11.816 -0.1735 -0.0818  0.3827
   85loPI    C3 1347  13.908   5.266  12.062 -0.3642 -0.0346  0.1695
   85loPI   PO4 1348  13.789   5.337  11.495  0.1264 -0.1063 -0.0077
   85loPI   GL1 1349  13.486   5.335  11.076  0.2541  0.2689  0.2531
   85loPI   GL2 1350  13.686   5.056  11.087 -0.2280  0.1378 -0.2550
   85loPI   C1A 1351  13.507   5.308  10.658 -0.0188 -0.1550 -0.2383
   85loPI   C2A 1352  13.556   5.317  10.194  0.1063  0.2334 -0.2795
   85loPI   C3A 1353  13.553   5.251   9.784  0.0795 -0.3000 -0.1812
   85loPI   C4A 1354  13.563   5.297   9.337 -0.0373  0.0312 -0.3481
   85loPI   C5A 1355  13.850   5.150   9.033  0.1148  0.1903 -0.1582
   85loPI   C6A 1356  14.173   4.851   8.956 -0.4067  0.1873 -0.1229
   85loPI   C1B 1357  13.827   4.876  10.663  0.0662  0.3778  0.2905
   85loPI   C2B 1358  13.884   4.922  10.215 -0.0445 -0.2541  0.0974
   85loPI   C3B 1359  13.916   4.881   9.757 -0.0001  0.0190 -0.2847
   85loPI   C4B 1360  13.900   4.804   9.388  0.0810  0.0301  0.1687
   86loPI    C1 1361  13.309   1.943  11.930  0.2937  0.0364  0.2122
   86loPI    C2 1362  13.292   2.339  11.988  0.0022  0.0187  0.2630
   86loPI    C3 1363  13.280   2.091  12.301  0.0407 -0.0341  0.2228
   86loPI   PO4 1364  13.175   1.948  11.730  0.2177  0.0221 -0.0533
   86loPI   GL1 1365  13.228   1.866  11.333  0.1050 -0.0064 -0.1403
   86loPI   GL2 1366  12.947   2.024  11.222  0.0700 -0.4085  0.0916
   86loPI   C1A 1367  13.147   1.708  10.933 -0.0622  0.2936  0.1490
   86loPI   C2A 1368  13.042   1.608  10.475  0.1639 -0.2121 -0.1850
   86loPI   C3A 1369  13.139   1.584  10.051  0.1939 -0.2900  0.3300
   86loPI   C4A 1370  13.080   1.462   9.509 -0.2696 -0.1555  0.2645
   86loPI   C5A 1371  13.349   1.198   9.215  0.0337 -0.2068 -0.1909
   86loPI   C6A 1372  13.445   0.959   8.814  0.1879  0.0063 -0.0926
   86loPI   C1B 1373  12.747   2.028  10.893  0.1112  0.0322  0.1152
   86loPI   C2B 1374  12.773   1.977  10.482 -0.2801 -0.1872  0.2609
   86loPI   C3B 1375  12.793   1.936  10.100  0.1085 -0.0612 -0.2834
   86loPI   C4B 1376  12.765   1.955   9.711 -0.1359 -0.0240 -0.0876
   87loPI    C1 1377  10.820  13.710  11.581 -0.2195 -0.2751 -0.0123
   87loPI    C2 1378  10.920  13.478  11.891  0.0685 -0.0367  0.0785
   87loPI    C3 1379  10.711  13.813  11.952  0.0639 -0.0261  0.0052
   87loPI   PO4 1380  11.054  13.739  11.408  0.2304 -0.2137 -0.0238
   87loPI   GL1 1381  10.993  13.571  11.082  0.0170 -0.2395 -0.0714
   87loPI   GL2 1382  10.812  13.298  10.928  0.0233  0.0996 -0.0373
   87loPI   C1A 1383  10.948  13.673  10.614  0.1527  0.0374  0.0253
   87loPI   C2A 1384  11.096  13.553  10.135  0.0164 -0.0242 -0.0589
   87loPI   C3A 1385  10.993  13.574   9.702 -0.0239 -0.0236  0.1056
   87loPI   C4A 1386  10.957  13.558   9.268  0.2751 -0.0691 -0.1917
   87loPI   C5A 1387  11.008  13.845   8.860  0.3956 -0.0194 -0.0193
   87loPI   C6A 1388  10.790  14.163   8.667 -0.0840  0.1082 -0.2903
   87loPI   C1B 1389  10.778  13.130  10.517  0.0202 -0.1522  0.3286
   87loPI   C2B 1390  10.836  13.056  10.189 -0.0474  0.1765 -0.0836
   87loPI   C3B 1391  10.814  13.079   9.730  0.1639  0.0584  0.1567
   87loPI   C4B 1392  10.805  13.090   9.315 -0.0087  0.1186  0.0992
   88loPI    C1 1393  12.420  15.083  11.673 -0.0887  0.1933  0.2059
   88loPI    C2 1394  12.137  15.229  11.916 -0.0936 -0.1124  0.3887
   88loPI    C3 1395  12.440  15.015  12.066  0.0357 -0.0996  0.1515
   88loPI   PO4 1396  12.382  15.243  11.447 -0.1389  0.1748  0.0373
   88loPI   GL1 1397  12.635  15.319  11.057 -0.0816  0.2760  0.0182
   88loPI   GL2 1398  12.640  15.615  11.049 -0.1298  0.2074 -0.0981
   88loPI   C1A 1399  12.650  15.236  10.665 -0.2222  0.1389  0.1189
   88loPI   C2A 1400  12.694  15.185  10.290 -0.0991  0.1255  0.3312
   88loPI   C3A 1401  12.689  15.155   9.864  0.0475 -0.0675 -0.4361
   88loPI   C4A 1402  12.796  15.105   9.375  0.4111 -0.2480 -0.0639
   88loPI   C5A 1403  12.619  14.855   8.974  0.0099  0.0361  0.1196
   88loPI   C6A 1404  12.146  14.692   8.945  0.0136 -0.1151  0.0666
   88loPI   C1B 1405  12.759  15.800  10.732 -0.0771 -0.2202 -0.2106
   88loPI   C2B 1406  12.860  15.676  10.328  0.2838  0.0467  0.1087
   88loPI   C3B 1407  12.836  15.641   9.904 -0.0473 -0.1289  0.1697
   88loPI   C4B 1408  12.926  15.602   9.518 -0.0173  0.1842 -0.1046
   89loPI    C1 1409  17.246  17.062  11.778 -0.1021  0.0373  0.0357
   89loPI    C2 1410  17.372  16.826  12.075 -0.1505  0.1885  0.1778
   89loPI    C3 1411  17.028  17.027  12.111 -0.2063  0.1319 -0.0218
   89loPI   PO4 1412  17.216  16.831  11.568  0.3524 -0.3629 -0.1287
   89loPI   GL1 1413  17.067  16.737  11.156  0.3623  0.1521  0.0823
   89loPI   GL2 1414  16.849  16.522  11.340 -0.0115 -0.2845  0.0014
   89loPI   C1A 1415  17.082  16.845  10.781 -0.1069  0.0402  0.5867
   89loPI   C2A 1416  17.063  16.887  10.336  0.0444 -0.1731 -0.0435
   89loPI   C3A 1417  17.110  16.895   9.955  0.0864  0.1017  0.2030
   89loPI   C4A 1418  17.176  16.863   9.492 -0.0206  0.2448  0.1501
   89loPI   C5A 1419  17.156  17.083   9.056 -0.0911  0.0203 -0.1171
   89loPI   C6A 1420  16.921  17.256   8.798  0.1428 -0.1970  0.1708
   89loPI   C1B 1421  16.897  16.360  10.956  0.0251  0.1618 -0.3683
   89loPI   C2B 1422  16.819  16.402  10.537  0.1212 -0.0075 -0.0555
   89loPI   C3B 1423  16.994  16.456  10.153  0.0504  0.3653  0.0830
   89loPI   C4B 1424  16.916  16.408   9.715 -0.1625 -0.4372 -0.1478
   90loPI    C1 1425  10.991   6.255  11.687  0.2260  0.1096  0.0329
   90loPI    C2 1426  11.034   6.186  12.078  0.0748 -0.0204  0.0278
   90loPI    C3 1427  10.690   6.094  11.896  0.1245  0.0926 -0.1247
   90loPI   PO4 1428  11.151   6.151  11.502 -0.0092  0.1006 -0.0235
   90loPI   GL1 1429  11.194   5.719  11.263  0.2724  0.3197  0.3671
   90loPI   GL2 1430  11.474   5.764  11.257  0.0303  0.1849 -0.0789
   90loPI   C1A 1431  11.272   5.472  10.790 -0.2131  0.1369 -0.3650
   90loPI   C2A 1432  11.201   5.324  10.387 -0.1630  0.0257  0.2193
   90loPI   C3A 1433  11.174   5.368   9.984  0.0739  0.1687 -0.0923
   90loPI   C4A 1434  11.196   5.386   9.525  0.0159  0.1963 -0.0391
   90loPI   C5A 1435  11.049   5.590   9.164  0.3225 -0.2414  0.1883
   90loPI   C6A 1436  11.170   5.729   8.674 -0.0988  0.1814 -0.0820
   90loPI   C1B 1437  11.805   5.975  10.929 -0.1722  0.1973 -0.0041
   90loPI   C2B 1438  11.846   5.986  10.474 -0.0907  0.3960  0.1387
   90loPI   C3B 1439  11.918   5.994  10.032  0.3434 -0.3727  0.2139
   90loPI   C4B 1440  11.922   5.871   9.634  0.1058 -0.0571 -0.0342
   91loPI    C1 1441  12.269  14.600  11.731  0.0344 -0.2480 -0.0720
   91loPI    C2 1442  12.097  14.351  11.992  0.0602 -0.0770  0.1100
   91loPI    C3 1443  11.990  14.736  11.982 -0.0008 -0.0995 -0.1902
   91loPI   PO4 1444  12.232  14.558  11.494 -0.0740 -0.0511  0.1610
   91loPI   GL1 1445  12.154  14.719  11.162  0.0638 -0.0838 -0.0501
   91loPI   GL2 1446  12.417  14.826  11.105 -0.0686  0.1082 -0.2189
   91loPI   C1A 1447  11.932  14.635  10.685 -0.0569 -0.1804  0.0478
   91loPI   C2A 1448  11.882  14.632  10.235  0.2797  0.0003  0.3629
   91loPI   C3A 1449  11.967  14.529   9.775 -0.1088 -0.1167 -0.0969
   91loPI   C4A 1450  11.828  14.596   9.357  0.2383 -0.1195  0.2980
   91loPI   C5A 1451  11.660  14.530   9.015 -0.2247  0.0657  0.0681
   91loPI   C6A 1452  11.608  14.808   8.634 -0.3496 -0.0975  0.1516
   91loPI   C1B 1453  12.455  14.727  10.660  0.1758  0.1657  0.0965
   91loPI   C2B 1454  12.456  14.655  10.309  0.4391 -0.1262  0.1315
   91loPI   C3B 1455  12.521  14.595   9.841 -0.0451 -0.1209  0.2746
   91loPI   C4B 1456  12.373  14.615   9.429 -0.1943 -0.0886 -0.1282
   92loPI    C1 1457   4.495  16.141  12.164  0.3316  0.3997 -0.2180
   92loPI    C2 1458   4.765  16.072  12.451 -0.0519  0.0721  0.0756
   92loPI    C3 1459   4.556  16.414  12.450  0.0730  0.1490  0.0839
   92loPI   PO4 1460   4.628  16.171  11.911 -0.0739  0.1982  0.0716
   92loPI   GL1 1461   4.549  16.256  11.419  0.0423  0.0489  0.0623
   92loPI   GL2 1462   4.714  16.444  11.232  0.1382  0.3989  0.0547
   92loPI   C1A 1463   4.263  16.384  11.082  0.1949  0.3137  0.1809
   92loPI   C2A 1464   4.248  16.229  10.754 -0.2395  0.0775 -0.0286
   92loPI   C3A 1465   4.277  16.304  10.284  0.2217  0.0366  0.3103
   92loPI   C4A 1466   4.248  16.277   9.842  0.1838 -0.2506 -0.0106
   92loPI   C5A 1467   4.339  16.204   9.423 -0.1617  0.2100 -0.1674
   92loPI   C6A 1468   4.391  16.225   8.988  0.1233 -0.0669  0.2820
   92loPI   C1B 1469   4.807  16.409  10.835  0.2504 -0.0852 -0.0874
   92loPI   C2B 1470   4.782  16.347  10.480  0.3634 -0.1174  0.1028
   92loPI   C3B 1471   4.819  16.402  10.082  0.1440  0.1082  0.2059
   92loPI   C4B 1472   4.744  16.365   9.647 -0.0983  0.1524 -0.0450
   93loPI    C1 1473  12.439   7.108  11.517  0.1007  0.1472  0.0332
   93loPI    C2 1474  12.127   6.964  11.722  0.0663  0.2381  0.0449
   93loPI    C3 1475  12.271   7.328  11.806  0.0793  0.2580 -0.0629
   93loPI   PO4 1476  12.469   7.123  11.331  0.2405 -0.0750  0.2498
   93loPI   GL1 1477  12.287   7.019  10.952 -0.3328 -0.2211  0.0168
   93loPI   GL2 1478  12.160   6.869  10.884  0.0151 -0.0143 -0.0506
   93loPI   C1A 1479  12.291   6.870  10.434  0.0477 -0.0399 -0.0465
   93loPI   C2A 1480  12.240   6.875  10.001  0.0813 -0.1461  0.3068
   93loPI   C3A 1481  12.190   6.879   9.583  0.2022  0.3885  0.0450
   93loPI   C4A 1482  12.313   6.965   9.180  0.0617  0.0484  0.2345
   93loPI   C5A 1483  12.624   7.264   8.999 -0.0878 -0.0787  0.4270
   93loPI   C6A 1484  12.953   7.608   8.849  0.0035  0.1261  0.0438
   93loPI   C1B 1485  11.794   6.857  10.704 -0.0509  0.2319  0.0055
   93loPI   C2B 1486  11.686   6.875  10.260 -0.0835 -0.1945 -0.2122
   93loPI   C3B 1487  11.733   6.804   9.792 -0.0277  0.0346 -0.0695
   93loPI   C4B 1488  11.645   6.741   9.369  0.1930 -0.0871 -0.1592
   94loPI    C1 1489  15.883   7.512  11.782 -0.1149 -0.0557  0.1225
   94loPI    C2 1490  16.200   7.364  11.975 -0.1737 -0.1956  0.1126
   94loPI    C3 1491  15.987   7.660  12.139 -0.0072 -0.0643  0.0952
   94loPI   PO4 1492  15.912   7.398  11.552  0.0446  0.0377 -0.3518
   94loPI   GL1 1493  16.115   7.539  11.214  0.2612  0.1542 -0.1849
   94loPI   GL2 1494  16.280   7.359  11.075 -0.1788  0.0132 -0.1066
   94loPI   C1A 1495  15.919   7.664  10.922  0.0568  0.1273 -0.0981
   94loPI   C2A 1496  15.879   7.661  10.461  0.1939  0.0657  0.2856
   94loPI   C3A 1497  15.947   7.619   9.970  0.1625  0.0528 -0.2767
   94loPI   C4A 1498  15.892   7.530   9.588 -0.0637  0.0135  0.0411
   94loPI   C5A 1499  15.777   7.505   9.313  0.0664  0.1100 -0.0818
   94loPI   C6A 1500  15.641   7.659   8.903  0.4181 -0.0229  0.3322
   94loPI   C1B 1501  16.193   7.290  10.653 -0.1366  0.1137 -0.1505
   94loPI   C2B 1502  16.160   7.228  10.200  0.2139 -0.1415  0.0037
   94loPI   C3B 1503  16.266   7.180   9.782 -0.3237 -0.1603 -0.2756
   94loPI   C4B 1504  16.206   7.166   9.368 -0.2027 -0.3011 -0.0868
   95loPI    C1 1505   0.050  15.737  11.845  0.1106  0.0940 -0.2048
   95loPI    C2 1506   0.162  16.116  11.908  0.1182  0.0697 -0.0722
   95loPI    C3 1507   0.186  15.847  12.204 -0.2413  0.0521 -0.0551
   95loPI   PO4 1508  -0.036  15.764  11.599  0.2214 -0.0059 -0.0723
   95loPI   GL1 1509   0.011  16.041  11.197  0.0142  0.0820 -0.1159
   95loPI   GL2 1510  -0.208  15.851  10.998  0.2974 -0.1880  0.1973
   95loPI   C1A 1511   0.296  16.051  10.844  0.2581  0.0923  0.0937
   95loPI   C2A 1512   0.308  16.133  10.395  0.2030 -0.0905 -0.1905
   95loPI   C3A 1513   0.364  16.066   9.968 -0.0853 -0.2771  0.1890
   95loPI   C4A 1514   0.447  15.954   9.571  0.2680  0.1751  0.3793
   95loPI   C5A 1515   0.404  16.026   9.171 -0.0041 -0.1364  0.0348
   95loPI   C6A 1516   0.016  15.956   8.894 -0.1564  0.0702  0.0634
   95loPI   C1B 1517  -0.192  16.069  10.636 -0.1476 -0.0251  0.2132
   95loPI   C2B 1518  -0.211  15.997  10.281 -0.0814  0.1136  0.1119
   95loPI   C3B 1519  -0.171  16.026   9.791  0.0781 -0.0865 -0.2263
   95loPI   C4B 1520  -0.084  15.879   9.387 -0.0280 -0.0297 -0.0091
   96loPI    C1 1521   9.997   7.295  11.653 -0.1578 -0.0999  0.0553
   96loPI    C2 1522   9.912   7.578  11.383  0.0285  0.1071  0.2098
   96loPI    C3 1523   9.739   7.587  11.743 -0.0744 -0.0597  0.1657
   96loPI   PO4 1524   9.974   7.026  11.546 -0.1344 -0.2036  0.0218
   96loPI   GL1 1525   9.744   6.966  11.162 -0.0385 -0.0197 -0.0210
   96loPI   GL2 1526  10.050   7.213  11.061  0.3086  0.1282 -0.2105
   96loPI   C1A 1527   9.435   6.969  10.884  0.0463  0.0416  0.2002
   96loPI   C2A 1528   9.462   6.932  10.453 -0.0326 -0.2970  0.2418
   96loPI   C3A 1529   9.386   7.070  10.022  0.0665 -0.2206 -0.4241
   96loPI   C4A 1530   9.398   6.982   9.554  0.0690 -0.0536 -0.0238
   96loPI   C5A 1531   9.315   7.058   9.149 -0.0660  0.0237 -0.2504
   96loPI   C6A 1532   9.511   6.868   8.831  0.3045 -0.0060 -0.0683
   96loPI   C1B 1533   9.991   7.034  10.702  0.0409 -0.2152 -0.2077
   96loPI   C2B 1534   9.895   7.057  10.239 -0.1156 -0.2400  0.2506
   96loPI   C3B 1535   9.849   6.981   9.796 -0.0563 -0.1511 -0.0287
   96loPI   C4B 1536   9.818   7.059   9.313 -0.1169  0.2685 -0.2500
   97loPI    C1 1537   1.870  11.854  12.044 -0.0218 -0.0372  0.0526
   97loPI    C2 1538   1.801  11.496  12.208 -0.1397 -0.0412 -0.0046
   97loPI    C3 1539   1.970  11.786  12.425  0.1527 -0.1966 -0.0205
   97loPI   PO4 1540   2.010  11.850  11.839 -0.0003 -0.0093  0.1050
   97loPI   GL1 1541   1.899  11.777  11.406 -0.2553 -0.0955  0.0123
   97loPI   GL2 1542   1.804  12.121  11.223 -0.2246  0.0140  0.0117
   97loPI   C1A 1543   1.565  11.673  11.051  0.1494 -0.1093  0.0240
   97loPI   C2A 1544   1.530  11.689  10.593 -0.0293 -0.3131 -0.1447
   97loPI   C3A 1545   1.524  11.764  10.109 -0.0827 -0.0326 -0.1853
   97loPI   C4A 1546   1.644  11.880   9.664 -0.0372  0.1738 -0.3264
   97loPI   C5A 1547   1.659  11.913   9.234  0.1492 -0.0204 -0.4927
   97loPI   C6A 1548   1.401  11.854   8.796 -0.1464 -0.0839  0.1047
   97loPI   C1B 1549   1.783  12.097  10.835 -0.0690 -0.0248 -0.3922
   97loPI   C2B 1550   1.808  12.188  10.447  0.1039 -0.2741  0.0283
   97loPI   C3B 1551   1.808  12.210   9.977 -0.1879 -0.1597  0.1209
   97loPI   C4B 1552   1.756  12.364   9.466 -0.0486  0.2253 -0.1878
   98loPI    C1 1553  15.351   4.435  11.980 -0.1698 -0.0166  0.1416
   98loPI    C2 1554  15.617   4.400  12.277  0.0328 -0.0043 -0.0362
   98loPI    C3 1555  15.263   4.216  12.303  0.0807 -0.0682  0.1772
   98loPI   PO4 1556  15.500   4.403  11.744  0.0597 -0.0884  0.1097
   98loPI   GL1 1557  15.314   4.470  11.278 -0.2100 -0.1890 -0.0704
   98loPI   GL2 1558  15.341   4.128  11.344 -0.3120  0.1215  0.1728
   98loPI   C1A 1559  14.985   4.235  10.961  0.2630 -0.1352 -0.1203
   98loPI   C2A 1560  14.939   4.245  10.505 -0.0018 -0.1639  0.3137
   98loPI   C3A 1561  15.082   4.294  10.122  0.2235  0.0969 -0.2515
   98loPI   C4A 1562  15.045   4.191   9.788  0.2481  0.2534  0.2054
   98loPI   C5A 1563  14.994   4.101   9.354  0.1393 -0.2655  0.2756
   98loPI   C6A 1564  15.238   4.234   8.963 -0.0289 -0.1007 -0.1126
   98loPI   C1B 1565  15.502   4.272  10.887 -0.1695  0.0971 -0.1159
   98loPI   C2B 1566  15.511   4.312  10.408  0.0291 -0.0475  0.3627
   98loPI   C3B 1567  15.544   4.302   9.972  0.1896  0.0191 -0.0448
   98loPI   C4B 1568  15.463   4.151   9.476 -0.5290  0.1202  0.1094
   99loPI    C1 1569   1.879   5.770  11.538 -0.0351  0.0629  0.0410
   99loPI    C2 1570   1.676   5.821  11.879 -0.1068  0.3088 -0.0363
   99loPI    C3 1571   1.609   5.498  11.653 -0.2460  0.2740  0.0534
   99loPI   PO4 1572   1.827   6.055  11.341  0.1001 -0.0213 -0.0106
   99loPI   GL1 1573   1.742   5.898  10.928 -0.1667  0.0900 -0.0617
   99loPI   GL2 1574   1.539   5.700  10.676  0.1919 -0.1357  0.0549
   99loPI   C1A 1575   1.706   6.195  10.630  0.2755 -0.0777 -0.1397
   99loPI   C2A 1576   1.716   6.235  10.279  0.0545 -0.1607 -0.0678
   99loPI   C3A 1577   1.838   6.293   9.812  0.2256  0.0081 -0.1705
   99loPI   C4A 1578   1.770   6.420   9.431 -0.0615 -0.0115  0.1107
   99loPI   C5A 1579   1.567   6.475   9.105  0.0336  0.1005 -0.0274
   99loPI   C6A 1580   1.501   6.302   8.616  0.0394  0.0397  0.1354
   99loPI   C1B 1581   1.524   5.799  10.296  0.1498  0.0485 -0.1643
   99loPI   C2B 1582   1.583   5.733   9.907 -0.1239 -0.0909 -0.1100
   99loPI   C3B 1583   1.530   5.764   9.466  0.0737 -0.2269 -0.1634
   99loPI   C4B 1584   1.467   5.969   9.060  0.0381  0.0510 -0.1468
  100loPI    C1 1585  13.485   2.720  11.692  0.0359  0.0967  0.0460
  100loPI    C2 1586  13.318   3.073  11.781 -0.0777  0.0656 -0.0412
  100loPI    C3 1587  13.444   2.832  12.074  0.0602  0.2068  0.0169
  100loPI   PO4 1588  13.597   2.700  11.419 -0.1678  0.0804 -0.1092
  100loPI   GL1 1589  13.541   2.508  11.006  0.0937 -0.1891 -0.1225
  100loPI   GL2 1590  13.428   2.255  11.093  0.0065 -0.0165 -0.0115
  100loPI   C1A 1591  13.532   2.516  10.572 -0.1703 -0.1768 -0.2859
  100loPI   C2A 1592  13.482   2.628  10.099 -0.2392 -0.1637  0.0458
  100loPI   C3A 1593  13.425   2.540   9.689  0.1000  0.1379  0.0144
  100loPI   C4A 1594  13.400   2.597   9.241 -0.1491 -0.0676  0.0790
  100loPI   C5A 1595  13.281   2.667   8.892  0.0625  0.1970  0.1211
  100loPI   C6A 1596  12.938   2.503   8.597 -0.0976 -0.0519  0.0232
  100loPI   C1B 1597  13.233   2.148  10.738 -0.1009  0.0530  0.1135
  100loPI   C2B 1598  13.222   2.119  10.357 -0.1372  0.1384  0.1896
  100loPI   C3B 1599  13.309   2.079   9.989  0.1683  0.0645 -0.2185
  100loPI   C4B 1600  13.237   1.965   9.581  0.0378  0.0491  0.3008
  101loPI    C1 1601   4.210  13.802  11.625  0.0071 -0.0799 -0.0683
  101loPI    C2 1602   4.578  13.955  11.663  0.0448 -0.1784 -0.0345
  101loPI    C3 1603   4.462  13.652  11.897 -0.1381  0.0047  0.1158
  101loPI   PO4 1604   4.203  13.772  11.354  0.4625  0.0278  0.0391
  101loPI   GL1 1605   4.153  14.009  11.072  0.0145 -0.0907 -0.3065
  101loPI   GL2 1606   3.981  14.040  10.835 -0.0619 -0.1319 -0.0792
  101loPI   C1A 1607   4.449  14.015  10.660  0.0705  0.1028 -0.0295
  101loPI   C2A 1608   4.416  14.057  10.172  0.0280  0.2427 -0.4462
  101loPI   C3A 1609   4.400  13.989   9.635 -0.0914 -0.5152  0.0988
  101loPI   C4A 1610   4.454  13.997   9.210  0.1483 -0.0100  0.1653
  101loPI   C5A 1611   4.408  14.251   8.822  0.0729  0.1384 -0.1008
  101loPI   C6A 1612   3.929  14.398   8.811 -0.0054  0.1603 -0.0668
  101loPI   C1B 1613   3.941  14.056  10.434  0.0853 -0.1453  0.2049
  101loPI   C2B 1614   3.968  14.010  10.044  0.5518  0.0734  0.0405
  101loPI   C3B 1615   3.850  13.983   9.552 -0.1325  0.2019 -0.0600
  101loPI   C4B 1616   3.927  13.923   9.176  0.1034  0.0446 -0.0249
  102loPI    C1 1617  15.460   1.358  11.946 -0.0769 -0.1008  0.1877
  102loPI    C2 1618  15.809   1.430  12.129 -0.0806 -0.0205  0.1635
  102loPI    C3 1619  15.573   1.133  12.256 -0.0293 -0.0391  0.2154
  102loPI   PO4 1620  15.571   1.265  11.701  0.1149  0.2474  0.0684
  102loPI   GL1 1621  15.444   1.128  11.267  0.1613  0.0915 -0.3198
  102loPI   GL2 1622  15.725   0.877  11.359 -0.0282 -0.1140 -0.1951
  102loPI   C1A 1623  15.441   1.120  10.883  0.1267  0.1494  0.2014
  102loPI   C2A 1624  15.248   1.033  10.401  0.0389  0.1580 -0.2229
  102loPI   C3A 1625  15.301   0.978   9.987 -0.0279  0.0657  0.2575
  102loPI   C4A 1626  15.268   0.958   9.460  0.0745 -0.0177 -0.2408
  102loPI   C5A 1627  15.053   0.845   9.048 -0.1457 -0.1457  0.0140
  102loPI   C6A 1628  14.715   1.059   8.914  0.0296 -0.1604  0.1279
  102loPI   C1B 1629  15.892   1.010  10.988  0.4114 -0.0728  0.2694
  102loPI   C2B 1630  15.844   1.036  10.609  0.1811 -0.2505 -0.1706
  102loPI   C3B 1631  15.790   1.141  10.199  0.3047  0.0935  0.2311
  102loPI   C4B 1632  15.745   1.121   9.794 -0.3830  0.1586 -0.1013
  103loPI    C1 1633   1.957   9.381  11.522 -0.0435 -0.2120  0.1751
  103loPI    C2 1634   2.135   9.739  11.507 -0.3183 -0.0759  0.0849
  103loPI    C3 1635   2.112   9.542  11.854 -0.0114 -0.0890  0.1010
  103loPI   PO4 1636   1.810   9.343  11.359  0.0653 -0.2203  0.0957
  103loPI   GL1 1637   1.470   9.119  11.065 -0.1169  0.2161 -0.0578
  103loPI   GL2 1638   1.522   9.415  10.975  0.0271  0.0454 -0.0792
  103loPI   C1A 1639   1.813   8.989  10.833  0.3362  0.1234  0.0808
  103loPI   C2A 1640   1.891   8.975  10.379 -0.3090 -0.2651 -0.1185
  103loPI   C3A 1641   2.011   9.000   9.929 -0.0163 -0.3987  0.1929
  103loPI   C4A 1642   1.991   9.134   9.624  0.1469 -0.1057 -0.0484
  103loPI   C5A 1643   1.994   9.154   9.291  0.3704 -0.0321 -0.0327
  103loPI   C6A 1644   2.343   8.954   9.015  0.0543  0.1648 -0.2649
  103loPI   C1B 1645   1.461   9.377  10.513  0.1883 -0.1507 -0.1070
  103loPI   C2B 1646   1.646   9.386  10.155 -0.0566 -0.2372  0.0938
  103loPI   C3B 1647   1.663   9.512   9.776  0.2637 -0.2582  0.1712
  103loPI   C4B 1648   1.511   9.473   9.429  0.5462 -0.1279  0.2231
  104loPI    C1 1649   3.968  14.632  11.903 -0.0145  0.2533  0.0791
  104loPI    C2 1650   3.573  14.687  11.931 -0.0746 -0.0303 -0.1575
  104loPI    C3 1651   3.770  14.500  12.224 -0.1836 -0.2372 -0.2139
  104loPI   PO4 1652   4.021  14.804  11.607  0.1481 -0.0638  0.0048
  104loPI   GL1 1653   3.973  15.017  11.317  0.3569 -0.1506 -0.1200
  104loPI   GL2 1654   3.699  15.058  11.171  0.1237  0.0999 -0.0529
  104loPI   C1A 1655   4.228  14.971  10.957 -0.0089  0.1595  0.0922
  104loPI   C2A 1656   4.206  14.990  10.538  0.3455  0.2162 -0.0443
  104loPI   C3A 1657   4.247  14.925  10.091  0.1932  0.1545 -0.0855
  104loPI   C4A 1658   4.235  14.887   9.684 -0.0186 -0.3643  0.2261
  104loPI   C5A 1659   4.269  14.836   9.216 -0.1377 -0.1262  0.1628
  104loPI   C6A 1660   4.260  14.702   8.795 -0.1843  0.2972 -0.0062
  104loPI   C1B 1661   3.681  14.894  10.756  0.0583  0.0979  0.0313
  104loPI   C2B 1662   3.728  14.913  10.329  0.1463  0.0110 -0.0817
  104loPI   C3B 1663   3.658  14.807   9.995 -0.2138 -0.2152  0.0252
  104loPI   C4B 1664   3.809  14.706   9.580 -0.1288 -0.1191  0.0724
  105loPI    C1 1665   8.673   2.960  11.526 -0.1266 -0.2517  0.2241
  105loPI    C2 1666   8.889   2.784  11.813 -0.0750 -0.0609  0.3037
  105loPI    C3 1667   8.736   3.150  11.872  0.3715  0.2025 -0.1000
  105loPI   PO4 1668   8.807   2.939  11.307  0.0542 -0.0471  0.2699
  105loPI   GL1 1669   8.840   2.999  10.950  0.1062  0.0613  0.0880
  105loPI   GL2 1670   8.656   2.629  10.874  0.1585 -0.1709 -0.0892
  105loPI   C1A 1671   8.913   3.167  10.539  0.2127  0.0362 -0.1725
  105loPI   C2A 1672   8.900   3.226  10.159  0.1817 -0.0263  0.2824
  105loPI   C3A 1673   8.775   3.213   9.760  0.0668 -0.1079 -0.3672
  105loPI   C4A 1674   8.832   3.220   9.330 -0.0192  0.1828  0.0792
  105loPI   C5A 1675   8.879   3.136   8.914  0.0475  0.0690 -0.0277
  105loPI   C6A 1676   9.107   3.391   8.598  0.3520 -0.0260 -0.2592
  105loPI   C1B 1677   8.610   2.635  10.487 -0.3604 -0.2785  0.0356
  105loPI   C2B 1678   8.641   2.699  10.022 -0.0666  0.3351 -0.1369
  105loPI   C3B 1679   8.608   2.791   9.565  0.1958 -0.0243  0.2033
  105loPI   C4B 1680   8.684   2.635   9.153 -0.2522  0.2131 -0.2635
  106loPI    C1 1681   2.312   8.956  11.696 -0.1050  0.1733  0.0571
  106loPI    C2 1682   2.595   8.766  11.905 -0.0378  0.2857  0.0692
  106loPI    C3 1683   2.468   9.126  12.022 -0.2548  0.1953  0.1184
  106loPI   PO4 1684   2.359   8.911  11.423 -0.4497  0.1247 -0.1830
  106loPI   GL1 1685   2.228   9.193  11.107  0.2824  0.2048  0.0572
  106loPI   GL2 1686   2.204   9.508  11.051 -0.3623 -0.1267  0.0097
  106loPI   C1A 1687   2.412   9.184  10.683 -0.0195 -0.0293  0.1553
  106loPI   C2A 1688   2.395   9.141  10.205  0.2271 -0.1988  0.3355
  106loPI   C3A 1689   2.494   9.151   9.838  0.2268  0.0627  0.0051
  106loPI   C4A 1690   2.452   9.266   9.426 -0.0221  0.0606  0.2302
  106loPI   C5A 1691   2.822   9.293   8.945  0.0761 -0.4428 -0.4647
  106loPI   C6A 1692   3.211   9.146   8.675  0.2025 -0.3261 -0.0556
  106loPI   C1B 1693   2.013   9.492  10.687  0.2380 -0.1688  0.2089
  106loPI   C2B 1694   2.104   9.531  10.313 -0.1934  0.2162  0.0504
  106loPI   C3B 1695   2.163   9.532   9.910  0.0251  0.0314 -0.0404
  106loPI   C4B 1696   2.065   9.598   9.484 -0.2594  0.0465  0.0339
  107loPI    C1 1697   2.861   6.641  11.670  0.0925  0.1292 -0.0895
  107loPI    C2 1698   2.896   6.981  11.879  0.0582  0.2432 -0.2670
  107loPI    C3 1699   2.766   6.648  12.059  0.0506  0.3343 -0.1020
  107loPI   PO4 1700   3.066   6.667  11.535  0.0134  0.0193  0.4182
  107loPI   GL1 1701   3.290   6.371  11.283  0.0474  0.0417 -0.0908
  107loPI   GL2 1702   3.511   6.534  11.102 -0.2751  0.1769 -0.1327
  107loPI   C1A 1703   3.250   6.134  10.962  0.0270 -0.5447  0.3292
  107loPI   C2A 1704   3.145   5.927  10.522  0.1032  0.2485 -0.0559
  107loPI   C3A 1705   3.100   6.000  10.067 -0.1307  0.4010  0.1222
  107loPI   C4A 1706   3.130   6.043   9.559  0.3664 -0.2203  0.0785
  107loPI   C5A 1707   3.226   6.016   9.155  0.1359 -0.2128 -0.2666
  107loPI   C6A 1708   3.476   6.076   8.832  0.2028  0.0194  0.0656
  107loPI   C1B 1709   3.394   6.560  10.683 -0.3016  0.2189 -0.0079
  107loPI   C2B 1710   3.375   6.442  10.210 -0.0841 -0.1357 -0.0613
  107loPI   C3B 1711   3.303   6.435   9.756  0.1355 -0.0823 -0.0651
  107loPI   C4B 1712   3.249   6.479   9.295 -0.1824  0.0277 -0.3121
  108loPI    C1 1713   4.083   5.344  11.455 -0.0173 -0.0676 -0.1510
  108loPI    C2 1714   3.807   5.588  11.300 -0.1401 -0.1627 -0.0836
  108loPI    C3 1715   3.811   5.515  11.694  0.0697 -0.0499 -0.0637
  108loPI   PO4 1716   4.143   5.205  11.275 -0.1888 -0.0531 -0.0234
  108loPI   GL1 1717   4.297   5.269  10.863 -0.0069 -0.3093 -0.1541
  108loPI   GL2 1718   4.325   4.942  10.858  0.0290 -0.0156  0.0872
  108loPI   C1A 1719   4.336   5.236  10.374  0.0937  0.0988 -0.1077
  108loPI   C2A 1720   4.356   5.257   9.902 -0.2148  0.3769 -0.0753
  108loPI   C3A 1721   4.309   5.345   9.427 -0.0548 -0.0438  0.0289
  108loPI   C4A 1722   4.275   5.452   9.058 -0.0645  0.0891  0.2280
  108loPI   C5A 1723   3.945   5.620   8.902 -0.0412  0.0180 -0.0239
  108loPI   C6A 1724   3.565   5.603   8.819  0.1292 -0.0582 -0.1810
  108loPI   C1B 1725   4.164   4.788  10.531  0.0220 -0.2062 -0.0221
  108loPI   C2B 1726   4.220   4.818  10.115 -0.1991  0.0819  0.0369
  108loPI   C3B 1727   4.011   4.784   9.732 -0.1778  0.4188  0.1582
  108loPI   C4B 1728   4.168   4.851   9.360  0.0163 -0.2124  0.0548
  109loPI    C1 1729  16.397   5.793  11.633  0.0250 -0.1632  0.0435
  109loPI    C2 1730  16.273   5.485  11.857 -0.1467 -0.0768  0.0691
  109loPI    C3 1731  16.242   5.858  11.996  0.0845 -0.0483  0.0486
  109loPI   PO4 1732  16.263   5.716  11.381  0.1763  0.0733 -0.2006
  109loPI   GL1 1733  16.259   5.682  11.022 -0.1822 -0.2355  0.1077
  109loPI   GL2 1734  16.296   5.974  10.925  0.0475 -0.0497 -0.1482
  109loPI   C1A 1735  16.150   5.741  10.568 -0.1718  0.2369  0.1258
  109loPI   C2A 1736  16.098   5.744  10.161 -0.1711 -0.0782 -0.1818
  109loPI   C3A 1737  16.085   5.765   9.730 -0.4261  0.3983  0.1173
  109loPI   C4A 1738  16.213   5.740   9.321  0.2448 -0.0824 -0.0978
  109loPI   C5A 1739  15.788   5.703   9.109 -0.0549 -0.0812  0.3583
  109loPI   C6A 1740  15.400   5.482   9.086 -0.0171 -0.0740 -0.3755
  109loPI   C1B 1741  16.606   5.856  10.648 -0.1343  0.0355  0.1466
  109loPI   C2B 1742  16.600   5.863  10.237 -0.3040 -0.2233  0.1706
  109loPI   C3B 1743  16.616   5.821   9.827  0.1340  0.0834  0.5804
  109loPI   C4B 1744  16.737   5.897   9.379 -0.3357 -0.1274  0.3065
  110loPI    C1 1745   2.446   0.132  11.806 -0.0900  0.0402  0.1303
  110loPI    C2 1746   2.398   0.497  11.964 -0.1237  0.0321  0.1389
  110loPI    C3 1747   2.684   0.254  12.103  0.2261  0.2408 -0.1963
  110loPI   PO4 1748   2.444   0.174  11.577  0.0902  0.1383 -0.2193
  110loPI   GL1 1749   2.542  -0.174  11.263  0.2108  0.2637 -0.0856
  110loPI   GL2 1750   2.894  -0.086  11.273 -0.3819  0.2230  0.2664
  110loPI   C1A 1751   2.242  -0.138  11.003 -0.2230  0.0850  0.1831
  110loPI   C2A 1752   2.257  -0.116  10.437 -0.0590 -0.0288 -0.0157
  110loPI   C3A 1753   2.258  -0.178  10.022  0.2374  0.0623  0.0403
  110loPI   C4A 1754   2.268  -0.080   9.591 -0.2669  0.0876 -0.2965
  110loPI   C5A 1755   2.371  -0.043   9.136  0.1221  0.3492 -0.1084
  110loPI   C6A 1756   2.408  -0.039   8.714 -0.0999 -0.2572  0.1339
  110loPI   C1B 1757   2.760  -0.027  10.834 -0.0652 -0.1119 -0.1352
  110loPI   C2B 1758   2.763  -0.002  10.378 -0.0295 -0.5112  0.0429
  110loPI   C3B 1759   2.787  -0.083   9.977 -0.0919  0.3923  0.1004
  110loPI   C4B 1760   2.761  -0.005   9.552  0.1403 -0.3862 -0.1782
  111loPI    C1 1761  15.086   7.710  11.759  0.1898 -0.0347 -0.0224
  111loPI    C2 1762  14.786   7.974  11.733  0.2532  0.0335 -0.0613
  111loPI    C3 1763  14.912   7.849  12.091  0.0211 -0.1753 -0.0505
  111loPI   PO4 1764  14.986   7.545  11.521  0.0622  0.1702 -0.1304
  111loPI   GL1 1765  14.958   7.517  11.081  0.1820 -0.2689  0.2459
  111loPI   GL2 1766  14.920   7.314  10.811  0.0326 -0.1215  0.1486
  111loPI   C1A 1767  15.001   7.834  10.810 -0.3403  0.1678 -0.0112
  111loPI   C2A 1768  14.924   7.794  10.406 -0.0534 -0.1661 -0.0678
  111loPI   C3A 1769  14.991   7.844  10.035 -0.2885  0.0828 -0.0457
  111loPI   C4A 1770  15.011   7.885   9.663 -0.0089 -0.1327 -0.0137
  111loPI   C5A 1771  15.085   7.692   9.283  0.1740  0.1536  0.1547
  111loPI   C6A 1772  14.747   7.673   9.004  0.1119 -0.1385  0.1234
  111loPI   C1B 1773  14.825   7.308  10.422 -0.2252  0.1594 -0.4083
  111loPI   C2B 1774  14.846   7.283  10.112 -0.0597 -0.1870 -0.0715
  111loPI   C3B 1775  14.885   7.357   9.682  0.0918 -0.1368 -0.1608
  111loPI   C4B 1776  14.799   7.232   9.264  0.1129  0.0728  0.1322
  112loPI    C1 1777   1.518  17.097  12.112  0.0201  0.0022  0.1505
  112loPI    C2 1778   1.733  17.409  12.242  0.1156  0.0469 -0.1073
  112loPI    C3 1779   1.334  17.415  12.271  0.1384  0.0161  0.2616
  112loPI   PO4 1780   1.627  17.114  11.775  0.1728  0.0518  0.0087
  112loPI   GL1 1781   1.388  17.089  11.353  0.0610 -0.0147 -0.0837
  112loPI   GL2 1782   1.155  16.831  11.288 -0.0181  0.0584  0.1416
  112loPI   C1A 1783   1.243  17.163  10.879  0.1287 -0.2951  0.0066
  112loPI   C2A 1784   1.331  17.122  10.349 -0.0470 -0.1291 -0.1257
  112loPI   C3A 1785   1.255  17.165   9.964 -0.1547  0.2477  0.2296
  112loPI   C4A 1786   1.346  17.151   9.516 -0.1681  0.3828 -0.0938
  112loPI   C5A 1787   1.157  17.454   9.142  0.0856  0.2801 -0.0872
  112loPI   C6A 1788   1.247  17.537   8.787 -0.0545 -0.1601 -0.1648
  112loPI   C1B 1789   1.103  16.638  10.848 -0.0910 -0.2316 -0.0771
  112loPI   C2B 1790   1.087  16.658  10.434 -0.0258  0.3911  0.1979
  112loPI   C3B 1791   1.074  16.679   9.945 -0.1863 -0.1722  0.2787
  112loPI   C4B 1792   1.128  16.446   9.564  0.2496  0.2830  0.2775
  113loPI    C1 1793  14.545   1.068  11.875  0.1983  0.0573  0.1117
  113loPI    C2 1794  14.531   1.369  12.138  0.1119  0.0302  0.1382
  113loPI    C3 1795  14.632   1.002  12.260 -0.1770 -0.0366  0.1839
  113loPI   PO4 1796  14.584   1.287  11.625  0.1935 -0.3282  0.0006
  113loPI   GL1 1797  14.651   1.311  11.234 -0.0619  0.2856 -0.0403
  113loPI   GL2 1798  14.978   1.485  11.164 -0.1279 -0.4248  0.0869
  113loPI   C1A 1799  14.441   1.314  10.874  0.2060 -0.1754  0.0731
  113loPI   C2A 1800  14.442   1.369  10.425  0.1154 -0.3388  0.2759
  113loPI   C3A 1801  14.424   1.337   9.957  0.1887  0.0887 -0.3996
  113loPI   C4A 1802  14.463   1.342   9.563 -0.0222  0.1065 -0.1348
  113loPI   C5A 1803  14.378   1.316   9.167  0.0926  0.0736  0.1162
  113loPI   C6A 1804  14.282   1.261   8.752 -0.1977 -0.0077 -0.1986
  113loPI   C1B 1805  14.948   1.448  10.719  0.3739  0.0254 -0.0605
  113loPI   C2B 1806  14.919   1.457  10.218  0.1926 -0.0600  0.0811
  113loPI   C3B 1807  14.943   1.343   9.790 -0.1799 -0.0823  0.1018
  113loPI   C4B 1808  14.967   1.396   9.289 -0.3656 -0.0766 -0.2032
  114loPI    C1 1809   9.734   9.212  11.504 -0.2063  0.1092  0.0564
  114loPI    C2 1810  10.061   9.443  11.508 -0.1757  0.0753 -0.2314
  114loPI    C3 1811   9.921   9.288  11.849  0.0941  0.1092 -0.1027
  114loPI   PO4 1812   9.712   9.232  11.223  0.0416 -0.1198 -0.1398
  114loPI   GL1 1813   9.826   9.222  10.776  0.4523 -0.0416 -0.1521
  114loPI   GL2 1814   9.607   8.930  10.803 -0.0506 -0.0412  0.0767
  114loPI   C1A 1815   9.734   9.260  10.330 -0.0934 -0.1994 -0.0689
  114loPI   C2A 1816   9.693   9.316   9.893  0.0058  0.0022 -0.1883
  114loPI   C3A 1817   9.723   9.288   9.492 -0.0290  0.2453 -0.0574
  114loPI   C4A 1818   9.852   9.396   9.140 -0.0210  0.2140  0.2678
  114loPI   C5A 1819   9.916   9.777   8.942 -0.0886  0.1643 -0.1762
  114loPI   C6A 1820   9.647  10.149   8.876  0.1515 -0.0480 -0.0025
  114loPI   C1B 1821   9.643   8.769  10.442 -0.0047 -0.0889  0.1790
  114loPI   C2B 1822   9.647   8.829   9.968  0.2163  0.1218 -0.2617
  114loPI   C3B 1823   9.590   8.821   9.556 -0.2283  0.0238 -0.2981
  114loPI   C4B 1824   9.654   8.845   9.105 -0.1941  0.1541  0.1164
  115loPI    C1 1825   3.875   1.747  11.794  0.0446  0.2367  0.0639
  115loPI    C2 1826   4.245   1.615  11.871 -0.0972 -0.1017  0.1816
  115loPI    C3 1827   3.996   1.702  12.172 -0.3336 -0.5158  0.1140
  115loPI   PO4 1828   3.802   1.602  11.555 -0.1443 -0.1693 -0.4419
  115loPI   GL1 1829   4.195   1.544  11.326  0.0171  0.1510 -0.0131
  115loPI   GL2 1830   4.036   1.603  11.091  0.1711  0.2750  0.3963
  115loPI   C1A 1831   4.577   1.339  11.113  0.5201 -0.2241 -0.5121
  115loPI   C2A 1832   4.739   1.219  10.678 -0.1571  0.0357 -0.2004
  115loPI   C3A 1833   4.806   1.209  10.261 -0.1516 -0.0498 -0.2935
  115loPI   C4A 1834   4.727   1.220   9.891  0.0132  0.1783 -0.2378
  115loPI   C5A 1835   4.649   1.267   9.477 -0.1466 -0.2484 -0.2558
  115loPI   C6A 1836   4.540   1.316   9.178  0.0136  0.1018  0.1010
  115loPI   C1B 1837   3.877   1.495  10.685  0.0352  0.2557  0.2880
  115loPI   C2B 1838   3.810   1.591  10.260  0.1501  0.0507  0.0190
  115loPI   C3B 1839   3.924   1.585   9.819 -0.0077  0.0494 -0.2139
  115loPI   C4B 1840   3.860   1.599   9.371 -0.2340  0.2361 -0.0159
  116loPI    C1 1841   5.006  13.200  11.657  0.1046 -0.0052  0.0453
  116loPI    C2 1842   4.741  13.154  11.953  0.2349 -0.0151  0.1617
  116loPI    C3 1843   5.125  13.223  12.038  0.2296  0.2363 -0.0065
  116loPI   PO4 1844   5.012  13.034  11.469  0.0813  0.2491 -0.0626
  116loPI   GL1 1845   4.729  12.992  11.107  0.0904  0.2235  0.1714
  116loPI   GL2 1846   4.517  13.118  10.765 -0.0225 -0.0674  0.0564
  116loPI   C1A 1847   4.887  12.632  10.821 -0.1276 -0.2693 -0.3123
  116loPI   C2A 1848   4.781  12.674  10.372  0.0904  0.1053 -0.0547
  116loPI   C3A 1849   4.812  12.717   9.917 -0.1970 -0.1381 -0.1924
  116loPI   C4A 1850   4.841  12.639   9.537 -0.2588  0.2393 -0.0362
  116loPI   C5A 1851   5.014  12.855   9.213 -0.1689 -0.1074  0.2397
  116loPI   C6A 1852   5.459  12.891   9.015 -0.0582  0.3623 -0.0318
  116loPI   C1B 1853   4.579  13.097  10.321 -0.2752  0.0482 -0.0236
  116loPI   C2B 1854   4.561  13.192   9.933 -0.0365 -0.0206  0.0781
  116loPI   C3B 1855   4.589  13.167   9.477  0.0393 -0.0269 -0.1814
  116loPI   C4B 1856   4.202  13.161   9.169  0.0892  0.1063  0.0680
  117loPI    C1 1857   0.618  10.795  11.830  0.1500  0.1296  0.0349
  117loPI    C2 1858   0.528  11.006  12.158  0.0582  0.0769  0.0438
  117loPI    C3 1859   0.739  10.667  12.189 -0.2539 -0.1169  0.0890
  117loPI   PO4 1860   0.433  10.829  11.741  0.0808  0.0344  0.0154
  117loPI   GL1 1861   0.540  10.856  11.308  0.0688  0.1829  0.1934
  117loPI   GL2 1862   0.517  10.653  11.043 -0.3270  0.0445  0.3703
  117loPI   C1A 1863   0.294  11.080  11.012  0.1444  0.4136  0.1331
  117loPI   C2A 1864   0.292  11.160  10.531  0.0103  0.4018 -0.2596
  117loPI   C3A 1865   0.276  11.148  10.136  0.2531  0.1108  0.2975
  117loPI   C4A 1866   0.249  11.053   9.697  0.0646  0.3444 -0.1216
  117loPI   C5A 1867   0.513  11.035   9.275 -0.0969 -0.1415 -0.0232
  117loPI   C6A 1868   0.951  10.915   9.164  0.0337  0.0806 -0.0446
  117loPI   C1B 1869   0.493  10.716  10.555 -0.0857  0.5160 -0.2568
  117loPI   C2B 1870   0.557  10.705  10.063 -0.0857 -0.0195  0.0257
  117loPI   C3B 1871   0.725  10.737   9.657  0.1146  0.2773 -0.2067
  117loPI   C4B 1872   1.161  10.834   9.625 -0.0641 -0.0326  0.0936
  118loPI    C1 1873  11.547   0.151  11.324  0.1252  0.1697 -0.0549
  118loPI    C2 1874  11.306   0.293  11.610 -0.0125 -0.1033 -0.0331
  118loPI    C3 1875  11.690   0.216  11.692  0.0457  0.1826 -0.0262
  118loPI   PO4 1876  11.372   0.013  11.180  0.0392  0.1187 -0.4250
  118loPI   GL1 1877  11.401  -0.150  10.826  0.0613 -0.0543  0.1640
  118loPI   GL2 1878  11.335  -0.467  10.885  0.0057  0.4467 -0.1146
  118loPI   C1A 1879  11.499  -0.018  10.406  0.0234 -0.0690 -0.1872
  118loPI   C2A 1880  11.543  -0.090  10.020  0.4004  0.2666 -0.0305
  118loPI   C3A 1881  11.624  -0.134   9.608 -0.0570 -0.3358 -0.2798
  118loPI   C4A 1882  11.574  -0.257   9.206  0.0050  0.3023 -0.2103
  118loPI   C5A 1883  11.740  -0.464   8.753 -0.2571 -0.0936 -0.0557
  118loPI   C6A 1884  11.886  -0.861   8.537  0.1923  0.1333  0.0826
  118loPI   C1B 1885  11.283  -0.493  10.383  0.1117  0.0833  0.2550
  118loPI   C2B 1886  11.358  -0.595   9.897 -0.0602 -0.2258  0.1358
  118loPI   C3B 1887  11.439  -0.698   9.454 -0.2717 -0.0056  0.2208
  118loPI   C4B 1888  11.255  -0.733   9.113  0.2418  0.1214 -0.0249
  119loPI    C1 1889   9.611   1.035  11.370 -0.0189 -0.1303  0.1364
  119loPI    C2 1890   9.942   1.232  11.478  0.0198 -0.1881  0.1245
  119loPI    C3 1891   9.630   1.212  11.728 -0.0506  0.0351  0.0574
  119loPI   PO4 1892   9.549   1.145  11.152  0.2877 -0.2083  0.1595
  119loPI   GL1 1893   9.505   0.903  10.869 -0.1167 -0.0105  0.1952
  119loPI   GL2 1894   9.380   0.657  10.835 -0.0533  0.1311  0.0269
  119loPI   C1A 1895   9.522   1.075  10.386  0.1244  0.0935  0.0210
  119loPI   C2A 1896   9.571   0.985   9.987 -0.0316  0.0890  0.0561
  119loPI   C3A 1897   9.525   0.941   9.512 -0.2820 -0.1624  0.0378
  119loPI   C4A 1898   9.668   1.011   9.130 -0.0442  0.1372  0.2310
  119loPI   C5A 1899  10.005   0.992   8.726  0.1989 -0.2490 -0.2285
  119loPI   C6A 1900  10.243   0.737   8.485  0.2782  0.1497 -0.1981
  119loPI   C1B 1901   9.365   0.583  10.467 -0.1211  0.0768  0.2587
  119loPI   C2B 1902   9.372   0.496   9.987  0.2002  0.2069  0.2586
  119loPI   C3B 1903   9.372   0.446   9.575 -0.3194 -0.1714 -0.1067
  119loPI   C4B 1904   9.397   0.376   9.155  0.0465 -0.1837  0.0338
  120loPI    C1 1905   7.159   4.513  11.690 -0.1497 -0.1626 -0.0446
  120loPI    C2 1906   7.096   4.893  11.798  0.0073 -0.1777  0.1032
  120loPI    C3 1907   6.808   4.620  11.850 -0.1551 -0.0538 -0.1280
  120loPI   PO4 1908   7.280   4.495  11.501 -0.1753  0.0369  0.0949
  120loPI   GL1 1909   7.336   4.596  11.179  0.4484  0.0207 -0.0187
  120loPI   GL2 1910   7.146   4.819  10.939  0.0321  0.0627  0.0474
  120loPI   C1A 1911   7.375   4.352  10.827 -0.1390  0.1200 -0.0594
  120loPI   C2A 1912   7.424   4.342  10.329 -0.1148 -0.5427 -0.1452
  120loPI   C3A 1913   7.444   4.378   9.877  0.0830 -0.0827 -0.2619
  120loPI   C4A 1914   7.348   4.380   9.436 -0.2218  0.1551  0.0411
  120loPI   C5A 1915   7.371   4.489   9.062 -0.4303  0.3329  0.0393
  120loPI   C6A 1916   7.609   4.498   8.775 -0.0442 -0.1243  0.0895
  120loPI   C1B 1917   7.055   4.698  10.513 -0.0499 -0.1205 -0.0983
  120loPI   C2B 1918   7.148   4.727  10.160 -0.1618 -0.2677  0.0086
  120loPI   C3B 1919   7.138   4.721   9.783 -0.0910 -0.1543 -0.1436
  120loPI   C4B 1920   7.074   4.767   9.403 -0.0658  0.2985  0.1254
  121loPI    C1 1921   7.000   6.446  11.706 -0.1997 -0.0485  0.0305
  121loPI    C2 1922   6.713   6.715  11.636 -0.3290 -0.1670  0.1002
  121loPI    C3 1923   6.771   6.576  12.007 -0.0842 -0.0355  0.1134
  121loPI   PO4 1924   6.972   6.285  11.594  0.0601  0.0170  0.1886
  121loPI   GL1 1925   6.919   6.320  11.135 -0.2417  0.1513  0.4616
  121loPI   GL2 1926   6.743   6.538  11.158  0.1093  0.1780 -0.1355
  121loPI   C1A 1927   7.067   6.272  10.770  0.1477 -0.1042 -0.0527
  121loPI   C2A 1928   7.104   6.269  10.374 -0.2294 -0.1840  0.0327
  121loPI   C3A 1929   7.062   6.077   9.979  0.0315  0.1247 -0.1455
  121loPI   C4A 1930   7.149   6.179   9.550 -0.0142 -0.0709  0.1484
  121loPI   C5A 1931   7.204   6.287   9.071 -0.2893  0.0908  0.1125
  121loPI   C6A 1932   7.548   6.173   8.762 -0.1496 -0.1399  0.1274
  121loPI   C1B 1933   6.790   6.671  10.773  0.0590 -0.1553  0.1487
  121loPI   C2B 1934   6.823   6.702  10.313  0.3599 -0.0395  0.3515
  121loPI   C3B 1935   6.862   6.580   9.904  0.1275  0.2656 -0.0879
  121loPI   C4B 1936   6.923   6.647   9.496  0.1912  0.2490 -0.1259
  122loPI    C1 1937   9.426   8.445  11.466  0.0033 -0.0811 -0.2660
  122loPI    C2 1938   9.520   8.156  11.727 -0.0805 -0.0827 -0.2372
  122loPI    C3 1939   9.302   8.469  11.846  0.0946  0.0433 -0.2434
  122loPI   PO4 1940   9.355   8.305  11.287  0.0341 -0.2901  0.1562
  122loPI   GL1 1941   9.260   8.353  10.857  0.0088 -0.1136 -0.1176
  122loPI   GL2 1942   9.492   8.239  10.717 -0.4018 -0.0426  0.1233
  122loPI   C1A 1943   8.964   8.203  10.611 -0.2271 -0.0732 -0.0861
  122loPI   C2A 1944   8.903   8.250  10.135 -0.0063  0.1994 -0.1439
  122loPI   C3A 1945   8.862   8.252   9.835  0.1406  0.0523 -0.2431
  122loPI   C4A 1946   8.821   8.277   9.344  0.1856 -0.2267 -0.4174
  122loPI   C5A 1947   8.719   8.480   8.926 -0.0165  0.0606 -0.0512
  122loPI   C6A 1948   8.530   8.806   8.903 -0.1407 -0.1177 -0.2600
  122loPI   C1B 1949   9.474   8.268  10.393  0.2319 -0.2559  0.0205
  122loPI   C2B 1950   9.397   8.424   9.956 -0.1112 -0.1233  0.1193
  122loPI   C3B 1951   9.331   8.395   9.564  0.1783  0.4211 -0.1092
  122loPI   C4B 1952   9.212   8.208   9.105  0.4279 -0.1042 -0.1387
  123loPI    C1 1953   2.814  12.150  11.807 -0.1013 -0.0087 -0.1249
  123loPI    C2 1954   2.573  12.337  12.065 -0.0283 -0.1344  0.0364
  123loPI    C3 1955   2.968  12.331  12.128 -0.0354 -0.3970  0.0689
  123loPI   PO4 1956   2.692  12.188  11.583  0.2579 -0.1467 -0.0055
  123loPI   GL1 1957   2.878  12.272  11.184  0.2412  0.1485 -0.1981
  123loPI   GL2 1958   2.672  12.545  11.270  0.1359  0.1591 -0.1524
  123loPI   C1A 1959   2.764  12.329  10.795  0.0124 -0.0670  0.1550
  123loPI   C2A 1960   2.859  12.410  10.370  0.2483 -0.2862 -0.1720
  123loPI   C3A 1961   2.792  12.347   9.997  0.2877  0.1289 -0.0770
  123loPI   C4A 1962   2.705  12.351   9.599  0.0890  0.1808  0.2719
  123loPI   C5A 1963   2.775  12.493   9.197 -0.1655  0.0852 -0.1445
  123loPI   C6A 1964   2.980  12.439   8.767  0.1144 -0.0138  0.0704
  123loPI   C1B 1965   2.416  12.712  10.857  0.1007  0.0580 -0.2047
  123loPI   C2B 1966   2.440  12.774  10.343 -0.1181  0.0984  0.0864
  123loPI   C3B 1967   2.456  12.815   9.888  0.1011  0.1479  0.0199
  123loPI   C4B 1968   2.445  12.793   9.472 -0.1593  0.0008  0.4062
  124loPI    C1 1969  10.383  16.842  11.934  0.1065 -0.0878  0.0859
  124loPI    C2 1970  10.237  17.151  12.141  0.0415 -0.1247  0.0952
  124loPI    C3 1971  10.470  16.881  12.322 -0.1514 -0.2483  0.1626
  124loPI   PO4 1972  10.201  16.884  11.715 -0.3608 -0.0785 -0.0873
  124loPI   GL1 1973  10.181  16.857  11.272 -0.0458 -0.1419 -0.1706
  124loPI   GL2 1974  10.037  17.108  11.120  0.0414 -0.1560  0.1214
  124loPI   C1A 1975  10.313  16.815  10.849  0.1089  0.2096  0.0930
  124loPI   C2A 1976  10.344  16.769  10.501 -0.0632 -0.3609 -0.1254
  124loPI   C3A 1977  10.303  16.661  10.034  0.0883 -0.0917 -0.3874
  124loPI   C4A 1978  10.334  16.583   9.541  0.0470 -0.0077  0.0219
  124loPI   C5A 1979  10.258  16.642   9.128 -0.3770  0.0485  0.1561
  124loPI   C6A 1980  10.317  16.593   8.716 -0.1351  0.0058 -0.1404
  124loPI   C1B 1981  10.000  17.120  10.572  0.0986 -0.1294  0.2746
  124loPI   C2B 1982  10.006  17.097  10.112  0.2042 -0.0478 -0.1304
  124loPI   C3B 1983  10.072  17.080   9.666 -0.1779 -0.1620 -0.0969
  124loPI   C4B 1984  10.055  17.129   9.218  0.1863  0.3420  0.3564
  125loPI    C1 1985   3.594   2.869  11.923 -0.1137  0.1176  0.0630
  125loPI    C2 1986   3.306   2.598  11.983  0.0735 -0.1009 -0.0099
  125loPI    C3 1987   3.483   2.774  12.295  0.0239 -0.1400  0.0405
  125loPI   PO4 1988   3.624   2.909  11.761 -0.2027  0.1607  0.0896
  125loPI   GL1 1989   3.565   2.905  11.307  0.0013 -0.1386  0.0828
  125loPI   GL2 1990   3.858   2.962  11.276 -0.1279  0.3547  0.2418
  125loPI   C1A 1991   3.393   2.906  10.886 -0.3184 -0.0757 -0.0899
  125loPI   C2A 1992   3.324   2.858  10.435 -0.2626  0.0085 -0.0991
  125loPI   C3A 1993   3.428   2.902   9.943  0.0356  0.1183 -0.0746
  125loPI   C4A 1994   3.481   2.839   9.443  0.0770  0.2565  0.0977
  125loPI   C5A 1995   3.650   2.988   9.117  0.0803 -0.0129  0.2835
  125loPI   C6A 1996   3.773   3.383   8.985  0.0488  0.1884 -0.3278
  125loPI   C1B 1997   3.861   2.930  10.827  0.1866  0.1062  0.2639
  125loPI   C2B 1998   3.790   2.961  10.484  0.2307  0.2819 -0.1952
  125loPI   C3B 1999   3.951   2.952  10.043 -0.0440 -0.0459 -0.0416
  125loPI   C4B 2000   3.961   2.944   9.552  0.0563 -0.0742 -0.1817
  126loPI    C1 2001  14.614   3.879  11.992  0.2630 -0.0059 -0.0097
  126loPI    C2 2002  14.979   3.784  12.124  0.1713  0.0593  0.2974
  126loPI    C3 2003  14.787   4.101  12.276 -0.0104  0.0305  0.1318
  126loPI   PO4 2004  14.705   3.827  11.684  0.0490  0.0330 -0.1481
  126loPI   GL1 2005  14.578   3.625  11.270 -0.1167  0.2219 -0.0338
  126loPI   GL2 2006  14.901   3.742  11.242 -0.0594 -0.3442  0.0330
  126loPI   C1A 2007  14.313   3.575  10.910  0.2142  0.0605  0.0779
  126loPI   C2A 2008  14.332   3.563  10.430  0.0980 -0.3799 -0.0907
  126loPI   C3A 2009  14.336   3.589  10.003  0.2307  0.1098 -0.3970
  126loPI   C4A 2010  14.277   3.619   9.554 -0.1360  0.3250 -0.1507
  126loPI   C5A 2011  14.378   3.480   9.176 -0.1229 -0.3427  0.0520
  126loPI   C6A 2012  14.308   3.564   8.720 -0.1402 -0.0258  0.1335
  126loPI   C1B 2013  14.820   3.738  10.739  0.0613  0.1904  0.0174
  126loPI   C2B 2014  14.838   3.686  10.318  0.0548 -0.2474  0.0784
  126loPI   C3B 2015  14.775   3.747   9.799 -0.0959  0.1068 -0.3336
  126loPI   C4B 2016  14.827   3.544   9.380  0.1658 -0.0032 -0.1605
  127loPI    C1 2017  16.219   4.943  11.818 -0.0423  0.0853 -0.0684
  127loPI    C2 2018  16.280   4.698  12.129 -0.0074  0.1218 -0.0464
  127loPI    C3 2019  16.140   5.068  12.190 -0.2791  0.0295 -0.0983
  127loPI   PO4 2020  16.173   4.705  11.591 -0.2140  0.3513 -0.0475
  127loPI   GL1 2021  16.251   4.632  11.206 -0.0069 -0.2513 -0.0398
  127loPI   GL2 2022  16.472   4.444  11.004 -0.1215 -0.0866  0.3162
  127loPI   C1A 2023  16.243   4.799  10.785  0.3282 -0.0329 -0.3354
  127loPI   C2A 2024  16.242   4.808  10.349 -0.0555 -0.0789 -0.0372
  127loPI   C3A 2025  16.156   4.818   9.917  0.0221  0.4100 -0.2302
  127loPI   C4A 2026  16.195   4.771   9.506  0.2297 -0.0367  0.0600
  127loPI   C5A 2027  16.031   4.483   9.123 -0.0618  0.0338  0.2443
  127loPI   C6A 2028  15.671   4.444   8.862 -0.3733  0.0868 -0.1877
  127loPI   C1B 2029  16.602   4.531  10.533 -0.0409  0.0948  0.1398
  127loPI   C2B 2030  16.499   4.427  10.114 -0.3561  0.0584  0.2351
  127loPI   C3B 2031  16.553   4.450   9.663 -0.0820  0.1576  0.0661
  127loPI   C4B 2032  16.543   4.525   9.214  0.4757 -0.1754 -0.0879
  128loPI    C1 2033   7.746  15.025  11.700  0.1200  0.0450 -0.0162
  128loPI    C2 2034   8.073  14.920  11.905 -0.0317 -0.0136  0.1997
  128loPI    C3 2035   7.785  14.651  11.838  0.1400 -0.0763 -0.3403
  128loPI   PO4 2036   7.777  15.100  11.546  0.3046 -0.1118 -0.2003
  128loPI   GL1 2037   7.802  15.190  11.111  0.3226 -0.2229  0.1635
  128loPI   GL2 2038   7.839  15.513  10.919  0.0064  0.1219  0.1529
  128loPI   C1A 2039   7.761  14.920  10.738  0.0203  0.0936 -0.5469
  128loPI   C2A 2040   7.607  14.895  10.336  0.4387  0.1011  0.0529
  128loPI   C3A 2041   7.622  14.892   9.921 -0.0229  0.0475 -0.1897
  128loPI   C4A 2042   7.712  14.906   9.500 -0.0627  0.1614 -0.0553
  128loPI   C5A 2043   7.507  15.052   9.079 -0.1776  0.1128  0.1516
  128loPI   C6A 2044   7.188  15.268   8.937  0.3173  0.2433  0.2108
  128loPI   C1B 2045   7.864  15.357  10.492  0.0412  0.1331 -0.0109
  128loPI   C2B 2046   7.801  15.418  10.030 -0.1253  0.1046 -0.1350
  128loPI   C3B 2047   7.845  15.425   9.544  0.0069 -0.1595  0.2687
  128loPI   C4B 2048   8.101  15.336   9.168  0.3136  0.1345 -0.1061
  129loPI    C1 2049   5.206  11.293  11.616 -0.2750  0.1547  0.0680
  129loPI    C2 2050   5.339  11.622  11.800 -0.0932  0.1025  0.0316
  129loPI    C3 2051   5.261  11.292  12.012  0.2242  0.0069  0.0058
  129loPI   PO4 2052   5.288  11.309  11.425  0.0556 -0.1394  0.2901
  129loPI   GL1 2053   5.408  11.548  10.971 -0.1976  0.1151  0.2037
  129loPI   GL2 2054   5.543  11.803  10.949 -0.2808  0.0450  0.1825
  129loPI   C1A 2055   5.312  11.441  10.585 -0.4338  0.1750 -0.1140
  129loPI   C2A 2056   5.314  11.394  10.198 -0.4833 -0.1527  0.1089
  129loPI   C3A 2057   5.315  11.431   9.806  0.0193  0.1556 -0.0780
  129loPI   C4A 2058   5.209  11.426   9.366  0.2437  0.1086  0.4713
  129loPI   C5A 2059   5.152  11.209   8.990 -0.1032 -0.0614  0.0252
  129loPI   C6A 2060   5.443  11.014   8.771 -0.3003 -0.1303 -0.1352
  129loPI   C1B 2061   5.457  11.886  10.480 -0.2123 -0.1448  0.2704
  129loPI   C2B 2062   5.449  11.918  10.009 -0.1727 -0.0434 -0.0478
  129loPI   C3B 2063   5.375  11.911   9.584 -0.0390 -0.3456 -0.0854
  129loPI   C4B 2064   5.452  11.830   9.194  0.0558 -0.1415 -0.0016
  130loPI    C1 2065  16.225  10.031  11.904  0.1188  0.0222 -0.1655
  130loPI    C2 2066  15.948   9.981  12.188  0.0003 -0.0846 -0.2980
  130loPI    C3 2067  16.099   9.663  11.998  0.1971 -0.0251 -0.2440
  130loPI   PO4 2068  16.164  10.219  11.663 -0.0307 -0.2464  0.1608
  130loPI   GL1 2069  16.088  10.247  11.298  0.1439 -0.2714 -0.0590
  130loPI   GL2 2070  15.818  10.459  11.135  0.0875 -0.1126  0.4182
  130loPI   C1A 2071  16.393  10.386  10.896 -0.1607 -0.2291  0.2574
  130loPI   C2A 2072  16.437  10.408  10.423 -0.1415  0.2401  0.1890
  130loPI   C3A 2073  16.472  10.435  10.011 -0.4227 -0.2393 -0.0350
  130loPI   C4A 2074  16.521  10.491   9.543  0.1478  0.0246 -0.2075
  130loPI   C5A 2075  16.609  10.787   9.267  0.0143  0.0646  0.1327
  130loPI   C6A 2076  17.010  10.951   9.071  0.1207 -0.1325  0.2562
  130loPI   C1B 2077  15.922  10.335  10.700 -0.3570 -0.1197 -0.1521
  130loPI   C2B 2078  15.963  10.268  10.253  0.0104 -0.2688  0.0845
  130loPI   C3B 2079  15.901  10.330   9.804 -0.0451  0.1293  0.3577
  130loPI   C4B 2080  15.776  10.170   9.352  0.1449 -0.0926 -0.0021
  131loPI    C1 2081   7.504  11.475  11.604 -0.0224 -0.0757 -0.0128
  131loPI    C2 2082   7.902  11.489  11.644 -0.0388  0.2196  0.0641
  131loPI    C3 2083   7.673  11.384  11.955 -0.0107 -0.1830 -0.0456
  131loPI   PO4 2084   7.487  11.359  11.361  0.0992 -0.1188 -0.0376
  131loPI   GL1 2085   7.308  11.594  10.942  0.0988 -0.1238 -0.0821
  131loPI   GL2 2086   7.223  11.277  10.865  0.1597  0.3383 -0.0574
  131loPI   C1A 2087   7.431  11.666  10.634 -0.1600  0.1101 -0.1777
  131loPI   C2A 2088   7.415  11.735  10.229 -0.0665 -0.1074  0.0443
  131loPI   C3A 2089   7.358  11.666   9.885  0.4533  0.1000 -0.0158
  131loPI   C4A 2090   7.295  11.651   9.396 -0.0641  0.0327 -0.2384
  131loPI   C5A 2091   7.454  11.508   9.071  0.2317 -0.1267 -0.0741
  131loPI   C6A 2092   7.639  11.130   9.022  0.0157  0.1824 -0.4006
  131loPI   C1B 2093   7.206  11.215  10.427  0.0095 -0.4695  0.0511
  131loPI   C2B 2094   7.133  11.177  10.023  0.0372 -0.1299  0.0206
  131loPI   C3B 2095   7.196  11.177   9.465  0.0717  0.1561 -0.0973
  131loPI   C4B 2096   7.060  11.158   9.071 -0.3154 -0.0074 -0.0149
  132loPI    C1 2097  13.448  10.966  11.565 -0.0031 -0.2510  0.0868
  132loPI    C2 2098  13.631  11.312  11.649 -0.1576 -0.1612  0.0583
  132loPI    C3 2099  13.721  10.982  11.857 -0.0109 -0.1041  0.0870
  132loPI   PO4 2100  13.425  10.846  11.261 -0.1210 -0.3009 -0.0046
  132loPI   GL1 2101  13.410  11.005  10.872 -0.0536 -0.1550 -0.1936
  132loPI   GL2 2102  13.528  11.309  10.794  0.0809  0.0428 -0.0072
  132loPI   C1A 2103  13.309  10.768  10.459  0.0952  0.0918 -0.4092
  132loPI   C2A 2104  13.326  10.784  10.047  0.0323 -0.1248 -0.3369
  132loPI   C3A 2105  13.298  10.748   9.589  0.1490 -0.1294  0.0563
  132loPI   C4A 2106  13.292  10.938   9.239 -0.1433  0.0148  0.0807
  132loPI   C5A 2107  13.531  10.951   8.798  0.2109  0.1753  0.1024
  132loPI   C6A 2108  13.705  11.256   8.561  0.0176 -0.2250  0.0100
  132loPI   C1B 2109  13.494  11.259  10.440 -0.0316 -0.1539  0.2633
  132loPI   C2B 2110  13.502  11.312  10.051  0.0341 -0.1387 -0.1108
  132loPI   C3B 2111  13.523  11.252   9.588 -0.0379  0.0059 -0.1910
  132loPI   C4B 2112  13.574  11.299   9.209  0.0882  0.2350  0.2089
  133loPI    C1 2113   7.935   5.151  11.702 -0.0516 -0.2283 -0.1985
  133loPI    C2 2114   7.576   5.291  11.810 -0.0348 -0.3277 -0.0104
  133loPI    C3 2115   7.869   5.262  12.081  0.0807 -0.3551 -0.1375
  133loPI   PO4 2116   7.886   5.173  11.456 -0.0075 -0.0902  0.0667
  133loPI   GL1 2117   7.708   4.922  11.001  0.1120  0.0360 -0.0343
  133loPI   GL2 2118   7.520   5.195  11.001  0.2326  0.0298  0.2293
  133loPI   C1A 2119   7.561   4.821  10.617 -0.5862 -0.1782 -0.1211
  133loPI   C2A 2120   7.648   4.864  10.168  0.1415  0.0492  0.2071
  133loPI   C3A 2121   7.686   4.818   9.749  0.0376 -0.0855  0.1927
  133loPI   C4A 2122   7.569   4.822   9.368 -0.0469 -0.0075 -0.0056
  133loPI   C5A 2123   7.437   5.128   9.123 -0.2245 -0.0242  0.2236
  133loPI   C6A 2124   7.324   5.274   8.690  0.1236 -0.1261  0.2268
  133loPI   C1B 2125   7.616   5.458  10.606 -0.0890  0.0210 -0.1034
  133loPI   C2B 2126   7.748   5.435  10.179  0.0144  0.1722  0.0290
  133loPI   C3B 2127   7.822   5.337   9.700 -0.1727  0.0389 -0.2636
  133loPI   C4B 2128   7.850   5.289   9.389 -0.0524 -0.2267  0.2637
  134loPI    C1 2129   7.166  13.672  11.777 -0.2137 -0.1608  0.0578
  134loPI    C2 2130   7.514  13.799  11.928 -0.2040 -0.0707 -0.0393
  134loPI    C3 2131   7.316  13.499  12.105 -0.1294 -0.0518  0.0770
  134loPI   PO4 2132   7.126  13.776  11.577 -0.0578 -0.2963 -0.0728
  134loPI   GL1 2133   7.085  13.779  11.118  0.2838 -0.0391  0.0244
  134loPI   GL2 2134   7.401  13.797  10.996  0.2241  0.3035 -0.2289
  134loPI   C1A 2135   6.836  13.892  10.815 -0.2756 -0.1697  0.0723
  134loPI   C2A 2136   6.842  13.880  10.397  0.0079 -0.2127  0.1117
  134loPI   C3A 2137   6.726  13.893   9.921 -0.1591 -0.1584 -0.1270
  134loPI   C4A 2138   6.834  13.879   9.421 -0.0723  0.3443 -0.0146
  134loPI   C5A 2139   6.811  13.907   8.996  0.1666  0.0488 -0.0716
  134loPI   C6A 2140   6.740  13.693   8.650 -0.0723 -0.4016 -0.0950
  134loPI   C1B 2141   7.306  13.946  10.657 -0.0616 -0.1635 -0.1513
  134loPI   C2B 2142   7.341  13.967  10.217  0.2778  0.0374  0.1321
  134loPI   C3B 2143   7.203  13.982   9.793  0.0278 -0.1669  0.1922
  134loPI   C4B 2144   7.291  14.039   9.371 -0.0142  0.1761  0.2345
  135loPI    C1 2145  10.761  16.154  11.817  0.0107 -0.1810  0.0758
  135loPI    C2 2146  10.568  15.956  12.107  0.2244  0.0593  0.3890
  135loPI    C3 2147  10.510  16.349  12.060 -0.0064 -0.0223 -0.0676
  135loPI   PO4 2148  10.717  16.043  11.610  0.2248 -0.0003 -0.0326
  135loPI   GL1 2149  10.689  16.004  11.188  0.2377 -0.1246 -0.3637
  135loPI   GL2 2150  10.901  15.955  11.048 -0.2050 -0.1895 -0.2527
  135loPI   C1A 2151  10.586  16.367  10.832  0.0565  0.0466 -0.0868
  135loPI   C2A 2152  10.642  16.305  10.356 -0.1912 -0.0685  0.4373
  135loPI   C3A 2153  10.657  16.288   9.912 -0.1949 -0.2405 -0.4047
  135loPI   C4A 2154  10.616  16.179   9.476 -0.0296 -0.1986 -0.2037
  135loPI   C5A 2155  10.504  16.250   8.994 -0.0063 -0.1318  0.3431
  135loPI   C6A 2156  10.458  16.062   8.605  0.0746  0.0912  0.1725
  135loPI   C1B 2157  10.917  15.895  10.728  0.2344 -0.1642 -0.0004
  135loPI   C2B 2158  10.903  15.913  10.315  0.0541  0.1648 -0.2112
  135loPI   C3B 2159  10.956  15.825   9.772  0.0480  0.0011 -0.4991
  135loPI   C4B 2160  10.926  15.740   9.308 -0.0461 -0.0051  0.1371
  136loPI    C1 2161  15.285   0.841  11.729  0.1996  0.2784 -0.1039
  136loPI    C2 2162  14.939   0.752  11.910  0.1945  0.1629 -0.1696
  136loPI    C3 2163  15.281   0.749  12.118  0.1901  0.0198 -0.1637
  136loPI   PO4 2164  15.255   0.713  11.519  0.1538 -0.0520  0.0978
  136loPI   GL1 2165  15.223   0.731  11.130 -0.2536  0.1972  0.0148
  136loPI   GL2 2166  15.031   1.006  11.031  0.4157  0.0830 -0.2696
  136loPI   C1A 2167  15.174   0.604  10.692 -0.2899  0.2563  0.2898
  136loPI   C2A 2168  15.133   0.600  10.272 -0.5260  0.0304  0.0631
  136loPI   C3A 2169  15.185   0.572   9.761 -0.1844  0.1930  0.2806
  136loPI   C4A 2170  15.230   0.421   9.299 -0.3150 -0.1732 -0.1040
  136loPI   C5A 2171  15.189   0.148   8.973  0.1063  0.0032 -0.0633
  136loPI   C6A 2172  15.437   0.097   8.705 -0.2601  0.0520 -0.0790
  136loPI   C1B 2173  14.835   0.948  10.672 -0.2112  0.3903 -0.2141
  136loPI   C2B 2174  14.761   1.042  10.373  0.4064  0.0535  0.1757
  136loPI   C3B 2175  14.752   0.859   9.953 -0.0695  0.1077 -0.3401
  136loPI   C4B 2176  14.778   0.982   9.495 -0.1726 -0.0499  0.1556
  137loPI    C1 2177   0.753  13.919  12.245  0.0543  0.2791  0.0608
  137loPI    C2 2178   1.075  13.747  12.408  0.0504  0.0911 -0.1247
  137loPI    C3 2179   0.732  13.762  12.613  0.1240  0.1196 -0.0022
  137loPI   PO4 2180   0.751  13.797  11.967  0.3264  0.0269 -0.2709
  137loPI   GL1 2181   0.620  13.816  11.565  0.2490  0.0699 -0.3519
  137loPI   GL2 2182   0.191  13.707  11.543  0.0278  0.3015 -0.1875
  137loPI   C1A 2183   0.569  13.829  11.131  0.2931  0.1306 -0.1463
  137loPI   C2A 2184   0.476  13.749  10.683 -0.3429  0.1114 -0.0190
  137loPI   C3A 2185   0.378  13.780  10.280 -0.2556 -0.2721 -0.1778
  137loPI   C4A 2186   0.463  13.763   9.853 -0.3412  0.0676  0.0154
  137loPI   C5A 2187   0.378  13.718   9.468 -0.1014  0.0427 -0.2787
  137loPI   C6A 2188   0.624  13.627   9.198  0.1016 -0.0014  0.2800
  137loPI   C1B 2189  -0.126  13.708  11.155  0.0345 -0.0509  0.2454
  137loPI   C2B 2190  -0.147  13.677  10.848  0.0676  0.0196  0.2069
  137loPI   C3B 2191  -0.079  13.604  10.403 -0.1945  0.1143 -0.0803
  137loPI   C4B 2192  -0.009  13.657   9.977 -0.0407  0.3992 -0.1223
  138loPI    C1 2193  14.479   0.427  12.077  0.0405 -0.1067  0.0975
  138loPI    C2 2194  14.392   0.561  12.444  0.0439  0.0161  0.0539
  138loPI    C3 2195  14.151   0.297  12.265  0.0657 -0.0778  0.1618
  138loPI   PO4 2196  14.465   0.592  11.865 -0.0369 -0.2685  0.3403
  138loPI   GL1 2197  14.382   0.463  11.488 -0.0211 -0.1577 -0.0203
  138loPI   GL2 2198  14.375   0.294  11.215  0.3405 -0.3003 -0.2519
  138loPI   C1A 2199  14.389   0.833  11.095  0.0067  0.1494  0.0160
  138loPI   C2A 2200  14.233   0.908  10.590  0.0161 -0.1231  0.1905
  138loPI   C3A 2201  14.177   0.882  10.202 -0.1013 -0.2878  0.1438
  138loPI   C4A 2202  14.257   0.864   9.755  0.0172 -0.5080 -0.1747
  138loPI   C5A 2203  14.268   0.770   9.352 -0.0180  0.2602  0.0557
  138loPI   C6A 2204  13.983   0.645   9.034 -0.2112  0.1642 -0.2128
  138loPI   C1B 2205  14.332   0.020  10.837  0.0361 -0.2341 -0.0926
  138loPI   C2B 2206  14.399  -0.132  10.556  0.1125  0.0061  0.1639
  138loPI   C3B 2207  14.328  -0.044  10.129 -0.1680  0.0253 -0.2425
  138loPI   C4B 2208  14.425  -0.112   9.702  0.0304  0.0222  0.1005
  139loPI    C1 2209   0.876   9.970  11.518 -0.1016 -0.0361  0.1890
  139loPI    C2 2210   1.234  10.146  11.487 -0.0593 -0.1158  0.2244
  139loPI    C3 2211   1.171   9.869  11.768 -0.1029 -0.2120  0.1206
  139loPI   PO4 2212   0.837   9.873  11.361  0.1617 -0.0112 -0.1128
  139loPI   GL1 2213   0.811   9.651  11.032 -0.0214  0.0761  0.1065
  139loPI   GL2 2214   0.997   9.405  10.945 -0.1065  0.0492  0.0232
  139loPI   C1A 2215   0.700   9.914  10.608 -0.3932  0.1891 -0.0516
  139loPI   C2A 2216   0.721   9.848  10.135  0.0646 -0.3087  0.0390
  139loPI   C3A 2217   0.793   9.788   9.766 -0.1406 -0.2695  0.1197
  139loPI   C4A 2218   0.980   9.709   9.373 -0.1965 -0.0628  0.0884
  139loPI   C5A 2219   1.133   9.605   8.959 -0.0475 -0.1777 -0.1103
  139loPI   C6A 2220   1.460   9.303   8.973  0.0197 -0.0866 -0.0910
  139loPI   C1B 2221   1.035   9.525  10.616 -0.0793  0.2952 -0.3171
  139loPI   C2B 2222   1.172   9.494  10.098 -0.2996 -0.1260 -0.1184
  139loPI   C3B 2223   1.164   9.338   9.717 -0.2732  0.2716  0.1329
  139loPI   C4B 2224   1.046   9.158   9.323 -0.0330 -0.1336 -0.0165
  140loPI    C1 2225   1.272   5.115  11.671  0.0032 -0.0679 -0.0384
  140loPI    C2 2226   1.445   4.810  11.861 -0.1528 -0.1974 -0.1016
  140loPI    C3 2227   1.315   5.127  12.068  0.0936 -0.1302 -0.0463
  140loPI   PO4 2228   1.128   4.978  11.501 -0.2615 -0.2483 -0.2289
  140loPI   GL1 2229   1.038   5.050  11.059  0.0404  0.0979  0.0267
  140loPI   GL2 2230   0.870   4.721  11.065  0.1227  0.0351  0.1419
  140loPI   C1A 2231   0.886   5.186  10.648 -0.0179  0.0963 -0.1801
  140loPI   C2A 2232   0.813   5.277  10.199  0.0986 -0.0039 -0.2023
  140loPI   C3A 2233   0.901   5.086   9.786  0.3494  0.0995  0.1720
  140loPI   C4A 2234   0.862   5.276   9.378 -0.0933  0.0842  0.2597
  140loPI   C5A 2235   0.865   5.308   8.958 -0.1014  0.2826 -0.0097
  140loPI   C6A 2236   0.727   5.598   8.612  0.1026 -0.1017 -0.0419
  140loPI   C1B 2237   0.839   4.721  10.708 -0.1315  0.0318  0.0185
  140loPI   C2B 2238   0.789   4.766  10.281  0.0861  0.1667 -0.1379
  140loPI   C3B 2239   0.624   4.662   9.805 -0.0228 -0.2334  0.1670
  140loPI   C4B 2240   0.758   4.751   9.369  0.3423 -0.0223  0.2037
  141loPI    C1 2241   8.147   8.195  11.917 -0.2029 -0.0362  0.0042
  141loPI    C2 2242   8.116   8.122  12.309 -0.0800  0.1674  0.0533
  141loPI    C3 2243   7.801   8.067  12.070 -0.1504  0.0254  0.1773
  141loPI   PO4 2244   8.384   8.068  11.811 -0.1901  0.0960 -0.2568
  141loPI   GL1 2245   8.494   7.943  11.505 -0.1860 -0.2919  0.0427
  141loPI   GL2 2246   8.631   7.700  11.287 -0.3801 -0.2684 -0.1415
  141loPI   C1A 2247   8.500   8.078  10.996 -0.0061  0.3010 -0.0274
  141loPI   C2A 2248   8.299   8.132  10.616 -0.1848 -0.0475  0.1153
  141loPI   C3A 2249   8.378   8.161  10.159  0.0088  0.1588  0.0471
  141loPI   C4A 2250   8.430   8.089   9.708 -0.1980 -0.2365 -0.0841
  141loPI   C5A 2251   8.347   8.291   9.314  0.3131 -0.0092 -0.0695
  141loPI   C6A 2252   8.335   8.244   8.862  0.0939 -0.1080  0.1216
  141loPI   C1B 2253   8.680   7.674  10.869 -0.1209 -0.1529  0.1044
  141loPI   C2B 2254   8.750   7.745  10.483  0.0964  0.3081 -0.1114
  141loPI   C3B 2255   8.640   7.736  10.120  0.0581 -0.0774  0.0308
  141loPI   C4B 2256   8.665   7.707   9.575  0.1915 -0.1348 -0.2097
  142loPI    C1 2257   1.682   7.456  11.857 -0.0177 -0.2399 -0.0521
  142loPI    C2 2258   1.292   7.474  11.945 -0.0152 -0.0865 -0.0693
  142loPI    C3 2259   1.565   7.502  12.236 -0.0081  0.3605 -0.1114
  142loPI   PO4 2260   1.684   7.314  11.632 -0.0713 -0.0259 -0.3152
  142loPI   GL1 2261   1.910   7.340  11.128  0.0708  0.0904 -0.1546
  142loPI   GL2 2262   1.629   7.221  11.145  0.0178  0.1235  0.1412
  142loPI   C1A 2263   1.901   7.633  10.696 -0.0168  0.0458 -0.1247
  142loPI   C2A 2264   1.845   7.596  10.282 -0.0578 -0.5444 -0.0231
  142loPI   C3A 2265   1.819   7.603   9.905 -0.1204  0.2197  0.1409
  142loPI   C4A 2266   1.851   7.772   9.552  0.1185  0.1038 -0.2256
  142loPI   C5A 2267   1.857   7.951   9.094 -0.0322 -0.0727 -0.2772
  142loPI   C6A 2268   2.128   8.103   8.809 -0.0983  0.2501  0.1903
  142loPI   C1B 2269   1.660   7.090  10.718 -0.2818  0.0157  0.1004
  142loPI   C2B 2270   1.676   7.044  10.407  0.1877  0.1878 -0.2304
  142loPI   C3B 2271   1.614   7.106   9.957 -0.0034 -0.0167 -0.0401
  142loPI   C4B 2272   1.677   7.249   9.530  0.0306 -0.2325 -0.0689
  143loPI    C1 2273   0.278   1.929  12.094  0.1622  0.1595 -0.1529
  143loPI    C2 2274   0.546   1.997  12.384  0.0966 -0.0990 -0.0288
  143loPI    C3 2275   0.272   2.274  12.296  0.1786  0.0206  0.0892
  143loPI   PO4 2276   0.481   1.819  11.907  0.0920 -0.1349 -0.1888
  143loPI   GL1 2277   0.434   1.676  11.378  0.1275  0.0797 -0.1694
  143loPI   GL2 2278   0.557   1.422  11.276 -0.0649 -0.1055 -0.1094
  143loPI   C1A 2279   0.521   1.850  10.984 -0.0016  0.2550  0.0355
  143loPI   C2A 2280   0.650   1.912  10.565 -0.1758  0.0089  0.0929
  143loPI   C3A 2281   0.652   1.899  10.154 -0.2770 -0.1917  0.0017
  143loPI   C4A 2282   0.592   2.005   9.728 -0.1116  0.1393 -0.0875
  143loPI   C5A 2283   0.695   1.956   9.253  0.1786 -0.1481 -0.0654
  143loPI   C6A 2284   1.121   1.781   9.074  0.2170 -0.1717  0.1762
  143loPI   C1B 2285   0.484   1.406  10.841  0.5150  0.0486 -0.1159
  143loPI   C2B 2286   0.508   1.429  10.370 -0.0434 -0.3314  0.2524
  143loPI   C3B 2287   0.385   1.395   9.969  0.2170 -0.3225 -0.1577
  143loPI   C4B 2288   0.430   1.320   9.485  0.2107 -0.0676 -0.0743
  144loPI    C1 2289  12.459  16.890  11.769 -0.0521  0.2149  0.0665
  144loPI    C2 2290  12.757  16.783  11.524 -0.2934  0.0838 -0.1744
  144loPI    C3 2291  12.770  16.680  11.910  0.0165  0.1600 -0.1618
  144loPI   PO4 2292  12.272  16.935  11.551  0.2412  0.1667 -0.1686
  144loPI   GL1 2293  12.309  16.873  11.094  0.0730  0.1921  0.2475
  144loPI   GL2 2294  12.531  16.942  11.159  0.1162 -0.1690 -0.1164
  144loPI   C1A 2295  12.284  17.014  10.643 -0.0122 -0.3865 -0.1570
  144loPI   C2A 2296  12.315  17.121  10.171 -0.0456  0.3395  0.2896
  144loPI   C3A 2297  12.388  17.018   9.808  0.1294 -0.0100  0.1533
  144loPI   C4A 2298  12.448  16.881   9.377 -0.1111  0.2322 -0.0875
  144loPI   C5A 2299  12.745  16.825   9.074 -0.0726  0.1686  0.0081
  144loPI   C6A 2300  12.897  16.424   8.854  0.1010 -0.2855  0.0004
  144loPI   C1B 2301  12.742  17.140  10.776  0.0830  0.0604  0.0028
  144loPI   C2B 2302  12.751  17.128  10.298  0.0965 -0.0639 -0.1898
  144loPI   C3B 2303  12.922  17.015   9.877  0.0727 -0.2393  0.2524
  144loPI   C4B 2304  12.960  16.981   9.548 -0.0647  0.0328  0.0637
  145loPI    C1 2305   5.744  11.216  11.782 -0.1946 -0.1872  0.1111
  145loPI    C2 2306   5.762  11.506  12.057  0.2669 -0.0666 -0.0376
  145loPI    C3 2307   5.697  11.128  12.169 -0.2994  0.0799  0.1615
  145loPI   PO4 2308   6.019  11.200  11.525  0.1131 -0.0447 -0.0849
  145loPI   GL1 2309   6.128  10.998  11.079 -0.1855 -0.2129  0.1748
  145loPI   GL2 2310   6.328  10.657  11.169 -0.0130  0.0326 -0.1672
  145loPI   C1A 2311   6.149  10.989  10.725 -0.2812 -0.1781  0.0019
  145loPI   C2A 2312   6.230  11.073  10.407 -0.0064  0.0190 -0.0939
  145loPI   C3A 2313   6.119  11.007   9.898 -0.0725  0.1832 -0.1161
  145loPI   C4A 2314   6.074  11.026   9.508 -0.1433 -0.0015 -0.0923
  145loPI   C5A 2315   6.214  11.016   9.076 -0.3300  0.0024  0.0046
  145loPI   C6A 2316   6.597  10.786   8.806  0.2046 -0.1304 -0.0871
  145loPI   C1B 2317   6.349  10.547  10.708 -0.2306  0.0889 -0.2254
  145loPI   C2B 2318   6.459  10.612  10.401  0.1047  0.2130  0.0819
  145loPI   C3B 2319   6.504  10.626   9.939  0.0394 -0.1206  0.2555
  145loPI   C4B 2320   6.503  10.676   9.515  0.0274 -0.1249  0.0987
  146loPI    C1 2321   6.783  10.927  11.727  0.0378 -0.0779 -0.0053
  146loPI    C2 2322   7.011  10.601  11.771 -0.0685 -0.1414  0.0806
  146loPI    C3 2323   7.004  10.881  12.057  0.1119 -0.0065 -0.0446
  146loPI   PO4 2324   6.717  10.880  11.447  0.0462  0.0962  0.0232
  146loPI   GL1 2325   6.783  10.850  11.018 -0.1605  0.1533  0.1668
  146loPI   GL2 2326   6.590  11.073  10.902  0.0164 -0.1482  0.4067
  146loPI   C1A 2327   6.939  10.781  10.591  0.0818  0.0631 -0.2983
  146loPI   C2A 2328   6.946  10.745  10.210 -0.0255 -0.0248 -0.2248
  146loPI   C3A 2329   6.915  10.752   9.750  0.0700 -0.0470  0.2831
  146loPI   C4A 2330   6.959  10.721   9.297 -0.2994 -0.3559 -0.1904
  146loPI   C5A 2331   7.236  10.580   9.001  0.1061 -0.1087  0.1578
  146loPI   C6A 2332   7.303  10.269   8.631  0.2421 -0.1225 -0.0554
  146loPI   C1B 2333   6.701  11.186  10.510  0.1327 -0.2466 -0.0591
  146loPI   C2B 2334   6.661  11.148  10.116 -0.1457  0.1284 -0.0099
  146loPI   C3B 2335   6.578  11.136   9.718  0.1247  0.1196  0.2462
  146loPI   C4B 2336   6.655  11.154   9.338  0.1364 -0.0052 -0.1085
  147loPI    C1 2337   5.034   5.370  11.689  0.0783 -0.0224  0.0984
  147loPI    C2 2338   4.888   5.672  11.907 -0.1749  0.0818 -0.2073
  147loPI    C3 2339   5.062   5.360  12.087 -0.3821  0.1625  0.1417
  147loPI   PO4 2340   4.989   5.469  11.401 -0.0181 -0.0496 -0.1629
  147loPI   GL1 2341   5.170   5.795  11.162  0.3197 -0.0135 -0.0014
  147loPI   GL2 2342   5.220   5.455  10.985  0.2132 -0.0088 -0.1889
  147loPI   C1A 2343   5.086   5.871  10.725  0.0751  0.1002 -0.0214
  147loPI   C2A 2344   4.930   5.876  10.388 -0.0004 -0.1923  0.1526
  147loPI   C3A 2345   5.006   5.900   9.983  0.1585 -0.0742 -0.1615
  147loPI   C4A 2346   5.130   5.871   9.599  0.1258  0.0471  0.2254
  147loPI   C5A 2347   5.166   6.046   9.172 -0.4213 -0.0873 -0.0259
  147loPI   C6A 2348   5.488   6.278   8.922  0.0871 -0.1805 -0.2243
  147loPI   C1B 2349   5.298   5.454  10.515 -0.0621  0.0261 -0.1387
  147loPI   C2B 2350   5.435   5.353  10.123 -0.1052  0.3176 -0.1762
  147loPI   C3B 2351   5.359   5.396   9.624 -0.2601 -0.1000  0.0103
  147loPI   C4B 2352   5.255   5.514   9.255 -0.0302  0.0157  0.0269
  148loPI    C1 2353   4.535  17.165  11.762  0.0623 -0.1364  0.0852
  148loPI    C2 2354   4.576  17.332  12.123  0.0684 -0.1983  0.1134
  148loPI    C3 2355   4.239  17.138  12.029 -0.0427  0.0496 -0.0103
  148loPI   PO4 2356   4.518  17.413  11.500  0.0927 -0.0067 -0.1545
  148loPI   GL1 2357   4.332  17.600  11.130 -0.0310 -0.0858 -0.0422
  148loPI   GL2 2358   4.703  17.409  10.994  0.2553 -0.3475 -0.1020
  148loPI   C1A 2359   4.317  17.597  10.662 -0.0029 -0.0763  0.0169
  148loPI   C2A 2360   4.314  17.718  10.252 -0.2094  0.2512  0.2551
  148loPI   C3A 2361   4.283  17.694   9.835 -0.3383  0.4365  0.0521
  148loPI   C4A 2362   4.319  17.747   9.454  0.2354 -0.0682  0.0136
  148loPI   C5A 2363   4.438  17.723   9.049 -0.1204 -0.2408 -0.0451
  148loPI   C6A 2364   4.245  17.699   8.646  0.0693  0.2404 -0.1397
  148loPI   C1B 2365   4.623  17.207  10.644  0.3358  0.4402  0.2276
  148loPI   C2B 2366   4.588  17.263  10.223  0.1002  0.1027  0.0703
  148loPI   C3B 2367   4.590  17.245   9.828 -0.1033  0.1989 -0.0711
  148loPI   C4B 2368   4.710  17.217   9.388 -0.0103  0.5931 -0.3606
  149loPI    C1 2369  11.407   8.101  11.544 -0.0313  0.0208 -0.0503
  149loPI    C2 2370  11.084   8.004  11.759 -0.0256 -0.0012 -0.0518
  149loPI    C3 2371  11.354   8.260  11.907 -0.0172 -0.0231 -0.0290
  149loPI   PO4 2372  11.305   7.957  11.320  0.1498 -0.2581  0.3266
  149loPI   GL1 2373  11.111   7.919  10.957 -0.1722 -0.1447  0.0229
  149loPI   GL2 2374  10.883   8.079  10.827  0.0358  0.0991  0.0271
  149loPI   C1A 2375  11.099   7.690  10.613  0.5618  0.1491  0.3235
  149loPI   C2A 2376  11.110   7.603  10.195  0.0055 -0.1680  0.0009
  149loPI   C3A 2377  11.035   7.621   9.780  0.0902 -0.1236 -0.1055
  149loPI   C4A 2378  11.050   7.731   9.403  0.1635 -0.1409  0.0541
  149loPI   C5A 2379  11.103   7.666   9.054  0.1401 -0.3515 -0.2754
  149loPI   C6A 2380  11.440   7.585   8.781 -0.2962  0.0718  0.0595
  149loPI   C1B 2381  10.850   8.047  10.345  0.2819  0.0730  0.0466
  149loPI   C2B 2382  10.731   8.051   9.905 -0.2534  0.3454 -0.0399
  149loPI   C3B 2383  10.744   8.109   9.413  0.0483 -0.0124 -0.0399
  149loPI   C4B 2384  10.798   8.182   9.081  0.1635  0.1765  0.0360
  150loPI    C1 2385   9.365  14.958  11.750  0.0277 -0.1466 -0.0824
  150loPI    C2 2386   9.425  15.043  12.136 -0.2180  0.1326 -0.1018
  150loPI    C3 2387   9.314  14.674  12.027 -0.0272  0.0194  0.0795
  150loPI   PO4 2388   9.547  15.005  11.628 -0.3115  0.1689  0.2409
  150loPI   GL1 2389   9.618  15.148  11.208 -0.1419 -0.0415  0.0134
  150loPI   GL2 2390   9.416  15.306  11.085  0.3435 -0.2533 -0.0471
  150loPI   C1A 2391   9.747  15.269  10.761  0.0439  0.0940  0.2613
  150loPI   C2A 2392   9.795  15.287  10.410 -0.1254  0.1649 -0.2404
  150loPI   C3A 2393   9.799  15.173   9.981 -0.1205 -0.1415  0.0934
  150loPI   C4A 2394   9.665  15.188   9.579 -0.3371  0.0681 -0.1050
  150loPI   C5A 2395   9.436  15.216   9.151  0.0646 -0.0052  0.2609
  150loPI   C6A 2396   8.946  15.120   8.914  0.0030 -0.2094 -0.0519
  150loPI   C1B 2397   9.276  15.197  10.664  0.3441 -0.1195 -0.0195
  150loPI   C2B 2398   9.344  15.221  10.286  0.0909 -0.2799  0.3992
  150loPI   C3B 2399   9.204  15.162   9.932  0.0965  0.0064  0.0103
  150loPI   C4B 2400   9.106  15.083   9.508 -0.3666 -0.1911  0.0426
  151loPI    C1 2401  16.963  15.605  11.960  0.0208 -0.1739 -0.1058
  151loPI    C2 2402  16.916  15.637  12.356 -0.1728 -0.0389 -0.1384
  151loPI    C3 2403  17.256  15.488  12.207 -0.0144  0.1056  0.0724
  151loPI   PO4 2404  16.779  15.550  11.822 -0.0965 -0.2655  0.1089
  151loPI   GL1 2405  16.846  15.396  11.413  0.1099  0.1314 -0.1102
  151loPI   GL2 2406  16.617  15.547  11.318 -0.0745  0.1206 -0.2096
  151loPI   C1A 2407  16.995  15.359  10.947  0.0242 -0.0669  0.0230
  151loPI   C2A 2408  17.001  15.551  10.657  0.0570 -0.2016  0.0288
  151loPI   C3A 2409  17.003  15.502  10.226  0.0553  0.1148 -0.0996
  151loPI   C4A 2410  17.079  15.480   9.724 -0.3507  0.0328 -0.0773
  151loPI   C5A 2411  16.974  15.487   9.287 -0.0007 -0.3581  0.0301
  151loPI   C6A 2412  16.889  15.707   8.850  0.0486 -0.1977  0.0264
  151loPI   C1B 2413  16.430  15.367  10.948 -0.1832 -0.2221  0.1547
  151loPI   C2B 2414  16.528  15.417  10.511 -0.3840  0.3108 -0.1838
  151loPI   C3B 2415  16.537  15.420  10.149 -0.2587  0.0799 -0.3187
  151loPI   C4B 2416  16.593  15.554   9.755 -0.1928  0.3773  0.0585
  152loPI    C1 2417  15.682  15.512  11.930  0.2021 -0.0166 -0.3204
  152loPI    C2 2418  16.048  15.639  12.029 -0.0097  0.0986  0.3729
  152loPI    C3 2419  15.748  15.901  11.989 -0.0677 -0.0161  0.0123
  152loPI   PO4 2420  15.677  15.364  11.687 -0.1232 -0.0794  0.0738
  152loPI   GL1 2421  15.423  15.146  11.346 -0.6051  0.2237  0.0664
  152loPI   GL2 2422  15.063  15.177  11.326  0.0596 -0.0835  0.0705
  152loPI   C1A 2423  15.392  15.269  10.938 -0.1285  0.2050  0.1618
  152loPI   C2A 2424  15.524  15.205  10.452  0.0155  0.1263  0.2622
  152loPI   C3A 2425  15.614  15.345   9.975 -0.1729  0.3500  0.1976
  152loPI   C4A 2426  15.549  15.252   9.623  0.1649  0.3412 -0.0511
  152loPI   C5A 2427  15.320  15.137   9.173 -0.2038 -0.4473  0.0755
  152loPI   C6A 2428  15.147  14.876   8.755 -0.1852 -0.2038  0.1321
  152loPI   C1B 2429  14.895  15.207  10.829  0.0941  0.2603 -0.0919
  152loPI   C2B 2430  15.053  15.174  10.438  0.0992 -0.1421  0.2571
  152loPI   C3B 2431  15.149  15.233   9.965  0.0925 -0.0161  0.1133
  152loPI   C4B 2432  15.036  15.198   9.552 -0.0836  0.2023 -0.1365
  153loPI    C1 2433  14.546  15.626  11.951  0.0097 -0.0799  0.0036
  153loPI    C2 2434  14.390  15.971  12.080 -0.0144  0.0535 -0.3694
  153loPI    C3 2435  14.149  15.672  11.969  0.0053 -0.1670  0.1502
  153loPI   PO4 2436  14.769  15.675  11.819 -0.2441 -0.1742 -0.0136
  153loPI   GL1 2437  14.883  15.652  11.395 -0.0450  0.0221  0.2178
  153loPI   GL2 2438  14.717  15.545  11.112  0.0986  0.0031  0.0282
  153loPI   C1A 2439  15.136  15.689  11.075  0.1827  0.1517 -0.2211
  153loPI   C2A 2440  15.195  15.638  10.644  0.0339  0.2526  0.1552
  153loPI   C3A 2441  15.260  15.684  10.136  0.0607  0.0888  0.3260
  153loPI   C4A 2442  15.310  15.732   9.716  0.0863  0.1377  0.0345
  153loPI   C5A 2443  15.329  15.697   9.356 -0.0572 -0.3496 -0.2612
  153loPI   C6A 2444  15.526  15.592   8.989 -0.1152 -0.1403  0.1094
  153loPI   C1B 2445  14.651  15.598  10.683 -0.0510 -0.1085  0.3310
  153loPI   C2B 2446  14.760  15.541  10.217 -0.0936  0.0857  0.4750
  153loPI   C3B 2447  14.770  15.580   9.782  0.0532 -0.0423 -0.0278
  153loPI   C4B 2448  14.812  15.603   9.340 -0.3002  0.0873 -0.0590
  154loPI    C1 2449  13.601  14.005  12.144  0.0035  0.3412 -0.0840
  154loPI    C2 2450  13.217  14.103  12.196 -0.1174 -0.1969  0.0951
  154loPI    C3 2451  13.499  14.273  12.423 -0.2017  0.4482 -0.2585
  154loPI   PO4 2452  13.664  14.021  11.813  0.0476 -0.1077  0.4197
  154loPI   GL1 2453  13.904  13.961  11.487 -0.3353 -0.4306 -0.0236
  154loPI   GL2 2454  14.131  14.172  11.517  0.0309 -0.2215 -0.1136
  154loPI   C1A 2455  13.922  13.704  11.147  0.4898 -0.0203  0.5478
  154loPI   C2A 2456  13.931  13.651  10.713 -0.1891 -0.3810 -0.2911
  154loPI   C3A 2457  13.926  13.558  10.276 -0.1306  0.3319  0.0235
  154loPI   C4A 2458  13.947  13.560   9.828  0.0968  0.0204  0.1278
  154loPI   C5A 2459  14.086  13.497   9.475  0.2266  0.2176  0.1546
  154loPI   C6A 2460  13.947  13.530   8.988  0.3421  0.1898  0.1241
  154loPI   C1B 2461  14.048  14.183  11.090  0.0557 -0.2757 -0.0355
  154loPI   C2B 2462  14.100  14.136  10.629 -0.1887  0.3018  0.1545
  154loPI   C3B 2463  14.138  14.022  10.153 -0.1141  0.0556 -0.0393
  154loPI   C4B 2464  14.170  14.192   9.802  0.2505 -0.1218  0.1065
  155loPI    C1 2465   1.386  12.922  11.934  0.0303 -0.1045 -0.2248
  155loPI    C2 2466   1.700  13.071  12.132 -0.0518 -0.1206 -0.0809
  155loPI    C3 2467   1.645  12.675  12.112  0.0754 -0.1280 -0.3223
  155loPI   PO4 2468   1.352  12.973  11.713  0.1459 -0.1415  0.1276
  155loPI   GL1 2469   1.532  12.896  11.280 -0.0216  0.2691  0.2645
  155loPI   GL2 2470   1.418  13.181  11.289 -0.0856  0.0917 -0.1098
  155loPI   C1A 2471   1.618  12.967  10.844  0.1607  0.2005 -0.1847
  155loPI   C2A 2472   1.523  13.069  10.424 -0.2185 -0.1116  0.2623
  155loPI   C3A 2473   1.585  13.084   9.945 -0.1893 -0.3331  0.3175
  155loPI   C4A 2474   1.669  13.156   9.605 -0.1261  0.1574 -0.3243
  155loPI   C5A 2475   1.542  13.141   9.192  0.2293 -0.3987 -0.1268
  155loPI   C6A 2476   1.261  12.803   8.854 -0.2319 -0.1630  0.0574
  155loPI   C1B 2477   1.256  13.364  10.899  0.1209 -0.1731  0.0695
  155loPI   C2B 2478   1.209  13.452  10.441 -0.1091  0.4181  0.1169
  155loPI   C3B 2479   1.294  13.528   9.998  0.4144  0.0228 -0.3649
  155loPI   C4B 2480   1.319  13.554   9.595 -0.0241  0.0423 -0.0312
  156loPI    C1 2481   6.313   5.920  11.606 -0.0016  0.1377 -0.0289
  156loPI    C2 2482   6.501   6.247  11.471  0.1619  0.0715  0.0370
  156loPI    C3 2483   6.385   6.226  11.853  0.1022  0.0749  0.0191
  156loPI   PO4 2484   6.080   5.928  11.475  0.0813 -0.3941  0.0205
  156loPI   GL1 2485   6.067   6.124  11.073 -0.2054 -0.3851 -0.0524
  156loPI   GL2 2486   6.125   5.859  10.832  0.0843 -0.2806 -0.2262
  156loPI   C1A 2487   5.766   6.411  10.848 -0.1098  0.1672  0.1109
  156loPI   C2A 2488   5.635   6.394  10.534  0.0126 -0.3563  0.2895
  156loPI   C3A 2489   5.690   6.449  10.098 -0.0024  0.0140  0.0784
  156loPI   C4A 2490   5.787   6.449   9.762  0.2051 -0.0183 -0.0399
  156loPI   C5A 2491   5.776   6.378   9.322 -0.0328 -0.3548 -0.3602
  156loPI   C6A 2492   6.123   6.457   9.052  0.1188  0.1941 -0.0701
  156loPI   C1B 2493   6.056   5.935  10.320 -0.1539  0.1661  0.0043
  156loPI   C2B 2494   6.080   5.984   9.842 -0.3948 -0.0536 -0.3603
  156loPI   C3B 2495   6.172   6.010   9.516 -0.3574 -0.0645  0.1025
  156loPI   C4B 2496   6.204   5.994   9.110  0.0328 -0.4632  0.0205
  157loPI    C1 2497   5.877   1.344  11.738 -0.0083 -0.3329  0.0206
  157loPI    C2 2498   5.879   1.015  11.965 -0.1007 -0.3094  0.0557
  157loPI    C3 2499   5.691   1.344  12.093 -0.0969 -0.2756 -0.0255
  157loPI   PO4 2500   5.825   1.263  11.508 -0.0795 -0.1494  0.0364
  157loPI   GL1 2501   5.615   1.203  11.117 -0.0058  0.1835 -0.0964
  157loPI   GL2 2502   5.785   1.497  11.039 -0.2325 -0.1694  0.1388
  157loPI   C1A 2503   5.569   0.987  10.732  0.0059 -0.4295  0.0585
  157loPI   C2A 2504   5.470   0.848  10.332 -0.0091 -0.2269  0.1935
  157loPI   C3A 2505   5.509   0.901   9.875  0.0115 -0.2697  0.0566
  157loPI   C4A 2506   5.512   0.890   9.401  0.0736 -0.0346  0.2525
  157loPI   C5A 2507   5.477   0.871   8.871  0.0606 -0.1856  0.0386
  157loPI   C6A 2508   5.449   0.458   8.682  0.0915 -0.3464  0.0931
  157loPI   C1B 2509   5.822   1.404  10.596 -0.0790  0.2353 -0.2716
  157loPI   C2B 2510   5.767   1.346  10.204 -0.2161 -0.0022 -0.1827
  157loPI   C3B 2511   5.722   1.421   9.787  0.3466  0.0262 -0.5272
  157loPI   C4B 2512   5.726   1.355   9.351 -0.3849 -0.3005 -0.1300
  158loPI    C1 2513  10.621  15.133  11.670  0.3668 -0.0510  0.2374
  158loPI    C2 2514  10.402  14.904  11.915  0.1494  0.1251  0.2108
  158loPI    C3 2515  10.372  15.302  11.932  0.1601  0.1409 -0.0766
  158loPI   PO4 2516  10.534  15.120  11.437 -0.2731  0.0179 -0.0940
  158loPI   GL1 2517  10.718  15.216  11.106 -0.1282 -0.0575  0.1226
  158loPI   GL2 2518  10.728  15.482  11.034 -0.1181  0.0546  0.0947
  158loPI   C1A 2519  10.680  14.952  10.800  0.1553 -0.2391  0.2319
  158loPI   C2A 2520  10.557  14.902  10.427  0.1670  0.3096  0.1124
  158loPI   C3A 2521  10.599  14.895   9.996 -0.2232  0.4088  0.0096
  158loPI   C4A 2522  10.537  14.850   9.600 -0.1722  0.1802  0.3093
  158loPI   C5A 2523  10.555  14.785   9.197  0.1261  0.3027  0.2274
  158loPI   C6A 2524  10.782  14.536   8.959 -0.3398 -0.0744 -0.0393
  158loPI   C1B 2525  10.695  15.386  10.551 -0.0640  0.2991 -0.1870
  158loPI   C2B 2526  10.703  15.348  10.100  0.0361  0.1114  0.0870
  158loPI   C3B 2527  10.736  15.364   9.680  0.1958  0.2371 -0.5339
  158loPI   C4B 2528  10.717  15.238   9.277  0.0939  0.1574  0.0515
  159loPI    C1 2529   6.396  14.162  11.776 -0.0214 -0.0883  0.2157
  159loPI    C2 2530   6.091  14.341  11.964 -0.0662  0.0432  0.0197
  159loPI    C3 2531   6.468  14.435  12.060 -0.0883  0.0458  0.1044
  159loPI   PO4 2532   6.273  14.114  11.521 -0.0305  0.0409 -0.1229
  159loPI   GL1 2533   6.255  14.271  11.230  0.1027  0.0222 -0.0228
  159loPI   GL2 2534   6.466  14.461  11.221 -0.0653 -0.4480  0.1335
  159loPI   C1A 2535   6.045  14.203  10.903 -0.1555 -0.0236  0.1505
  159loPI   C2A 2536   5.978  14.100  10.496 -0.1235 -0.0226 -0.0398
  159loPI   C3A 2537   5.989  14.195  10.048 -0.1226 -0.1719  0.1838
  159loPI   C4A 2538   5.927  14.340   9.612  0.0754  0.0788 -0.0836
  159loPI   C5A 2539   5.902  14.232   9.206  0.0175  0.0531 -0.0686
  159loPI   C6A 2540   5.973  13.971   8.903  0.0520  0.3888  0.0719
  159loPI   C1B 2541   6.518  14.345  10.707 -0.1035  0.0592 -0.1475
  159loPI   C2B 2542   6.527  14.266  10.250 -0.0031 -0.0029 -0.0182
  159loPI   C3B 2543   6.421  14.369   9.816 -0.0748 -0.3040  0.0536
  159loPI   C4B 2544   6.432  14.365   9.363  0.0467 -0.0877  0.0012
  160loPI    C1 2545  13.368  16.930  11.865  0.0496 -0.2859  0.0382
  160loPI    C2 2546  13.011  17.067  11.981  0.0400 -0.2342 -0.0507
  160loPI    C3 2547  13.236  16.855  12.235  0.0041 -0.1534  0.0493
  160loPI   PO4 2548  13.268  16.819  11.638  0.2973 -0.1869  0.1708
  160loPI   GL1 2549  13.032  16.975  11.169 -0.3618  0.0275  0.0547
  160loPI   GL2 2550  13.107  16.737  10.946  0.2194 -0.0743 -0.1740
  160loPI   C1A 2551  13.301  17.214  10.948 -0.1898 -0.1076 -0.1324
  160loPI   C2A 2552  13.422  17.260  10.469 -0.0133 -0.1583 -0.3593
  160loPI   C3A 2553  13.331  17.156  10.141 -0.1669  0.1466  0.0448
  160loPI   C4A 2554  13.404  17.132   9.786  0.0372 -0.3688  0.1682
  160loPI   C5A 2555  13.378  17.141   9.288  0.0801  0.0991  0.0275
  160loPI   C6A 2556  13.073  17.169   9.065 -0.2269 -0.2430  0.1829
  160loPI   C1B 2557  13.088  16.825  10.517  0.0012 -0.0392 -0.0375
  160loPI   C2B 2558  13.195  16.707  10.110  0.1292 -0.1113 -0.0203
  160loPI   C3B 2559  13.216  16.589   9.696 -0.2603  0.3816 -0.0073
  160loPI   C4B 2560  13.240  16.604   9.222 -0.3681 -0.0115 -0.3084
  161loPI    C1 2561   8.601   7.271  12.208 -0.0488  0.1440  0.0502
  161loPI    C2 2562   8.690   6.997  12.486  0.0939  0.1331 -0.0055
  161loPI    C3 2563   8.618   7.375  12.594  0.0089  0.0983  0.0602
  161loPI   PO4 2564   8.814   7.233  11.918 -0.0106  0.4251  0.2799
  161loPI   GL1 2565   8.792   7.324  11.520  0.2724 -0.1719  0.0224
  161loPI   GL2 2566   9.059   7.385  11.276 -0.1220 -0.1090 -0.0751
  161loPI   C1A 2567   8.664   7.016  11.135  0.1964 -0.0406 -0.1626
  161loPI   C2A 2568   8.322   6.814  10.917  0.3964 -0.3767 -0.1202
  161loPI   C3A 2569   8.318   6.815  10.495 -0.3164 -0.1106  0.2828
  161loPI   C4A 2570   8.374   6.894  10.125  0.2256  0.1880  0.2894
  161loPI   C5A 2571   8.390   6.879   9.669  0.1555  0.0700  0.1527
  161loPI   C6A 2572   8.389   6.831   9.365 -0.3427  0.1923 -0.2373
  161loPI   C1B 2573   9.065   7.377  10.836  0.0888  0.1016 -0.0837
  161loPI   C2B 2574   9.041   7.362  10.416  0.2757 -0.0226  0.1276
  161loPI   C3B 2575   9.041   7.490  10.006  0.0868  0.0165 -0.0548
  161loPI   C4B 2576   9.082   7.361   9.675  0.2710 -0.0926 -0.0091
  162loPI    C1 2577  10.931   5.307  11.531 -0.1202 -0.2790  0.0735
  162loPI    C2 2578  10.705   5.434  11.226  0.0951 -0.1855 -0.0494
  162loPI    C3 2579  10.710   5.638  11.570 -0.1098 -0.2633  0.0012
  162loPI   PO4 2580  11.141   5.268  11.466 -0.1062  0.1581  0.2875
  162loPI   GL1 2581  11.266   4.904  11.318  0.0348 -0.2017  0.2463
  162loPI   GL2 2582  11.051   5.056  11.045 -0.2325  0.0431 -0.2126
  162loPI   C1A 2583  11.501   4.919  10.817 -0.0551  0.1646 -0.0886
  162loPI   C2A 2584  11.544   4.958  10.384 -0.0272  0.1993  0.0871
  162loPI   C3A 2585  11.589   4.904   9.978  0.4679 -0.1659  0.0164
  162loPI   C4A 2586  11.452   4.941   9.514  0.2387 -0.1128 -0.3614
  162loPI   C5A 2587  11.606   4.889   9.080 -0.0816 -0.3271 -0.1152
  162loPI   C6A 2588  11.795   5.120   8.840  0.3669  0.1348  0.0931
  162loPI   C1B 2589  10.934   4.923  10.631  0.1304 -0.3393  0.0022
  162loPI   C2B 2590  11.095   4.888  10.203  0.0585  0.0117 -0.0235
  162loPI   C3B 2591  10.973   4.878   9.736 -0.3543 -0.5138 -0.0402
  162loPI   C4B 2592  10.936   4.948   9.308  0.0171  0.2100  0.0848
  163loPI    C1 2593   2.572  11.288  11.838 -0.1588 -0.0134 -0.2492
  163loPI    C2 2594   2.185  11.388  11.840 -0.1938 -0.1453  0.0141
  163loPI    C3 2595   2.300  11.030  11.976  0.0092 -0.1567 -0.1808
  163loPI   PO4 2596   2.672  11.310  11.588  0.0685 -0.0598 -0.3342
  163loPI   GL1 2597   2.751  11.012  11.172 -0.2182 -0.4205 -0.3276
  163loPI   GL2 2598   2.429  11.030  11.114 -0.0436 -0.0048 -0.0630
  163loPI   C1A 2599   2.769  11.010  10.689  0.2022 -0.1106 -0.0997
  163loPI   C2A 2600   2.693  11.008  10.234 -0.0849 -0.1250  0.1652
  163loPI   C3A 2601   2.725  11.020   9.764  0.1201  0.0199  0.1003
  163loPI   C4A 2602   2.672  10.995   9.279 -0.0454  0.1717  0.0067
  163loPI   C5A 2603   2.489  10.801   8.902  0.0838  0.0255 -0.0222
  163loPI   C6A 2604   2.223  10.760   8.598  0.1455  0.3011 -0.2003
  163loPI   C1B 2605   2.409  11.356  10.765 -0.0313  0.4026  0.0324
  163loPI   C2B 2606   2.348  11.429  10.252 -0.2822 -0.3567 -0.1457
  163loPI   C3B 2607   2.408  11.446   9.836  0.1287 -0.0722  0.1082
  163loPI   C4B 2608   2.419  11.466   9.378 -0.2110  0.0326 -0.0782
  164loPI    C1 2609   3.656  10.218  12.046  0.1309  0.3364 -0.2401
  164loPI    C2 2610   3.544  10.590  12.143 -0.1224  0.2479 -0.1870
  164loPI    C3 2611   3.578  10.310  12.428 -0.1891  0.1641 -0.2607
  164loPI   PO4 2612   3.739  10.294  11.754 -0.3289  0.2427 -0.1361
  164loPI   GL1 2613   3.654  10.475  11.407 -0.2449  0.1329 -0.0016
  164loPI   GL2 2614   3.756  10.673  11.253 -0.0855 -0.0287 -0.2681
  164loPI   C1A 2615   3.809  10.172  11.023 -0.2032 -0.2227  0.1373
  164loPI   C2A 2616   3.862  10.254  10.615  0.0182  0.0017  0.0036
  164loPI   C3A 2617   3.825  10.290  10.167 -0.0178 -0.0568  0.0493
  164loPI   C4A 2618   3.820  10.242   9.700 -0.1972 -0.0525 -0.3894
  164loPI   C5A 2619   4.041  10.173   9.198 -0.0202 -0.0004 -0.3460
  164loPI   C6A 2620   4.095  10.382   8.730 -0.1191 -0.2290 -0.0320
  164loPI   C1B 2621   3.635  10.612  10.913 -0.1415  0.2679  0.4119
  164loPI   C2B 2622   3.558  10.713  10.407  0.2594 -0.0502 -0.0462
  164loPI   C3B 2623   3.500  10.705   9.958  0.2136  0.0183 -0.1646
  164loPI   C4B 2624   3.621  10.680   9.516  0.1467  0.0278  0.0992
  165loPI    C1 2625  12.111   6.345  11.725  0.0333 -0.1131  0.0297
  165loPI    C2 2626  12.419   6.164  11.903  0.2564  0.2538  0.0259
  165loPI    C3 2627  12.127   6.325  12.124  0.1093 -0.0151  0.0317
  165loPI   PO4 2628  12.142   6.225  11.476  0.0533 -0.0616  0.0519
  165loPI   GL1 2629  12.132   6.324  11.011 -0.2489 -0.0883 -0.0682
  165loPI   GL2 2630  12.335   6.018  11.076  0.0880 -0.0536 -0.2294
  165loPI   C1A 2631  12.075   6.437  10.622  0.1233 -0.1741  0.1684
  165loPI   C2A 2632  12.003   6.510  10.192 -0.1178  0.0757  0.1027
  165loPI   C3A 2633  12.129   6.352   9.725 -0.1067 -0.2191 -0.0185
  165loPI   C4A 2634  12.093   6.506   9.264  0.3443  0.2524  0.2843
  165loPI   C5A 2635  12.401   6.421   8.926  0.0475 -0.3243 -0.0197
  165loPI   C6A 2636  12.717   6.672   8.800  0.3576  0.1984  0.3016
  165loPI   C1B 2637  12.314   5.968  10.663 -0.0568  0.1513  0.3342
  165loPI   C2B 2638  12.322   5.968  10.292 -0.0786 -0.0111  0.0102
  165loPI   C3B 2639  12.450   5.989   9.803 -0.1570 -0.0523  0.0234
  165loPI   C4B 2640  12.377   6.074   9.442 -0.0184 -0.4227 -0.2940
  166loPI    C1 2641  12.008   5.223  11.857 -0.0790 -0.0278 -0.1644
  166loPI    C2 2642  11.787   5.478  12.072 -0.0541 -0.0550 -0.1060
  166loPI    C3 2643  12.058   5.247  12.253  0.0756  0.0319 -0.1873
  166loPI   PO4 2644  12.068   5.355  11.657 -0.0989 -0.0150  0.1534
  166loPI   GL1 2645  12.372   5.420  11.237 -0.1404 -0.3393 -0.0783
  166loPI   GL2 2646  12.369   5.089  11.033  0.0697  0.2871  0.1378
  166loPI   C1A 2647  12.123   5.564  10.905  0.1025 -0.0232  0.1810
  166loPI   C2A 2648  12.231   5.499  10.491  0.2270 -0.0937 -0.3314
  166loPI   C3A 2649  12.273   5.476  10.052  0.0521  0.1041  0.2328
  166loPI   C4A 2650  12.267   5.521   9.737  0.1439  0.0327 -0.4928
  166loPI   C5A 2651  12.197   5.600   9.343 -0.2453  0.3356 -0.2212
  166loPI   C6A 2652  12.206   5.464   8.936  0.3933  0.1143  0.0977
  166loPI   C1B 2653  12.536   5.101  10.599  0.1876 -0.2596 -0.0500
  166loPI   C2B 2654  12.574   5.084  10.187 -0.1552 -0.2815 -0.0045
  166loPI   C3B 2655  12.575   5.108   9.720 -0.2043 -0.6862  0.1471
  166loPI   C4B 2656  12.559   5.159   9.315  0.2112  0.3708 -0.0290
  167loPI    C1 2657  13.300   6.621  11.742 -0.1219  0.1185 -0.1007
  167loPI    C2 2658  13.639   6.587  11.950 -0.0211 -0.0805 -0.2936
  167loPI    C3 2659  13.294   6.649  12.141  0.1186  0.0995 -0.0943
  167loPI   PO4 2660  13.350   6.778  11.557  0.2723  0.1786  0.2456
  167loPI   GL1 2661  13.427   6.598  11.135  0.0034 -0.0930  0.0503
  167loPI   GL2 2662  13.201   6.563  11.086  0.2511  0.1036  0.2871
  167loPI   C1A 2663  13.456   6.939  10.810 -0.0323 -0.1098 -0.0843
  167loPI   C2A 2664  13.324   7.088  10.364 -0.1097 -0.0432 -0.0373
  167loPI   C3A 2665  13.357   7.121   9.896 -0.0634  0.0705  0.0409
  167loPI   C4A 2666  13.250   7.241   9.453  0.1695  0.0399 -0.1223
  167loPI   C5A 2667  13.242   7.168   8.938 -0.1706 -0.0753  0.3917
  167loPI   C6A 2668  13.535   7.247   8.519 -0.1398  0.0945 -0.2695
  167loPI   C1B 2669  13.118   6.626  10.721  0.0207 -0.0301 -0.0560
  167loPI   C2B 2670  13.169   6.556  10.299 -0.0972  0.1820  0.2696
  167loPI   C3B 2671  13.113   6.643   9.942 -0.3992  0.2845  0.1075
  167loPI   C4B 2672  13.154   6.572   9.492  0.5028 -0.0785  0.2542
  168loPI    C1 2673   4.319  11.039  12.036  0.1592 -0.0807  0.0620
  168loPI    C2 2674   4.153  11.333  12.249  0.0885  0.0461 -0.1643
  168loPI    C3 2675   4.548  11.273  12.265  0.0825  0.0475  0.0089
  168loPI   PO4 2676   4.260  11.059  11.747  0.0325  0.0428 -0.0419
  168loPI   GL1 2677   4.297  10.879  11.409  0.4081 -0.1193  0.4717
  168loPI   GL2 2678   4.156  10.936  11.159 -0.0524  0.0008  0.3944
  168loPI   C1A 2679   4.265  10.467  11.062  0.2498 -0.2471  0.0555
  168loPI   C2A 2680   4.374  10.297  10.724  0.0216  0.0823  0.1612
  168loPI   C3A 2681   4.388  10.280  10.340 -0.0794 -0.0228 -0.0020
  168loPI   C4A 2682   4.248  10.311   9.938 -0.1432  0.2548 -0.0079
  168loPI   C5A 2683   4.422  10.247   9.593  0.0559 -0.0165 -0.4436
  168loPI   C6A 2684   4.536  10.480   9.291  0.0969  0.0720  0.2269
  168loPI   C1B 2685   4.087  10.802  10.732 -0.1364  0.0487  0.1060
  168loPI   C2B 2686   4.034  10.822  10.282 -0.0334  0.2148 -0.0916
  168loPI   C3B 2687   4.023  10.845   9.912  0.0123  0.4356  0.2594
  168loPI   C4B 2688   4.152  10.718   9.602 -0.0947  0.1483  0.3142
  169loPI    C1 2689   1.747   5.082  11.524  0.0657  0.1319 -0.2368
  169loPI    C2 2690   2.117   5.087  11.371  0.0889  0.0028 -0.1863
  169loPI    C3 2691   2.052   4.929  11.732  0.0173  0.2112 -0.1063
  169loPI   PO4 2692   1.601   4.978  11.281  0.0157  0.0770  0.2581
  169loPI   GL1 2693   1.872   5.007  10.983 -0.0987 -0.0862 -0.0438
  169loPI   GL2 2694   2.006   5.287  10.754 -0.0118  0.2426  0.0909
  169loPI   C1A 2695   1.833   4.833  10.664  0.1760 -0.3641 -0.0713
  169loPI   C2A 2696   1.734   4.779  10.299  0.1880 -0.0514  0.3525
  169loPI   C3A 2697   1.692   4.777   9.916 -0.1060  0.2402 -0.0658
  169loPI   C4A 2698   1.784   4.826   9.482  0.0501 -0.1970  0.0252
  169loPI   C5A 2699   1.657   4.852   9.062  0.2880 -0.2570 -0.1340
  169loPI   C6A 2700   1.724   4.812   8.595 -0.2661  0.1424 -0.0450
  169loPI   C1B 2701   1.966   5.282  10.313 -0.0110  0.3680 -0.0963
  169loPI   C2B 2702   1.876   5.262   9.917 -0.4657 -0.4203 -0.1157
  169loPI   C3B 2703   1.878   5.405   9.467 -0.3131 -0.1852 -0.1489
  169loPI   C4B 2704   1.711   5.547   9.051 -0.0012 -0.0038 -0.1463
  170loPI    C1 2705   0.127  10.396  11.781 -0.1503 -0.1935  0.0279
  170loPI    C2 2706   0.204  10.606  12.113  0.0172  0.0035 -0.1329
  170loPI    C3 2707   0.451  10.312  12.001 -0.0841 -0.1180 -0.0401
  170loPI   PO4 2708   0.091  10.505  11.528 -0.1708 -0.0310 -0.0884
  170loPI   GL1 2709   0.046  10.530  11.124  0.2255 -0.0691  0.1642
  170loPI   GL2 2710  -0.251  10.866  11.035  0.1004 -0.0327  0.2484
  170loPI   C1A 2711   0.015  10.608  10.693  0.0503  0.2176  0.4334
  170loPI   C2A 2712   0.052  10.694  10.304  0.0498  0.2965 -0.2839
  170loPI   C3A 2713   0.076  10.610   9.881  0.0286 -0.0224  0.0937
  170loPI   C4A 2714   0.234  10.655   9.414 -0.5632  0.0634  0.0374
  170loPI   C5A 2715   0.346  10.465   9.043 -0.0507 -0.1193 -0.1976
  170loPI   C6A 2716   0.593  10.284   8.735  0.1750 -0.0818 -0.2464
  170loPI   C1B 2717  -0.441  10.544  10.838 -0.0270  0.2074 -0.2189
  170loPI   C2B 2718  -0.430  10.435  10.351  0.0287  0.0147  0.1614
  170loPI   C3B 2719  -0.480  10.491   9.907 -0.0479  0.3343  0.0249
  170loPI   C4B 2720  -0.295  10.421   9.561  0.2473  0.2332 -0.3744
  171loPI    C1 2721   1.955  10.251  11.658 -0.1219 -0.0051  0.1738
  171loPI    C2 2722   2.321  10.119  11.751 -0.0827  0.0878  0.1534
  171loPI    C3 2723   2.020  10.077  12.012 -0.0708 -0.0395  0.1476
  171loPI   PO4 2724   2.025  10.464  11.514  0.2429  0.1736  0.0177
  171loPI   GL1 2725   2.004  10.700  11.188  0.2813  0.1678 -0.2395
  171loPI   GL2 2726   1.661  10.858  11.082  0.0217  0.1476  0.0637
  171loPI   C1A 2727   2.207  10.724  10.771 -0.1857 -0.0201 -0.2057
  171loPI   C2A 2728   2.241  10.917  10.348  0.0066 -0.0678 -0.1012
  171loPI   C3A 2729   2.214  10.975   9.908 -0.1120  0.1174 -0.0872
  171loPI   C4A 2730   2.238  11.028   9.470 -0.0319 -0.2051  0.0410
  171loPI   C5A 2731   2.054  10.762   9.196 -0.0776 -0.2659  0.0876
  171loPI   C6A 2732   2.131  10.317   9.088  0.0665 -0.2155  0.0007
  171loPI   C1B 2733   1.761  10.854  10.610 -0.0412 -0.0086 -0.1630
  171loPI   C2B 2734   1.742  10.943  10.073 -0.1922  0.3114  0.2205
  171loPI   C3B 2735   1.717  10.918   9.653 -0.0144 -0.2055  0.0872
  171loPI   C4B 2736   1.546  10.893   9.243  0.1899  0.0743  0.1426
  172loPI    C1 2737   6.906   1.250  11.791  0.1449 -0.1470 -0.0274
  172loPI    C2 2738   7.301   1.310  11.786  0.0745  0.3890  0.1225
  172loPI    C3 2739   7.088   1.415  12.107 -0.1742 -0.0473  0.1085
  172loPI   PO4 2740   6.761   1.177  11.655 -0.2868  0.1105 -0.2638
  172loPI   GL1 2741   6.782   1.039  11.203  0.1785  0.2029 -0.2563
  172loPI   GL2 2742   6.541   0.968  11.145  0.0016  0.2101 -0.1411
  172loPI   C1A 2743   7.111   1.150  10.850 -0.1417 -0.2465 -0.1682
  172loPI   C2A 2744   7.145   1.181  10.458 -0.2570  0.2563  0.1619
  172loPI   C3A 2745   7.109   1.113  10.111  0.1094 -0.1677  0.0693
  172loPI   C4A 2746   7.156   1.082   9.695 -0.5251 -0.0082 -0.0330
  172loPI   C5A 2747   7.242   0.911   9.232  0.1152  0.0380  0.2118
  172loPI   C6A 2748   7.277   0.474   9.077 -0.0311  0.2227 -0.0921
  172loPI   C1B 2749   6.556   1.037  10.660 -0.2563 -0.2907  0.0644
  172loPI   C2B 2750   6.588   1.010  10.161 -0.1379  0.4348  0.0047
  172loPI   C3B 2751   6.526   0.981   9.711  0.1608  0.1198  0.2080
  172loPI   C4B 2752   6.386   0.945   9.308 -0.2285  0.0352 -0.1508
  173loPI    C1 2753   9.963  11.229  11.573  0.1450  0.0365 -0.1072
  173loPI    C2 2754   9.811  11.495  11.831  0.1827 -0.0235 -0.0226
  173loPI    C3 2755  10.081  11.227  11.955  0.2723  0.0083 -0.1463
  173loPI   PO4 2756  10.035  11.371  11.380 -0.0419 -0.2010 -0.1412
  173loPI   GL1 2757  10.022  11.643  10.983  0.0454 -0.0289  0.0628
  173loPI   GL2 2758   9.742  11.539  10.917  0.3790  0.1734  0.1165
  173loPI   C1A 2759  10.335  11.652  10.651 -0.1750 -0.1399  0.3638
  173loPI   C2A 2760  10.265  11.605  10.296 -0.1769  0.1417  0.0067
  173loPI   C3A 2761  10.212  11.641   9.806  0.2192 -0.2097 -0.0918
  173loPI   C4A 2762  10.186  11.616   9.356 -0.0485  0.1791 -0.0376
  173loPI   C5A 2763  10.117  11.611   8.930 -0.0307 -0.1110  0.3383
  173loPI   C6A 2764  10.307  11.192   8.721 -0.3446  0.0468  0.1937
  173loPI   C1B 2765   9.699  11.487  10.455  0.0610 -0.0305 -0.1248
  173loPI   C2B 2766   9.720  11.588  10.042  0.0492 -0.1155  0.2036
  173loPI   C3B 2767   9.740  11.581   9.590 -0.1935  0.0348 -0.1257
  173loPI   C4B 2768   9.684  11.620   9.189 -0.1102  0.3182 -0.1555
  174loPI    C1 2769   8.275   3.357  11.785 -0.1603  0.0132  0.0642
  174loPI    C2 2770   8.494   3.517  12.079 -0.1942 -0.0003  0.0969
  174loPI    C3 2771   8.309   3.167  12.136 -0.1625 -0.0259  0.0433
  174loPI   PO4 2772   8.451   3.405  11.557  0.3484  0.0058  0.0968
  174loPI   GL1 2773   8.458   3.293  11.197 -0.3543 -0.2076 -0.1422
  174loPI   GL2 2774   8.261   3.043  11.130  0.2091 -0.3246 -0.1887
  174loPI   C1A 2775   8.501   3.540  10.755  0.0125 -0.2741 -0.3071
  174loPI   C2A 2776   8.553   3.661  10.350 -0.1491  0.1787 -0.0745
  174loPI   C3A 2777   8.516   3.598   9.913  0.1803 -0.0114  0.2501
  174loPI   C4A 2778   8.570   3.581   9.525 -0.3138  0.1120 -0.0304
  174loPI   C5A 2779   8.574   3.604   9.089 -0.1994  0.1414  0.3410
  174loPI   C6A 2780   8.589   3.520   8.734 -0.0775 -0.3003 -0.1863
  174loPI   C1B 2781   8.368   3.077  10.725  0.0815  0.1330  0.0694
  174loPI   C2B 2782   8.415   3.161  10.309 -0.1895  0.0367 -0.1505
  174loPI   C3B 2783   8.262   3.056   9.874 -0.1621 -0.0991 -0.1342
  174loPI   C4B 2784   8.275   3.210   9.426 -0.0812  0.1595 -0.0592
  175loPI    C1 2785   7.702  11.920  11.633 -0.1711 -0.3796  0.1381
  175loPI    C2 2786   7.995  11.895  11.905 -0.0829  0.2187  0.1113
  175loPI    C3 2787   7.613  11.899  12.023 -0.0534  0.2170  0.2079
  175loPI   PO4 2788   7.713  12.066  11.446 -0.3031  0.1736 -0.2973
  175loPI   GL1 2789   7.733  11.859  11.062  0.1071 -0.2427  0.1715
  175loPI   GL2 2790   7.852  11.628  11.129  0.2923  0.1309 -0.1170
  175loPI   C1A 2791   8.056  12.079  10.868 -0.0145 -0.3724  0.0835
  175loPI   C2A 2792   8.136  12.286  10.444 -0.2019 -0.2036  0.1257
  175loPI   C3A 2793   8.132  12.228  10.026 -0.3438  0.0990  0.0885
  175loPI   C4A 2794   8.006  12.227   9.529  0.0703 -0.0722 -0.0164
  175loPI   C5A 2795   7.901  12.252   9.103  0.2750  0.1687  0.1481
  175loPI   C6A 2796   7.522  12.475   8.971 -0.0652  0.2914  0.4095
  175loPI   C1B 2797   7.932  11.627  10.679 -0.0874 -0.1446  0.2192
  175loPI   C2B 2798   8.011  11.825  10.266 -0.0410  0.4720 -0.0687
  175loPI   C3B 2799   7.851  11.690   9.859  0.1438 -0.2018  0.1670
  175loPI   C4B 2800   7.816  11.779   9.462 -0.2297 -0.3706  0.2538
  176loPI    C1 2801   4.415   9.643  11.950 -0.2207 -0.1290 -0.1793
  176loPI    C2 2802   4.072   9.667  12.155 -0.0492  0.0734  0.0911
  176loPI    C3 2803   4.352   9.402  12.263 -0.1302 -0.1153 -0.1505
  176loPI   PO4 2804   4.365   9.621  11.749 -0.1738 -0.1945  0.1484
  176loPI   GL1 2805   4.360   9.833  11.441 -0.0272  0.2396  0.1262
  176loPI   GL2 2806   4.551   9.547  11.234 -0.0286 -0.1181  0.5329
  176loPI   C1A 2807   4.095   9.754  11.019 -0.1303  0.2152 -0.0480
  176loPI   C2A 2808   4.174   9.800  10.653 -0.1377  0.1086  0.0636
  176loPI   C3A 2809   4.188   9.836  10.186 -0.1053 -0.0324  0.6023
  176loPI   C4A 2810   4.200   9.785   9.742  0.3460 -0.0846 -0.3119
  176loPI   C5A 2811   4.394   9.805   9.366  0.4160  0.3485  0.0608
  176loPI   C6A 2812   4.527  10.084   8.965 -0.2012 -0.1132  0.0768
  176loPI   C1B 2813   4.581   9.380  10.857 -0.0908  0.0056  0.0476
  176loPI   C2B 2814   4.525   9.452  10.413  0.1852 -0.0035  0.2196
  176loPI   C3B 2815   4.559   9.494   9.925  0.0479  0.0934  0.0934
  176loPI   C4B 2816   4.696   9.444   9.475  0.1331  0.1819  0.1016
  177loPI    C1 2817  11.602  15.255  11.913  0.1035 -0.2861 -0.0075
  177loPI    C2 2818  11.510  15.592  12.108  0.3177 -0.0147 -0.3632
  177loPI    C3 2819  11.717  15.304  12.293  0.0599  0.0078 -0.0298
  177loPI   PO4 2820  11.589  15.281  11.701  0.2634  0.1314  0.0009
  177loPI   GL1 2821  11.575  15.262  11.249 -0.0814  0.0335 -0.0205
  177loPI   GL2 2822  11.479  14.961  11.323  0.1523 -0.2739 -0.1373
  177loPI   C1A 2823  11.679  15.042  10.843  0.0648 -0.1474 -0.2025
  177loPI   C2A 2824  11.555  14.961  10.380 -0.1824  0.1070 -0.2902
  177loPI   C3A 2825  11.596  14.962   9.905  0.0147  0.0359 -0.1691
  177loPI   C4A 2826  11.538  14.989   9.471  0.1166 -0.1448 -0.2304
  177loPI   C5A 2827  11.797  15.086   9.043  0.1493  0.0290 -0.0486
  177loPI   C6A 2828  12.219  15.213   8.990 -0.1137 -0.0015  0.3292
  177loPI   C1B 2829  11.324  14.745  10.803  0.0389 -0.0046 -0.1726
  177loPI   C2B 2830  11.317  14.507  10.467 -0.1213 -0.3641  0.0379
  177loPI   C3B 2831  11.438  14.471  10.112  0.1543 -0.0273 -0.0023
  177loPI   C4B 2832  11.411  14.507   9.607 -0.3267 -0.1117 -0.1074
  178loPI    C1 2833  16.706  10.119  11.809  0.0068 -0.1589  0.1281
  178loPI    C2 2834  16.883   9.878  12.075 -0.1986 -0.1723  0.2548
  178loPI    C3 2835  16.643  10.173  12.200 -0.0326  0.0334  0.0963
  178loPI   PO4 2836  16.905  10.207  11.587  0.3688 -0.1826 -0.0796
  178loPI   GL1 2837  17.045  10.176  11.202  0.1569 -0.3271  0.0949
  178loPI   GL2 2838  16.792  10.076  11.078  0.2449  0.0174 -0.2193
  178loPI   C1A 2839  17.237  10.105  10.797 -0.1391 -0.0573 -0.1493
  178loPI   C2A 2840  17.225   9.925  10.364 -0.0803  0.1169  0.0280
  178loPI   C3A 2841  17.338  10.105   9.997  0.0965  0.1218 -0.2129
  178loPI   C4A 2842  17.520  10.114   9.569 -0.0282  0.0300  0.0497
  178loPI   C5A 2843  17.494  10.036   9.116 -0.1817  0.2551  0.0870
  178loPI   C6A 2844  17.380   9.821   8.933  0.1911 -0.2515 -0.1887
  178loPI   C1B 2845  16.758  10.028  10.581  0.0936  0.0718  0.1067
  178loPI   C2B 2846  16.684  10.011  10.170 -0.3679  0.1091  0.1834
  178loPI   C3B 2847  16.749   9.928   9.744 -0.3257 -0.0494  0.2319
  178loPI   C4B 2848  17.108   9.897   9.455  0.1378 -0.1293  0.2112
  179loPI    C1 2849   0.879  13.010  12.266 -0.1919 -0.1765 -0.1423
  179loPI    C2 2850   0.732  13.381  12.256  0.0437 -0.0789 -0.0492
  179loPI    C3 2851   0.895  13.240  12.593 -0.1527 -0.3103 -0.0491
  179loPI   PO4 2852   0.830  12.975  11.959 -0.0923 -0.0967 -0.3676
  179loPI   GL1 2853   0.945  13.075  11.437 -0.0993  0.0697 -0.1190
  179loPI   GL2 2854   0.733  13.330  11.365  0.0126 -0.1160 -0.2551
  179loPI   C1A 2855   1.116  12.919  10.977 -0.0162 -0.1394  0.2516
  179loPI   C2A 2856   1.088  12.952  10.579 -0.1855  0.3097  0.1932
  179loPI   C3A 2857   1.121  12.951  10.126 -0.1028 -0.1179 -0.1691
  179loPI   C4A 2858   1.135  13.080   9.806  0.0770  0.3765 -0.1050
  179loPI   C5A 2859   1.048  13.149   9.305 -0.4834  0.2595  0.1939
  179loPI   C6A 2860   0.821  13.284   8.965  0.3506 -0.1380 -0.1011
  179loPI   C1B 2861   0.775  13.402  10.854  0.4697 -0.2977  0.0249
  179loPI   C2B 2862   0.727  13.316  10.401  0.1618  0.2358  0.1584
  179loPI   C3B 2863   0.796  13.467  10.016 -0.0503  0.1357  0.1639
  179loPI   C4B 2864   0.828  13.457   9.620 -0.2380  0.2272  0.0508
  180loPI    C1 2865   3.183   3.488  11.695  0.0190 -0.0152  0.1485
  180loPI    C2 2866   2.924   3.714  11.489  0.0236 -0.1061  0.0424
  180loPI    C3 2867   2.868   3.651  11.880 -0.1269 -0.1425  0.0154
  180loPI   PO4 2868   3.225   3.310  11.475  0.0173  0.0827  0.0173
  180loPI   GL1 2869   3.043   3.236  11.083 -0.0297 -0.0767  0.0704
  180loPI   GL2 2870   2.765   3.462  11.051 -0.0719 -0.1926  0.0850
  180loPI   C1A 2871   2.980   3.212  10.663 -0.3784 -0.0634 -0.1403
  180loPI   C2A 2872   3.028   3.202  10.192 -0.0692 -0.2458 -0.0939
  180loPI   C3A 2873   3.151   3.228   9.735 -0.1319 -0.1356 -0.1288
  180loPI   C4A 2874   3.076   3.135   9.246 -0.0508  0.0661  0.0713
  180loPI   C5A 2875   3.240   2.843   8.889 -0.0775  0.2030  0.0588
  180loPI   C6A 2876   3.485   2.849   8.654  0.0729  0.2200  0.0905
  180loPI   C1B 2877   2.748   3.649  10.577 -0.1998 -0.1964  0.0228
  180loPI   C2B 2878   2.790   3.611  10.149  0.1439  0.3928 -0.2145
  180loPI   C3B 2879   2.770   3.608   9.843 -0.1125 -0.1889 -0.2148
  180loPI   C4B 2880   2.608   3.809   9.495  0.0780  0.1693  0.1024
  181loPI    C1 2881   4.451   6.289  11.694  0.0935  0.2517 -0.1667
  181loPI    C2 2882   4.113   6.456  11.562  0.1095  0.2596 -0.1978
  181loPI    C3 2883   4.118   6.267  11.914 -0.0431 -0.1408 -0.4036
  181loPI   PO4 2884   4.647   6.435  11.491 -0.0608 -0.2119 -0.2829
  181loPI   GL1 2885   4.438   6.608  11.156 -0.1890 -0.1159 -0.0529
  181loPI   GL2 2886   4.697   6.697  10.942 -0.0193 -0.1315 -0.0726
  181loPI   C1A 2887   4.381   6.636  10.606  0.0610  0.3631 -0.1814
  181loPI   C2A 2888   4.385   6.662  10.070  0.3744  0.3521 -0.0026
  181loPI   C3A 2889   4.357   6.605   9.651 -0.1007 -0.2142  0.0299
  181loPI   C4A 2890   4.331   6.514   9.247 -0.1244  0.3670  0.0140
  181loPI   C5A 2891   4.472   6.755   8.978 -0.0337  0.0010  0.3405
  181loPI   C6A 2892   4.822   7.111   8.947  0.2225  0.1531 -0.1268
  181loPI   C1B 2893   4.859   6.828  10.493  0.1120  0.0892  0.0650
  181loPI   C2B 2894   4.872   6.804  10.032  0.2906  0.2362  0.1202
  181loPI   C3B 2895   4.950   6.829   9.630  0.1492 -0.2270  0.0601
  181loPI   C4B 2896   4.984   6.677   9.171  0.1201  0.0074 -0.0383
  182loPI    C1 2897   7.884   5.638  11.655 -0.0329 -0.2402 -0.0230
  182loPI    C2 2898   8.222   5.672  11.865  0.0082  0.0595 -0.1323
  182loPI    C3 2899   7.881   5.822  12.010 -0.0502 -0.1144 -0.0878
  182loPI   PO4 2900   7.917   5.730  11.353  0.4431  0.0982  0.0325
  182loPI   GL1 2901   7.995   5.423  11.051 -0.2287 -0.0983  0.3172
  182loPI   GL2 2902   8.290   5.399  10.907 -0.1055 -0.3892 -0.0201
  182loPI   C1A 2903   7.984   5.123  10.655  0.1463 -0.0075 -0.0257
  182loPI   C2A 2904   8.090   4.940  10.391  0.2087  0.1229 -0.3313
  182loPI   C3A 2905   8.090   4.927   9.967  0.1135  0.0477 -0.0977
  182loPI   C4A 2906   8.171   4.895   9.528 -0.0344  0.0052  0.0809
  182loPI   C5A 2907   7.986   4.873   9.077 -0.1352 -0.1146  0.0241
  182loPI   C6A 2908   7.710   4.956   8.758 -0.0153  0.1919  0.0483
  182loPI   C1B 2909   8.184   5.529  10.465  0.2662  0.0746  0.2835
  182loPI   C2B 2910   8.253   5.442  10.090  0.1110  0.0744  0.0368
  182loPI   C3B 2911   8.327   5.401   9.657 -0.1899  0.0905  0.1179
  182loPI   C4B 2912   8.374   5.282   9.246  0.1682  0.2194 -0.0660
  183loPI    C1 2913   4.863   0.787  12.074  0.0360  0.0400  0.0985
  183loPI    C2 2914   5.030   0.431  12.146 -0.0801 -0.0376 -0.0109
  183loPI    C3 2915   5.011   0.706  12.436  0.3291  0.0109 -0.0254
  183loPI   PO4 2916   4.957   0.740  11.764  0.0542  0.2482  0.0309
  183loPI   GL1 2917   5.040   0.771  11.304  0.2836 -0.0449 -0.2868
  183loPI   GL2 2918   5.388   0.748  11.163 -0.0301 -0.2506 -0.1775
  183loPI   C1A 2919   5.055   1.068  11.195  0.1070  0.2815  0.2373
  183loPI   C2A 2920   5.231   1.316  10.863 -0.0359 -0.0922  0.1489
  183loPI   C3A 2921   5.269   1.345  10.460 -0.4219 -0.0709  0.3416
  183loPI   C4A 2922   5.275   1.308   9.923 -0.0063  0.1315 -0.1320
  183loPI   C5A 2923   5.138   1.301   9.476  0.1485  0.0709 -0.1976
  183loPI   C6A 2924   5.045   1.160   9.155 -0.1830 -0.0889  0.1595
  183loPI   C1B 2925   5.121   0.767  10.779  0.0162  0.1861  0.1942
  183loPI   C2B 2926   4.988   0.711  10.374 -0.1939 -0.1149 -0.1824
  183loPI   C3B 2927   5.045   0.798   9.917 -0.0516 -0.2140 -0.1799
  183loPI   C4B 2928   5.050   0.741   9.492  0.5538 -0.2836 -0.2130
  184loPI    C1 2929   3.890   0.757  11.944  0.1332  0.0899 -0.1086
  184loPI    C2 2930   3.587   0.549  12.102  0.0569  0.1281 -0.2033
  184loPI    C3 2931   3.733   0.868  12.294  0.0101  0.1337 -0.1770
  184loPI   PO4 2932   3.957   0.676  11.715  0.0153  0.0397 -0.0272
  184loPI   GL1 2933   4.072   0.739  11.238  0.1187  0.1654  0.3822
  184loPI   GL2 2934   4.176   0.997  11.198  0.1030  0.2272 -0.0655
  184loPI   C1A 2935   3.983   0.587  10.846  0.1777 -0.1344 -0.2179
  184loPI   C2A 2936   4.030   0.700  10.432  0.0304  0.1824  0.1299
  184loPI   C3A 2937   3.992   0.624  10.003  0.3001 -0.0146  0.1231
  184loPI   C4A 2938   3.993   0.724   9.541  0.0996  0.0003  0.0394
  184loPI   C5A 2939   3.951   0.651   9.223 -0.0397  0.0460 -0.0397
  184loPI   C6A 2940   3.924   0.707   8.819  0.1087 -0.0321 -0.2923
  184loPI   C1B 2941   4.171   1.104  10.750 -0.0029 -0.0348  0.1283
  184loPI   C2B 2942   4.243   1.308  10.384 -0.0844  0.1257 -0.0256
  184loPI   C3B 2943   4.173   1.131  10.005  0.0982  0.4280 -0.3610
  184loPI   C4B 2944   4.195   1.210   9.548  0.0006  0.0122  0.3120
  185loPI    C1 2945   9.085   6.566  11.657 -0.0047 -0.2666 -0.1186
  185loPI    C2 2946   8.828   6.867  11.598  0.2645 -0.0121 -0.0122
  185loPI    C3 2947   9.198   6.942  11.733  0.2836 -0.4062  0.1677
  185loPI   PO4 2948   8.971   6.429  11.480  0.1834  0.0367 -0.1444
  185loPI   GL1 2949   9.060   6.640  11.028  0.1103  0.1855  0.2371
  185loPI   GL2 2950   9.117   6.879  11.244  0.2542  0.1354 -0.1304
  185loPI   C1A 2951   9.146   6.485  10.606 -0.2083  0.1374 -0.1922
  185loPI   C2A 2952   9.143   6.408  10.163 -0.0822  0.0295  0.1656
  185loPI   C3A 2953   9.187   6.574   9.717 -0.1054 -0.1919 -0.2561
  185loPI   C4A 2954   9.120   6.545   9.258  0.2505 -0.0831 -0.1502
  185loPI   C5A 2955   8.838   6.741   8.957 -0.3633  0.0121  0.0717
  185loPI   C6A 2956   8.739   7.081   9.057 -0.0960 -0.0494  0.0378
  185loPI   C1B 2957   8.890   6.921  10.695  0.0093 -0.1280  0.0018
  185loPI   C2B 2958   8.867   6.858  10.261  0.2991 -0.2540 -0.0463
  185loPI   C3B 2959   8.871   6.935   9.924 -0.1083  0.2913 -0.1501
  185loPI   C4B 2960   8.836   6.851   9.502 -0.1672 -0.0302 -0.0977
  186loPI    C1 2961   1.481  16.493  11.587  0.1352 -0.0873  0.1206
  186loPI    C2 2962   1.377  16.307  11.925  0.1658 -0.0324  0.1605
  186loPI    C3 2963   1.108  16.358  11.634  0.0627  0.1665  0.2889
  186loPI   PO4 2964   1.599  16.664  11.675 -0.0463  0.1397  0.1270
  186loPI   GL1 2965   1.857  16.820  11.295  0.1029  0.1083 -0.0929
  186loPI   GL2 2966   2.189  16.775  11.149  0.0161  0.2018  0.2168
  186loPI   C1A 2967   1.547  16.708  11.030 -0.0059 -0.4243 -0.1935
  186loPI   C2A 2968   1.594  16.798  10.605  0.2674 -0.0185  0.0019
  186loPI   C3A 2969   1.600  16.738  10.175  0.2556  0.2120 -0.1795
  186loPI   C4A 2970   1.564  16.647   9.692  0.1414 -0.1064  0.1154
  186loPI   C5A 2971   1.615  16.811   9.240 -0.0388  0.0174  0.1406
  186loPI   C6A 2972   1.657  16.775   8.830  0.1901  0.0478 -0.0239
  186loPI   C1B 2973   2.116  16.783  10.647 -0.0939 -0.1995 -0.1594
  186loPI   C2B 2974   2.114  16.765  10.191 -0.1038  0.0871 -0.0823
  186loPI   C3B 2975   2.013  16.766   9.824 -0.0287  0.1855  0.1102
  186loPI   C4B 2976   2.044  16.701   9.364  0.0518 -0.1055 -0.2174
  187loPI    C1 2977   7.691   8.194  11.594 -0.1100 -0.2182  0.0080
  187loPI    C2 2978   7.403   8.464  11.533  0.0233 -0.1256 -0.2253
  187loPI    C3 2979   7.368   8.198  11.830 -0.1082  0.1486  0.0106
  187loPI   PO4 2980   7.924   8.312  11.495 -0.0746 -0.0171 -0.0720
  187loPI   GL1 2981   8.103   8.257  11.129 -0.2433 -0.2516  0.2297
  187loPI   GL2 2982   7.795   8.129  11.084  0.3774 -0.0652 -0.0916
  187loPI   C1A 2983   8.052   8.518  10.769 -0.0920  0.1979  0.3271
  187loPI   C2A 2984   8.071   8.551  10.315  0.0461  0.0733  0.1108
  187loPI   C3A 2985   8.121   8.543   9.914  0.0198  0.3167 -0.2032
  187loPI   C4A 2986   8.051   8.655   9.490  0.1232  0.2093  0.0400
  187loPI   C5A 2987   8.018   8.580   9.016  0.1065 -0.0728 -0.2738
  187loPI   C6A 2988   7.999   8.477   8.517 -0.2538 -0.0079  0.2191
  187loPI   C1B 2989   7.771   8.080  10.692 -0.0251 -0.1505 -0.1010
  187loPI   C2B 2990   7.875   8.103  10.257 -0.0985 -0.1349 -0.1855
  187loPI   C3B 2991   7.937   8.131   9.792  0.1545 -0.0545 -0.1293
  187loPI   C4B 2992   7.861   8.144   9.342  0.3136  0.3104 -0.2504
  188loPI    C1 2993  13.789   9.093  11.676  0.0301  0.1282  0.0269
  188loPI    C2 2994  14.158   9.244  11.653 -0.0023  0.1855 -0.1289
  188loPI    C3 2995  13.979   9.206  12.009  0.1192  0.2399 -0.0613
  188loPI   PO4 2996  13.672   9.239  11.468  0.1614  0.0339  0.3000
  188loPI   GL1 2997  13.585   9.249  11.109  0.0543  0.0896 -0.1122
  188loPI   GL2 2998  13.683   9.563  10.939  0.0661  0.2602 -0.1549
  188loPI   C1A 2999  13.574   8.953  10.751  0.0695  0.0832 -0.0625
  188loPI   C2A 3000  13.579   8.945  10.385  0.2465 -0.0352  0.0070
  188loPI   C3A 3001  13.440   8.931   9.991 -0.0075  0.2456  0.0378
  188loPI   C4A 3002  13.548   8.904   9.612  0.0052  0.1690 -0.0272
  188loPI   C5A 3003  13.489   8.965   9.222 -0.0859 -0.0390 -0.1406
  188loPI   C6A 3004  13.689   9.037   8.897 -0.0623 -0.1917  0.1151
  188loPI   C1B 3005  13.725   9.376  10.543 -0.2571  0.2294  0.0785
  188loPI   C2B 3006  13.674   9.386  10.089  0.0213  0.0154  0.0546
  188loPI   C3B 3007  13.669   9.367   9.693 -0.2051  0.1187 -0.0072
  188loPI   C4B 3008  13.647   9.468   9.262  0.0225 -0.1524 -0.0383
  189loPI    C1 3009  10.847   7.205  11.514 -0.0736 -0.0743 -0.0645
  189loPI    C2 3010  10.515   7.142  11.727  0.0328 -0.0461  0.1117
  189loPI    C3 3011  10.858   7.227  11.914  0.1265 -0.0174 -0.0722
  189loPI   PO4 3012  10.871   7.020  11.312 -0.1155 -0.1185  0.1851
  189loPI   GL1 3013  10.487   6.966  11.143  0.0639  0.0349  0.0717
  189loPI   GL2 3014  10.262   6.756  10.954 -0.0793  0.2341 -0.3109
  189loPI   C1A 3015  10.501   7.090  10.744  0.0871 -0.1716  0.4554
  189loPI   C2A 3016  10.403   7.088  10.258  0.0670  0.0525 -0.0333
  189loPI   C3A 3017  10.388   7.083   9.764 -0.0460  0.1963 -0.1012
  189loPI   C4A 3018  10.407   7.126   9.299 -0.1492 -0.0116 -0.0337
  189loPI   C5A 3019  10.205   7.194   8.903  0.4895  0.1741 -0.1885
  189loPI   C6A 3020   9.995   6.960   8.632  0.1430  0.2122  0.1244
  189loPI   C1B 3021  10.240   6.673  10.496  0.2097  0.0351  0.3330
  189loPI   C2B 3022  10.170   6.657  10.072  0.0005  0.0880 -0.0144
  189loPI   C3B 3023  10.103   6.587   9.611 -0.2695 -0.1030  0.0111
  189loPI   C4B 3024  10.084   6.718   9.109 -0.0140  0.1722 -0.1498
  190loPI    C1 3025  14.958  16.152  12.071 -0.0475  0.0111 -0.2818
  190loPI    C2 3026  14.656  16.389  12.184 -0.1789 -0.1840 -0.2186
  190loPI    C3 3027  14.888  16.217  12.460 -0.1479 -0.2110 -0.2613
  190loPI   PO4 3028  14.882  16.193  11.757 -0.0329  0.1997 -0.1706
  190loPI   GL1 3029  14.945  16.127  11.340 -0.0278 -0.1484  0.1148
  190loPI   GL2 3030  15.231  16.170  11.248  0.3311 -0.2125  0.0373
  190loPI   C1A 3031  14.760  16.022  10.903  0.1584 -0.1094  0.0307
  190loPI   C2A 3032  14.876  15.981  10.463 -0.2378  0.1222 -0.1360
  190loPI   C3A 3033  14.956  16.052   9.996 -0.0596  0.1981  0.0283
  190loPI   C4A 3034  14.943  16.058   9.603  0.0260  0.2552 -0.2663
  190loPI   C5A 3035  14.978  16.046   9.167 -0.1879 -0.4958 -0.1357
  190loPI   C6A 3036  15.286  16.129   8.937  0.0375 -0.1533  0.0401
  190loPI   C1B 3037  15.308  16.102  10.779  0.0201 -0.0586  0.0287
  190loPI   C2B 3038  15.315  16.184  10.354  0.0935  0.1780 -0.2700
  190loPI   C3B 3039  15.424  16.234   9.881  0.0315 -0.0990 -0.0378
  190loPI   C4B 3040  15.484  16.165   9.408 -0.0231  0.2294  0.2914
  191loPI    C1 3041   9.802  16.500  11.890  0.1686  0.1110  0.0042
  191loPI    C2 3042   9.815  16.873  12.035 -0.0219  0.1210 -0.0016
  191loPI    C3 3043   9.501  16.638  12.115  0.0212  0.0173 -0.1338
  191loPI   PO4 3044   9.811  16.480  11.671 -0.3575  0.1429 -0.2733
  191loPI   GL1 3045   9.842  16.463  11.341 -0.1054 -0.1864  0.3555
  191loPI   GL2 3046  10.090  16.355  11.129 -0.5342 -0.0086  0.1925
  191loPI   C1A 3047   9.741  16.715  10.936  0.0037  0.0668 -0.1126
  191loPI   C2A 3048   9.890  16.665  10.542 -0.0978 -0.2324 -0.1135
  191loPI   C3A 3049   9.798  16.587  10.106 -0.0097 -0.1114  0.0663
  191loPI   C4A 3050   9.823  16.538   9.692  0.2295  0.0535  0.0024
  191loPI   C5A 3051   9.803  16.507   9.305  0.0428  0.1230 -0.0494
  191loPI   C6A 3052   9.882  16.342   8.903 -0.3319  0.2037 -0.0438
  191loPI   C1B 3053  10.088  16.263  10.681 -0.1249 -0.0969  0.3300
  191loPI   C2B 3054  10.088  16.214  10.205  0.1239  0.0899  0.2714
  191loPI   C3B 3055  10.121  16.115   9.765  0.0393 -0.2184  0.1418
  191loPI   C4B 3056  10.123  16.144   9.375  0.0636  0.1186 -0.0801
  192loPI    C1 3057  14.720  11.222  11.715  0.0333  0.2115 -0.3828
  192loPI    C2 3058  15.021  11.341  11.481  0.2617  0.1239 -0.1386
  192loPI    C3 3059  15.072  11.322  11.877 -0.0823  0.1553 -0.0903
  192loPI   PO4 3060  14.632  10.986  11.573 -0.1044 -0.0563 -0.1439
  192loPI   GL1 3061  14.578  10.922  11.183  0.0226  0.0341 -0.0110
  192loPI   GL2 3062  14.255  10.920  11.004  0.2312  0.1699  0.0943
  192loPI   C1A 3063  14.725  10.979  10.752 -0.1887 -0.1031  0.3614
  192loPI   C2A 3064  14.805  11.095  10.314  0.1178  0.0142 -0.0245
  192loPI   C3A 3065  14.848  10.981   9.933 -0.2701 -0.0625 -0.1255
  192loPI   C4A 3066  14.929  11.029   9.449 -0.0566 -0.0682  0.0919
  192loPI   C5A 3067  14.834  11.336   9.095 -0.1490 -0.2074  0.0056
  192loPI   C6A 3068  14.709  11.433   8.711 -0.3837 -0.2534 -0.0231
  192loPI   C1B 3069  14.296  10.937  10.505 -0.1331  0.0278  0.1059
  192loPI   C2B 3070  14.344  10.884  10.055 -0.1639  0.2492  0.1385
  192loPI   C3B 3071  14.278  10.945   9.634  0.1513 -0.2272 -0.0590
  192loPI   C4B 3072  14.509  10.977   9.172  0.0166  0.1122 -0.0688
  193loPI    C1 3073   8.080  12.452  11.796 -0.2325  0.4057  0.0304
  193loPI    C2 3074   8.213  12.335  12.155  0.1632  0.2440 -0.1625
  193loPI    C3 3075   7.820  12.375  12.090  0.0709 -0.0357  0.1937
  193loPI   PO4 3076   8.123  12.337  11.634 -0.0236 -0.2710  0.1603
  193loPI   GL1 3077   7.958  12.378  11.248 -0.3248 -0.1743 -0.1744
  193loPI   GL2 3078   7.779  12.595  11.153 -0.0273 -0.1736  0.0050
  193loPI   C1A 3079   8.230  12.573  10.925  0.1065  0.0889 -0.3352
  193loPI   C2A 3080   8.270  12.758  10.503  0.1874 -0.2349 -0.0032
  193loPI   C3A 3081   8.282  12.680  10.048  0.1512 -0.0205 -0.0508
  193loPI   C4A 3082   8.247  12.758   9.481 -0.0093 -0.0362 -0.1135
  193loPI   C5A 3083   8.176  12.700   9.056  0.0111 -0.0295 -0.0628
  193loPI   C6A 3084   8.344  12.797   8.703 -0.1088 -0.1281 -0.1159
  193loPI   C1B 3085   7.837  12.639  10.724  0.5053  0.1297 -0.1207
  193loPI   C2B 3086   7.801  12.566  10.216  0.2645 -0.0381 -0.1375
  193loPI   C3B 3087   7.811  12.711   9.847  0.3587  0.1129 -0.0071
  193loPI   C4B 3088   7.725  12.632   9.388  0.0402  0.0394  0.3674
  194loPI    C1 3089  15.025   9.863  11.526 -0.0939 -0.0715 -0.0464
  194loPI    C2 3090  14.957  10.149  11.798  0.1095 -0.0947  0.0304
  194loPI    C3 3091  14.801   9.784  11.848  0.0314 -0.0596  0.0445
  194loPI   PO4 3092  15.307   9.909  11.509  0.1459 -0.0138 -0.1161
  194loPI   GL1 3093  15.383   9.961  11.125 -0.0401 -0.0086 -0.3619
  194loPI   GL2 3094  15.459  10.243  10.908 -0.0511 -0.4164 -0.1009
  194loPI   C1A 3095  15.292   9.777  10.762  0.1831  0.1037  0.0994
  194loPI   C2A 3096  15.309   9.698  10.298  0.2697 -0.0463  0.0526
  194loPI   C3A 3097  15.228   9.755   9.878 -0.0893  0.2794  0.3484
  194loPI   C4A 3098  15.225   9.739   9.417 -0.1417  0.1981  0.1326
  194loPI   C5A 3099  15.154   9.539   9.051 -0.5401  0.3701  0.1169
  194loPI   C6A 3100  15.440   9.536   8.713 -0.0001 -0.3225  0.1580
  194loPI   C1B 3101  15.429  10.179  10.457 -0.1641  0.0575  0.2604
  194loPI   C2B 3102  15.415  10.176   9.978  0.2866 -0.0170  0.2277
  194loPI   C3B 3103  15.379  10.210   9.582 -0.0017  0.2565 -0.0264
  194loPI   C4B 3104  15.299  10.126   9.043 -0.1163 -0.0623  0.0640
  195loPI    C1 3105   3.830  16.675  12.077  0.1990 -0.0725  0.0400
  195loPI    C2 3106   3.439  16.756  12.095  0.1702 -0.2149  0.0683
  195loPI    C3 3107   3.647  16.695  12.432  0.2928  0.2091  0.0748
  195loPI   PO4 3108   3.829  16.862  11.827 -0.0446  0.1592 -0.5010
  195loPI   GL1 3109   3.705  16.982  11.349 -0.0584  0.0841 -0.2059
  195loPI   GL2 3110   3.870  16.616  11.289  0.2022  0.1760 -0.2274
  195loPI   C1A 3111   3.678  17.016  10.995  0.0731 -0.0586 -0.1667
  195loPI   C2A 3112   3.661  17.055  10.588 -0.3048 -0.1017 -0.1557
  195loPI   C3A 3113   3.661  17.069  10.209 -0.2045  0.1267  0.3652
  195loPI   C4A 3114   3.676  17.135   9.689  0.1821  0.1181 -0.2095
  195loPI   C5A 3115   3.626  17.240   9.314 -0.0843 -0.2348 -0.0712
  195loPI   C6A 3116   3.334  17.280   8.920 -0.0906  0.1939 -0.1018
  195loPI   C1B 3117   3.966  16.669  10.873  0.0549 -0.2975  0.1207
  195loPI   C2B 3118   3.962  16.670  10.472  0.2936  0.0372 -0.0415
  195loPI   C3B 3119   3.985  16.667  10.073 -0.0427 -0.1362 -0.0315
  195loPI   C4B 3120   3.907  16.670   9.585 -0.2022  0.1874  0.1435
  196loPI    C1 3121  12.723  13.605  12.060 -0.0566  0.1017  0.0902
  196loPI    C2 3122  12.893  13.772  12.382  0.2810 -0.1267  0.0356
  196loPI    C3 3123  12.805  13.381  12.381 -0.2526 -0.0149  0.0605
  196loPI   PO4 3124  12.793  13.849  11.830 -0.1627 -0.2165 -0.1470
  196loPI   GL1 3125  12.906  13.854  11.386  0.1227  0.0372 -0.2485
  196loPI   GL2 3126  12.670  13.938  11.196 -0.1394  0.1271  0.0055
  196loPI   C1A 3127  13.113  13.965  11.024 -0.0431  0.0792 -0.0336
  196loPI   C2A 3128  13.084  13.874  10.629  0.0290 -0.1484  0.2348
  196loPI   C3A 3129  13.093  13.962  10.194  0.1091  0.0664 -0.2350
  196loPI   C4A 3130  13.127  13.812   9.802 -0.2919  0.1480  0.1157
  196loPI   C5A 3131  13.058  13.740   9.274 -0.3447  0.1660  0.0713
  196loPI   C6A 3132  12.919  13.598   8.909  0.0913 -0.0314  0.2287
  196loPI   C1B 3133  12.523  13.783  10.754 -0.2283 -0.1288 -0.2790
  196loPI   C2B 3134  12.561  13.811  10.324 -0.4291  0.1359 -0.3073
  196loPI   C3B 3135  12.594  13.886   9.900 -0.2693  0.1051 -0.0734
  196loPI   C4B 3136  12.555  13.715   9.530 -0.0561  0.1652 -0.0243
  197loPI    C1 3137  13.187  13.539  11.724  0.0391 -0.2154  0.1444
  197loPI    C2 3138  13.567  13.511  11.846  0.0561 -0.0434  0.1341
  197loPI    C3 3139  13.276  13.585  12.111  0.0688  0.1337  0.0998
  197loPI   PO4 3140  13.186  13.371  11.510 -0.2639 -0.0052  0.0826
  197loPI   GL1 3141  13.112  13.460  11.141 -0.1613 -0.1899  0.1221
  197loPI   GL2 3142  12.808  13.445  11.046  0.0286  0.1341 -0.0623
  197loPI   C1A 3143  13.191  13.204  10.823  0.0163  0.0068 -0.1002
  197loPI   C2A 3144  13.235  13.025  10.436  0.3648 -0.1698  0.1276
  197loPI   C3A 3145  13.309  12.951   9.981  0.2371  0.1580 -0.0483
  197loPI   C4A 3146  13.213  13.059   9.559 -0.2518  0.1366 -0.2182
  197loPI   C5A 3147  13.161  13.210   9.231 -0.0290  0.2704 -0.2932
  197loPI   C6A 3148  13.204  13.104   8.835  0.1001  0.2964 -0.0936
  197loPI   C1B 3149  12.855  13.404  10.563 -0.0118 -0.2183  0.0463
  197loPI   C2B 3150  12.892  13.508  10.108  0.1242 -0.0105  0.0927
  197loPI   C3B 3151  12.841  13.374   9.704 -0.0894  0.3797  0.4558
  197loPI   C4B 3152  12.724  13.306   9.261  0.0424 -0.2605 -0.0415
  198loPI    C1 3153  11.169  12.089  11.551 -0.0419  0.1062 -0.1530
  198loPI    C2 3154  10.903  12.243  11.807  0.1009 -0.0664  0.1039
  198loPI    C3 3155  11.051  11.877  11.869  0.1622 -0.0975 -0.2106
  198loPI   PO4 3156  11.174  12.337  11.357  0.0153  0.1316 -0.2067
  198loPI   GL1 3157  11.332  12.402  10.953 -0.0407 -0.2282 -0.1549
  198loPI   GL2 3158  11.531  12.255  10.730 -0.2052 -0.0408  0.0611
  198loPI   C1A 3159  11.031  12.245  10.608 -0.3014 -0.1714  0.1084
  198loPI   C2A 3160  10.944  12.204  10.182 -0.0189 -0.2429 -0.2496
  198loPI   C3A 3161  10.970  12.171   9.735  0.0328 -0.3043 -0.1428
  198loPI   C4A 3162  10.861  12.194   9.291 -0.2091 -0.0495  0.1945
  198loPI   C5A 3163  10.811  12.034   8.863 -0.1219  0.0217  0.2753
  198loPI   C6A 3164  10.918  11.850   8.416 -0.1501 -0.1420  0.0716
  198loPI   C1B 3165  11.428  12.306  10.329 -0.0641 -0.2476  0.1946
  198loPI   C2B 3166  11.485  12.200   9.914 -0.0749 -0.0375 -0.0047
  198loPI   C3B 3167  11.400  12.278   9.453  0.0655  0.0307 -0.0098
  198loPI   C4B 3168  11.421  12.143   9.022 -0.0989 -0.1289 -0.0257
  199loPI    C1 3169   9.717  15.555  11.515 -0.0021 -0.0167 -0.0393
  199loPI    C2 3170   9.559  15.525  11.882  0.0769  0.4191  0.0358
  199loPI    C3 3171   9.333  15.449  11.560 -0.0170  0.1198  0.1681
  199loPI   PO4 3172  10.014  15.431  11.513  0.2069  0.0451 -0.0940
  199loPI   GL1 3173  10.154  15.225  11.142  0.0921 -0.1171 -0.1181
  199loPI   GL2 3174  10.239  14.916  11.057 -0.1321  0.4460  0.3697
  199loPI   C1A 3175  10.244  15.343  10.784  0.0663 -0.2446 -0.2373
  199loPI   C2A 3176  10.231  15.382  10.334  0.1080  0.1132 -0.6394
  199loPI   C3A 3177  10.266  15.271   9.891  0.0054 -0.1738  0.0767
  199loPI   C4A 3178  10.235  15.229   9.453 -0.1619 -0.1074 -0.1018
  199loPI   C5A 3179   9.926  15.382   8.991  0.1737 -0.3350 -0.2716
  199loPI   C6A 3180   9.865  15.496   8.542  0.2324  0.1328 -0.2051
  199loPI   C1B 3181  10.007  14.868  10.749  0.2449 -0.1577  0.0510
  199loPI   C2B 3182  10.132  14.864  10.191 -0.2228  0.1450 -0.1224
  199loPI   C3B 3183  10.051  14.801   9.773 -0.2282 -0.3253  0.0398
  199loPI   C4B 3184   9.993  14.807   9.304 -0.0342  0.1275  0.3319
  200loPI    C1 3185   6.509  13.682  11.874 -0.1781 -0.1052 -0.1316
  200loPI    C2 3186   6.811  13.628  12.131  0.0130 -0.3387 -0.3997
  200loPI    C3 3187   6.522  13.891  12.215  0.2540 -0.1607 -0.1084
  200loPI   PO4 3188   6.653  13.657  11.649  0.0836  0.1267 -0.1411
  200loPI   GL1 3189   6.621  13.681  11.220 -0.0092  0.3563  0.3080
  200loPI   GL2 3190   6.397  13.822  11.127  0.0719  0.0154 -0.2915
  200loPI   C1A 3191   6.711  13.395  10.837  0.0475 -0.0640  0.2510
  200loPI   C2A 3192   6.656  13.352  10.447 -0.2919 -0.2172  0.1560
  200loPI   C3A 3193   6.568  13.396  10.009  0.0015 -0.1223 -0.0985
  200loPI   C4A 3194   6.597  13.367   9.606  0.1876 -0.1810 -0.2180
  200loPI   C5A 3195   6.602  13.416   9.164  0.2225  0.1886 -0.0182
  200loPI   C6A 3196   6.298  13.492   8.801 -0.0396  0.1066  0.0333
  200loPI   C1B 3197   6.356  13.774  10.736 -0.1883 -0.0766  0.0027
  200loPI   C2B 3198   6.277  13.762  10.241 -0.2331  0.2274 -0.0814
  200loPI   C3B 3199   6.245  13.869   9.765  0.1030 -0.0163  0.1507
  200loPI   C4B 3200   6.340  13.803   9.357 -0.1479  0.0489 -0.1379
  201loPI    C1 3201   5.426   3.024  11.548  0.2537 -0.0176 -0.1799
  201loPI    C2 3202   5.260   3.374  11.451 -0.0965 -0.1395 -0.0385
  201loPI    C3 3203   5.568   3.363  11.706 -0.2539  0.0459  0.1635
  201loPI   PO4 3204   5.299   2.876  11.494  0.0875 -0.1034  0.1093
  201loPI   GL1 3205   5.303   2.609  11.081 -0.1160  0.0119 -0.2379
  201loPI   GL2 3206   5.003   2.745  11.037  0.1564  0.1930  0.2240
  201loPI   C1A 3207   5.551   2.378  10.920 -0.1960 -0.3720  0.2969
  201loPI   C2A 3208   5.696   2.224  10.524 -0.3267 -0.0151  0.0464
  201loPI   C3A 3209   5.680   2.219  10.083 -0.2417 -0.0162  0.1667
  201loPI   C4A 3210   5.668   2.204   9.632  0.0616 -0.1306 -0.2433
  201loPI   C5A 3211   5.647   2.354   9.116  0.1051 -0.0701 -0.0396
  201loPI   C6A 3212   5.496   2.604   8.758  0.1488 -0.1331 -0.0228
  201loPI   C1B 3213   5.244   2.581  10.569 -0.2265 -0.0204 -0.1042
  201loPI   C2B 3214   5.301   2.541  10.092 -0.3354  0.1669  0.0756
  201loPI   C3B 3215   5.358   2.599   9.711  0.1208 -0.3770  0.0148
  201loPI   C4B 3216   5.314   2.696   9.242 -0.3230  0.2551 -0.0451
  202loPI    C1 3217   1.690  15.537  11.399 -0.0257  0.1063 -0.0339
  202loPI    C2 3218   1.828  15.650  11.757 -0.0065 -0.0691  0.0150
  202loPI    C3 3219   2.013  15.771  11.425 -0.1285  0.2396  0.0562
  202loPI   PO4 3220   1.680  15.321  11.363  0.0772 -0.2290 -0.1434
  202loPI   GL1 3221   1.766  15.016  11.042 -0.0091 -0.1140  0.0929
  202loPI   GL2 3222   1.544  14.806  11.087  0.1853  0.4142  0.3543
  202loPI   C1A 3223   1.717  14.937  10.607  0.3401 -0.1143 -0.1202
  202loPI   C2A 3224   1.745  14.860  10.168 -0.0964 -0.2551 -0.0850
  202loPI   C3A 3225   1.930  15.045   9.714 -0.2669  0.0532 -0.0254
  202loPI   C4A 3226   1.856  14.853   9.357  0.0321 -0.2923 -0.0092
  202loPI   C5A 3227   1.938  14.988   8.948 -0.0909 -0.1112  0.1608
  202loPI   C6A 3228   2.107  14.979   8.490  0.2910 -0.0025 -0.1591
  202loPI   C1B 3229   1.254  14.825  10.848  0.0499 -0.2528  0.0800
  202loPI   C2B 3230   1.282  14.792  10.402  0.2262 -0.0015 -0.1157
  202loPI   C3B 3231   1.332  14.751   9.956  0.2215 -0.2338 -0.0281
  202loPI   C4B 3232   1.326  14.858   9.519 -0.0796 -0.0659  0.1811
  203loPI    C1 3233   1.336  11.001  11.743  0.0552 -0.0651 -0.0570
  203loPI    C2 3234   1.396  11.234  12.062  0.2767 -0.1070 -0.0667
  203loPI    C3 3235   1.048  11.044  12.017  0.1866  0.0235  0.0689
  203loPI   PO4 3236   1.395  11.036  11.474  0.0531 -0.1459 -0.2837
  203loPI   GL1 3237   1.146  11.412  11.143  0.0838  0.0424  0.0943
  203loPI   GL2 3238   0.892  11.435  11.076  0.0173 -0.1265 -0.3153
  203loPI   C1A 3239   1.349  11.174  10.834 -0.1634 -0.0936 -0.1324
  203loPI   C2A 3240   1.425  11.225  10.324  0.2473  0.1942 -0.0953
  203loPI   C3A 3241   1.329  11.277   9.921  0.0966  0.0320 -0.0046
  203loPI   C4A 3242   1.292  11.359   9.538 -0.1026 -0.0442  0.1268
  203loPI   C5A 3243   1.314  11.406   9.112 -0.0392  0.2012 -0.1096
  203loPI   C6A 3244   1.212  11.154   8.810  0.0578 -0.1535  0.1068
  203loPI   C1B 3245   0.960  11.607  10.673 -0.4703  0.2308 -0.3979
  203loPI   C2B 3246   1.037  11.603  10.204  0.0371 -0.1401  0.1956
  203loPI   C3B 3247   1.009  11.726   9.809  0.1261 -0.3249 -0.0308
  203loPI   C4B 3248   1.009  11.716   9.408  0.0805 -0.1936 -0.2756
  204loPI    C1 3249  11.506  10.367  11.784 -0.2303  0.0688 -0.2001
  204loPI    C2 3250  11.236  10.629  11.921 -0.1204 -0.0305  0.2193
  204loPI    C3 3251  11.153  10.237  11.920  0.0673 -0.0735  0.4756
  204loPI   PO4 3252  11.624  10.481  11.578 -0.0545 -0.1248  0.0966
  204loPI   GL1 3253  11.670  10.572  11.087 -0.2784 -0.1420  0.0030
  204loPI   GL2 3254  11.471  10.862  10.987  0.1117 -0.2446  0.0700
  204loPI   C1A 3255  11.842  10.539  10.741  0.2942  0.0513  0.0844
  204loPI   C2A 3256  11.678  10.442  10.297  0.1515  0.2457 -0.4622
  204loPI   C3A 3257  11.658  10.441   9.879  0.1527 -0.1366 -0.1268
  204loPI   C4A 3258  11.712  10.507   9.443  0.0747 -0.1097  0.1456
  204loPI   C5A 3259  11.661  10.470   9.002 -0.1441  0.2562 -0.3310
  204loPI   C6A 3260  11.621  10.401   8.544 -0.0321  0.0668 -0.0949
  204loPI   C1B 3261  11.480  10.891  10.571  0.1078 -0.1586  0.1961
  204loPI   C2B 3262  11.398  10.924  10.126 -0.0102 -0.0950  0.0096
  204loPI   C3B 3263  11.342  10.868   9.782 -0.0383  0.1060 -0.2708
  204loPI   C4B 3264  11.356  10.853   9.315 -0.0677 -0.0407 -0.1444
  205loPI    C1 3265   3.560   8.555  11.824 -0.0939  0.0617  0.1534
  205loPI    C2 3266   3.839   8.821  11.718 -0.1775  0.1525  0.1600
  205loPI    C3 3267   3.679   8.834  12.085  0.0376 -0.0972  0.2655
  205loPI   PO4 3268   3.410   8.575  11.548 -0.0780 -0.3808  0.2521
  205loPI   GL1 3269   3.603   8.881  11.233 -0.4242  0.0840 -0.1145
  205loPI   GL2 3270   3.288   8.801  10.997  0.0747 -0.2074 -0.1778
  205loPI   C1A 3271   3.796   8.874  10.770 -0.1283  0.1553  0.0260
  205loPI   C2A 3272   3.864   8.882  10.438 -0.2405  0.0267 -0.0508
  205loPI   C3A 3273   3.717   8.906  10.058 -0.2606  0.3255 -0.0097
  205loPI   C4A 3274   3.864   8.946   9.580 -0.1731  0.0298 -0.2168
  205loPI   C5A 3275   3.736   8.904   9.197 -0.1599 -0.1179 -0.2761
  205loPI   C6A 3276   3.643   9.017   8.816 -0.2684 -0.1076  0.1032
  205loPI   C1B 3277   3.353   8.777  10.550 -0.0241 -0.0798  0.1968
  205loPI   C2B 3278   3.248   8.805  10.013  0.0960 -0.0015 -0.2537
  205loPI   C3B 3279   3.296   8.882   9.534  0.1335 -0.2484  0.0787
  205loPI   C4B 3280   3.301   8.596   9.193  0.2534  0.2511 -0.0141
  206loPI    C1 3281  10.346  13.385  11.612  0.2284  0.0095  0.0706
  206loPI    C2 3282  10.517  13.067  11.785  0.0428 -0.0333  0.1789
  206loPI    C3 3283  10.403  13.379  12.008  0.0090  0.0083  0.1038
  206loPI   PO4 3284  10.446  13.502  11.304 -0.1530  0.2920  0.2124
  206loPI   GL1 3285  10.462  13.709  11.005 -0.2300 -0.0223 -0.0605
  206loPI   GL2 3286  10.672  13.952  10.904  0.1950 -0.0480 -0.1693
  206loPI   C1A 3287  10.414  13.493  10.610 -0.0669  0.2044 -0.2211
  206loPI   C2A 3288  10.626  13.516  10.203 -0.1568  0.2129 -0.1064
  206loPI   C3A 3289  10.430  13.500   9.672 -0.1788 -0.1171  0.0204
  206loPI   C4A 3290  10.475  13.506   9.269  0.0410 -0.0140 -0.0597
  206loPI   C5A 3291  10.397  13.511   8.861  0.1251  0.0747  0.0953
  206loPI   C6A 3292  10.023  13.356   8.627 -0.0057 -0.1239 -0.0162
  206loPI   C1B 3293  10.612  14.008  10.446 -0.1528 -0.1237 -0.0173
  206loPI   C2B 3294  10.659  13.995  10.028  0.1475  0.0607 -0.1213
  206loPI   C3B 3295  10.678  13.964   9.598  0.0472  0.1927  0.2761
  206loPI   C4B 3296  10.590  14.016   9.083 -0.0223  0.3399  0.2453
  207loPI    C1 3297   9.655   4.584  11.756 -0.0587  0.0990  0.1692
  207loPI    C2 3298   9.341   4.566  12.003 -0.0169 -0.0462  0.2124
  207loPI    C3 3299   9.548   4.234  11.917  0.0929  0.0394  0.1425
  207loPI   PO4 3300   9.467   4.831  11.579  0.0737 -0.0762 -0.0423
  207loPI   GL1 3301   9.514   4.819  11.141  0.1209 -0.2669  0.0745
  207loPI   GL2 3302   9.756   4.624  10.982 -0.3904 -0.0154 -0.0543
  207loPI   C1A 3303   9.514   5.120  10.853 -0.1210  0.0980 -0.1179
  207loPI   C2A 3304   9.545   5.191  10.403  0.1197 -0.0213  0.2590
  207loPI   C3A 3305   9.599   5.243  10.028  0.0385 -0.0353 -0.1131
  207loPI   C4A 3306   9.651   5.107   9.675  0.1253 -0.1673 -0.0282
  207loPI   C5A 3307   9.633   5.153   9.218  0.1899 -0.1794  0.0917
  207loPI   C6A 3308   9.309   5.318   8.977 -0.1696 -0.1606 -0.3119
  207loPI   C1B 3309   9.985   4.643  10.611  0.2044 -0.1066  0.1030
  207loPI   C2B 3310  10.010   4.746  10.231 -0.2549  0.0586 -0.1860
  207loPI   C3B 3311   9.935   4.758   9.839  0.2519 -0.0559 -0.1473
  207loPI   C4B 3312   9.928   4.736   9.416  0.0170 -0.2073 -0.0527
  208loPI    C1 3313   3.645   2.178  11.695  0.2648 -0.0488 -0.1929
  208loPI    C2 3314   3.771   2.419  11.989  0.0770 -0.0773 -0.0876
  208loPI    C3 3315   3.634   2.053  12.075 -0.0098 -0.0736 -0.2071
  208loPI   PO4 3316   3.489   2.356  11.562  0.0162 -0.0316  0.0810
  208loPI   GL1 3317   3.423   2.422  11.157 -0.0794 -0.3062 -0.0205
  208loPI   GL2 3318   3.714   2.474  11.034 -0.4071 -0.1625  0.0782
  208loPI   C1A 3319   3.208   2.362  10.645 -0.0451 -0.3162 -0.2719
  208loPI   C2A 3320   3.226   2.359  10.169 -0.0072  0.2881  0.0494
  208loPI   C3A 3321   3.283   2.427   9.706  0.3019  0.0285 -0.2056
  208loPI   C4A 3322   3.142   2.474   9.272  0.0107  0.1412 -0.2356
  208loPI   C5A 3323   2.889   2.411   8.904 -0.0503 -0.2485  0.1705
  208loPI   C6A 3324   2.551   2.367   8.955  0.0752 -0.1047  0.1420
  208loPI   C1B 3325   3.698   2.436  10.599 -0.0234  0.0995  0.3740
  208loPI   C2B 3326   3.723   2.510  10.201  0.1946  0.1367  0.1633
  208loPI   C3B 3327   3.787   2.508   9.794  0.0279  0.1844  0.0901
  208loPI   C4B 3328   3.736   2.412   9.402 -0.2302 -0.3588 -0.0380
  209loPI    C1 3329  11.071  16.556  11.656 -0.0884 -0.1124  0.0743
  209loPI    C2 3330  10.882  16.781  11.927 -0.0109  0.0624 -0.0148
  209loPI    C3 3331  11.154  16.512  12.044 -0.0969  0.0209  0.0916
  209loPI   PO4 3332  10.905  16.493  11.465 -0.2480  0.0970 -0.1507
  209loPI   GL1 3333  10.992  16.466  11.040  0.1872 -0.1367 -0.1766
  209loPI   GL2 3334  10.825  16.772  11.047 -0.0831  0.1699 -0.1103
  209loPI   C1A 3335  11.084  16.409  10.661 -0.1978 -0.2025  0.0994
  209loPI   C2A 3336  11.165  16.377  10.249  0.1918 -0.1528  0.2568
  209loPI   C3A 3337  11.151  16.281   9.816 -0.2936 -0.0749 -0.1213
  209loPI   C4A 3338  11.194  16.251   9.377  0.0813 -0.1472  0.3062
  209loPI   C5A 3339  11.039  16.162   8.972 -0.0253  0.0558 -0.0269
  209loPI   C6A 3340  11.075  16.002   8.483 -0.3499  0.1062 -0.2492
  209loPI   C1B 3341  10.835  16.858  10.662  0.3617 -0.1483 -0.0431
  209loPI   C2B 3342  10.820  16.811  10.214  0.2002  0.0905 -0.0026
  209loPI   C3B 3343  10.874  16.739   9.908  0.2867  0.2534  0.0873
  209loPI   C4B 3344  10.866  16.668   9.516 -0.0085  0.2051  0.3423
  210loPI    C1 3345   5.087  15.367  11.921 -0.3387 -0.1814  0.0323
  210loPI    C2 3346   4.857  15.677  12.027 -0.0572 -0.0147  0.1669
  210loPI    C3 3347   4.949  15.395  12.296  0.0084 -0.0084  0.1513
  210loPI   PO4 3348   5.163  15.411  11.631  0.0472 -0.2515 -0.0011
  210loPI   GL1 3349   5.113  15.428  11.280  0.0111 -0.0322 -0.1170
  210loPI   GL2 3350   4.851  15.179  11.204 -0.0586  0.1010  0.3511
  210loPI   C1A 3351   5.052  15.447  10.812 -0.0989 -0.1886  0.1531
  210loPI   C2A 3352   4.911  15.467  10.430 -0.0940 -0.1118  0.0021
  210loPI   C3A 3353   4.835  15.468  10.091  0.0113 -0.2074 -0.1865
  210loPI   C4A 3354   4.905  15.469   9.613  0.0751  0.3716 -0.2401
  210loPI   C5A 3355   5.101  15.622   9.222 -0.0453  0.0524  0.4105
  210loPI   C6A 3356   5.021  16.002   8.970  0.0153 -0.0333  0.1375
  210loPI   C1B 3357   4.783  15.012  10.793 -0.3121  0.0405 -0.0062
  210loPI   C2B 3358   4.711  15.016  10.328 -0.2066 -0.1351 -0.2389
  210loPI   C3B 3359   4.794  15.019   9.859 -0.0418 -0.3299  0.3325
  210loPI   C4B 3360   4.875  15.013   9.349  0.1104 -0.0005 -0.0784
  211loPI    C1 3361   5.133  13.966  11.759 -0.1555 -0.0054  0.0137
  211loPI    C2 3362   4.980  13.665  11.545 -0.1985 -0.0973  0.1719
  211loPI    C3 3363   4.963  13.655  11.945  0.2408 -0.1213  0.1952
  211loPI   PO4 3364   5.413  13.968  11.639  0.2886 -0.0316  0.0137
  211loPI   GL1 3365   5.375  14.232  11.232  0.0795  0.0550 -0.0155
  211loPI   GL2 3366   5.098  14.075  11.266 -0.0820 -0.3714  0.0600
  211loPI   C1A 3367   5.547  14.151  10.704 -0.1125  0.1162  0.1954
  211loPI   C2A 3368   5.479  14.172  10.261 -0.0718  0.0812 -0.1503
  211loPI   C3A 3369   5.478  14.229   9.783  0.0130  0.1696 -0.0739
  211loPI   C4A 3370   5.481  14.224   9.424  0.0311  0.0046  0.2701
  211loPI   C5A 3371   5.450  14.094   8.971 -0.0015  0.1678 -0.0424
  211loPI   C6A 3372   5.223  13.836   8.719 -0.0346 -0.2590 -0.0123
  211loPI   C1B 3373   5.005  14.095  10.816  0.4098 -0.0234  0.0176
  211loPI   C2B 3374   4.933  14.131  10.344  0.0160 -0.0973 -0.2094
  211loPI   C3B 3375   4.977  14.195   9.914  0.0606 -0.2178 -0.1354
  211loPI   C4B 3376   4.954  14.110   9.438  0.1040  0.2552 -0.0095
  212loPI    C1 3377  15.381  11.681  11.875  0.1493 -0.1333 -0.0125
  212loPI    C2 3378  15.581  11.757  12.213  0.1360 -0.1001 -0.0122
  212loPI    C3 3379  15.577  11.387  12.062  0.1376 -0.1160  0.0269
  212loPI   PO4 3380  15.388  11.814  11.642 -0.0480  0.0978  0.0209
  212loPI   GL1 3381  15.055  11.854  11.243 -0.1536  0.0366  0.3330
  212loPI   GL2 3382  15.214  12.046  11.120 -0.0963 -0.2256 -0.0641
  212loPI   C1A 3383  14.908  11.519  11.035 -0.1905  0.0402 -0.1524
  212loPI   C2A 3384  14.928  11.494  10.690  0.0328  0.0928  0.0348
  212loPI   C3A 3385  14.889  11.608  10.309 -0.1037  0.2416  0.1138
  212loPI   C4A 3386  15.023  11.449   9.956 -0.2569 -0.0277  0.1475
  212loPI   C5A 3387  15.074  11.497   9.484 -0.0634 -0.0785 -0.0008
  212loPI   C6A 3388  14.867  11.787   9.254 -0.1377  0.0471 -0.1280
  212loPI   C1B 3389  15.139  12.003  10.634  0.1370 -0.2294 -0.1612
  212loPI   C2B 3390  15.174  11.987  10.173 -0.1643 -0.0243  0.3638
  212loPI   C3B 3391  15.020  11.902   9.815 -0.0268  0.0014  0.0102
  212loPI   C4B 3392  14.639  11.831   9.738 -0.0360  0.1529 -0.1237
  213loPI    C1 3393  12.269   3.272  11.576  0.1720  0.2900  0.0769
  213loPI    C2 3394  12.073   3.614  11.643 -0.1990  0.0742  0.1217
  213loPI    C3 3395  12.197   3.392  11.951  0.0146  0.1501  0.0923
  213loPI   PO4 3396  12.206   3.055  11.426 -0.1720  0.0371  0.3001
  213loPI   GL1 3397  12.294   2.915  11.014  0.0648  0.0258 -0.0821
  213loPI   GL2 3398  12.599   3.048  11.002 -0.0490 -0.1956  0.0733
  213loPI   C1A 3399  12.164   2.753  10.607  0.0791 -0.0480 -0.0841
  213loPI   C2A 3400  12.154   2.747  10.161 -0.0354  0.0517 -0.2047
  213loPI   C3A 3401  12.119   2.782   9.747  0.1055  0.5050  0.0439
  213loPI   C4A 3402  12.060   2.624   9.344 -0.3220  0.3336 -0.1496
  213loPI   C5A 3403  11.700   2.452   9.152  0.3678 -0.0559 -0.2423
  213loPI   C6A 3404  11.473   2.124   9.025  0.1557 -0.2449  0.1954
  213loPI   C1B 3405  12.619   2.863  10.625 -0.0632  0.0968 -0.1297
  213loPI   C2B 3406  12.678   2.782  10.206  0.0537  0.0210 -0.2187
  213loPI   C3B 3407  12.600   2.902   9.774  0.0538 -0.0220  0.2164
  213loPI   C4B 3408  12.565   2.709   9.370 -0.1520 -0.0457  0.1457
  214loPI    C1 3409  11.160   0.900  11.763  0.0959  0.0405  0.2408
  214loPI    C2 3410  11.471   0.688  11.900  0.0953 -0.1071  0.0185
  214loPI    C3 3411  11.141   0.727  12.124  0.1742 -0.1675  0.1469
  214loPI   PO4 3412  11.224   0.938  11.469 -0.0136 -0.0657 -0.2118
  214loPI   GL1 3413  11.061   0.898  11.069  0.2517  0.1346 -0.3005
  214loPI   GL2 3414  11.245   0.524  11.135  0.0508  0.0690  0.4839
  214loPI   C1A 3415  10.852   0.811  10.751  0.0509  0.2368 -0.0871
  214loPI   C2A 3416  10.834   0.729  10.307 -0.0769  0.1855  0.0962
  214loPI   C3A 3417  10.883   0.731   9.849 -0.0362 -0.0661  0.0541
  214loPI   C4A 3418  10.896   0.665   9.465 -0.0772  0.0181  0.2246
  214loPI   C5A 3419  10.680   0.626   9.096  0.0295  0.0700  0.1920
  214loPI   C6A 3420  10.289   0.679   9.006  0.0889 -0.1936  0.2320
  214loPI   C1B 3421  11.185   0.404  10.691 -0.2033  0.1600 -0.0720
  214loPI   C2B 3422  11.200   0.304  10.211 -0.3255 -0.1079 -0.4466
  214loPI   C3B 3423  11.267   0.296   9.769 -0.1250  0.1037  0.1436
  214loPI   C4B 3424  11.283   0.228   9.336  0.0799 -0.0782  0.2792
  215loPI    C1 3425   8.970   8.706  11.545  0.1193 -0.0934 -0.1861
  215loPI    C2 3426   9.203   8.940  11.770 -0.0316 -0.1689  0.0516
  215loPI    C3 3427   8.888   8.756  11.933  0.0123 -0.4377 -0.1613
  215loPI   PO4 3428   8.881   8.868  11.310 -0.1005 -0.0058  0.1455
  215loPI   GL1 3429   8.990   8.930  10.908  0.2300 -0.0184  0.0363
  215loPI   GL2 3430   8.717   9.126  10.779 -0.1779 -0.0789 -0.1215
  215loPI   C1A 3431   9.151   8.712  10.531 -0.0296 -0.0051 -0.1833
  215loPI   C2A 3432   9.070   8.765  10.115 -0.1229  0.4628 -0.0993
  215loPI   C3A 3433   9.059   8.760   9.690  0.2082 -0.0072  0.0839
  215loPI   C4A 3434   9.099   8.696   9.260 -0.0788  0.3440 -0.0169
  215loPI   C5A 3435   9.271   8.673   8.864 -0.2964  0.2117 -0.1358
  215loPI   C6A 3436   9.150   8.446   8.479 -0.0037  0.1153 -0.2821
  215loPI   C1B 3437   8.798   9.059  10.373 -0.0410  0.0679  0.0153
  215loPI   C2B 3438   8.805   9.169   9.906 -0.0432 -0.3756  0.3259
  215loPI   C3B 3439   8.727   9.168   9.469 -0.2274 -0.2910 -0.3680
  215loPI   C4B 3440   8.765   9.191   9.040 -0.2200  0.0365  0.0908
  216loPI    C1 3441  12.644   7.573  11.616 -0.1610 -0.0318 -0.0191
  216loPI    C2 3442  12.910   7.691  11.891 -0.0230 -0.0197 -0.1566
  216loPI    C3 3443  12.754   7.323  11.909 -0.0501 -0.0027 -0.0356
  216loPI   PO4 3444  12.663   7.608  11.416 -0.1180 -0.3744 -0.0855
  216loPI   GL1 3445  12.627   7.654  11.102 -0.0534  0.2943  0.0925
  216loPI   GL2 3446  12.415   7.549  10.899  0.1362  0.3816 -0.0292
  216loPI   C1A 3447  12.696   7.901  10.685  0.0609  0.0602 -0.1428
  216loPI   C2A 3448  12.689   7.931  10.264  0.1399  0.0283  0.3746
  216loPI   C3A 3449  12.642   7.845   9.861  0.1225  0.2819 -0.0184
  216loPI   C4A 3450  12.562   7.914   9.461  0.2876  0.2047  0.0607
  216loPI   C5A 3451  12.518   7.779   9.023 -0.2734 -0.1709  0.2675
  216loPI   C6A 3452  12.404   7.649   8.545  0.0012  0.1024  0.0316
  216loPI   C1B 3453  12.479   7.341  10.523  0.0845 -0.2780 -0.0186
  216loPI   C2B 3454  12.504   7.460  10.140 -0.2035  0.0903  0.1502
  216loPI   C3B 3455  12.419   7.360   9.769  0.0968 -0.2780  0.5259
  216loPI   C4B 3456  12.434   7.433   9.412  0.3377  0.3899  0.0382
  217loPI    C1 3457  10.654   3.568  11.400  0.1108  0.0093 -0.0587
  217loPI    C2 3458  11.032   3.477  11.495  0.2415  0.5179 -0.0664
  217loPI    C3 3459  10.759   3.524  11.784  0.1754  0.1311 -0.0619
  217loPI   PO4 3460  10.612   3.512  11.166  0.0110  0.2663 -0.0418
  217loPI   GL1 3461  10.772   3.713  10.877  0.0885  0.2206 -0.1403
  217loPI   GL2 3462  10.664   3.941  10.697  0.0596 -0.0560 -0.6865
  217loPI   C1A 3463  10.966   3.604  10.519  0.1066  0.0011  0.1513
  217loPI   C2A 3464  10.955   3.580  10.095  0.2534 -0.0818 -0.0359
  217loPI   C3A 3465  10.918   3.493   9.740  0.2703 -0.0783  0.2315
  217loPI   C4A 3466  10.917   3.526   9.265  0.5494 -0.1768  0.0351
  217loPI   C5A 3467  10.821   3.691   8.886  0.3404  0.1953  0.1790
  217loPI   C6A 3468  10.739   3.449   8.561 -0.0964 -0.2254 -0.3436
  217loPI   C1B 3469  10.733   3.935  10.287 -0.2729 -0.1063 -0.1883
  217loPI   C2B 3470  10.716   3.973   9.821 -0.4757  0.2857  0.0519
  217loPI   C3B 3471  10.609   3.928   9.348 -0.1840  0.2948  0.2076
  217loPI   C4B 3472  10.255   4.067   9.129  0.0982  0.1042  0.4114
  218loPI    C1 3473   3.566  11.562  11.664  0.0424  0.0754  0.1539
  218loPI    C2 3474   3.943  11.517  11.789 -0.0325 -0.3469  0.2427
  218loPI    C3 3475   3.644  11.526  12.055 -0.0929 -0.0662  0.1689
  218loPI   PO4 3476   3.573  11.652  11.409  0.0548 -0.2128 -0.1589
  218loPI   GL1 3477   3.260  11.564  11.113  0.3082 -0.0975  0.1938
  218loPI   GL2 3478   3.515  11.547  10.926 -0.1369 -0.0248  0.1512
  218loPI   C1A 3479   3.156  11.975  10.823 -0.0401 -0.0437 -0.2091
  218loPI   C2A 3480   3.067  12.006  10.262  0.1996 -0.1698  0.0674
  218loPI   C3A 3481   3.103  11.941   9.770  0.1661  0.0435  0.0638
  218loPI   C4A 3482   3.090  12.016   9.384 -0.2230  0.2033  0.0356
  218loPI   C5A 3483   3.357  11.947   9.056 -0.0474 -0.2813  0.3585
  218loPI   C6A 3484   3.196  12.019   8.585  0.0745 -0.1753 -0.0324
  218loPI   C1B 3485   3.374  11.642  10.548 -0.1803  0.0851 -0.0156
  218loPI   C2B 3486   3.293  11.578  10.151 -0.2269  0.3632 -0.1217
  218loPI   C3B 3487   3.445  11.593   9.760  0.0052 -0.1130 -0.2660
  218loPI   C4B 3488   3.461  11.511   9.391  0.0715 -0.2091  0.0248
  219loPI    C1 3489  13.324   1.303  11.963 -0.1354 -0.0710  0.1074
  219loPI    C2 3490  12.988   1.518  11.993  0.0386  0.2117  0.0546
  219loPI    C3 3491  13.294   1.587  12.243  0.0535 -0.0554  0.1131
  219loPI   PO4 3492  13.319   1.283  11.645  0.0848  0.0966 -0.2187
  219loPI   GL1 3493  13.700   1.337  11.372 -0.2987  0.0742  0.0664
  219loPI   GL2 3494  14.054   1.266  11.203 -0.2147 -0.1993 -0.2090
  219loPI   C1A 3495  13.590   1.708  11.090 -0.1226 -0.1172 -0.4035
  219loPI   C2A 3496  13.579   1.784  10.634 -0.1942 -0.1693  0.1670
  219loPI   C3A 3497  13.555   1.740  10.240 -0.1814  0.0106 -0.1370
  219loPI   C4A 3498  13.538   1.580   9.744  0.0233  0.1849  0.2045
  219loPI   C5A 3499  13.663   1.559   9.346 -0.0991  0.2428  0.0807
  219loPI   C6A 3500  14.019   1.763   9.105 -0.0848  0.2225  0.3100
  219loPI   C1B 3501  13.891   1.311  10.831 -0.1785  0.0613 -0.2418
  219loPI   C2B 3502  13.881   1.300  10.409 -0.0830  0.0857 -0.2510
  219loPI   C3B 3503  13.907   1.296   9.961 -0.1637 -0.0774  0.0071
  219loPI   C4B 3504  13.931   1.169   9.511  0.2166 -0.2465  0.0900
  220loPI    C1 3505   7.018   2.965  11.509 -0.0794  0.0816 -0.3574
  220loPI    C2 3506   6.733   2.769  11.710 -0.0360  0.1058 -0.2716
  220loPI    C3 3507   7.035   2.941  11.908 -0.0721  0.2576 -0.3464
  220loPI   PO4 3508   7.027   2.819  11.237  0.2386  0.1660 -0.4072
  220loPI   GL1 3509   6.796   2.892  10.838  0.3468  0.0620  0.1895
  220loPI   GL2 3510   6.550   2.842  11.039 -0.1018  0.1081 -0.2009
  220loPI   C1A 3511   6.773   2.960  10.351 -0.2315  0.0393 -0.0243
  220loPI   C2A 3512   6.891   2.941   9.962  0.0872  0.0479  0.3625
  220loPI   C3A 3513   6.845   2.816   9.477  0.0804  0.1730 -0.2134
  220loPI   C4A 3514   6.882   2.915   9.047  0.1211  0.2990  0.0940
  220loPI   C5A 3515   6.796   3.039   8.687  0.0777 -0.2884 -0.0641
  220loPI   C6A 3516   6.825   3.382   8.388 -0.0803 -0.0468  0.0667
  220loPI   C1B 3517   6.337   2.819  10.643 -0.2899 -0.2713 -0.2638
  220loPI   C2B 3518   6.290   2.824  10.235  0.2361 -0.2489  0.0534
  220loPI   C3B 3519   6.382   2.822   9.837  0.0464 -0.3391 -0.1496
  220loPI   C4B 3520   6.364   2.791   9.404  0.0944  0.0339  0.0552
  221loPI    C1 3521   0.001   6.150  11.691 -0.0501  0.1099  0.0863
  221loPI    C2 3522  -0.149   5.918  11.981 -0.0511  0.1913  0.1515
  221loPI    C3 3523   0.216   6.077  12.021 -0.0251  0.1503  0.0791
  221loPI   PO4 3524  -0.162   6.059  11.531  0.1950 -0.0862 -0.1181
  221loPI   GL1 3525  -0.121   5.813  11.263  0.0944 -0.1012  0.2524
  221loPI   GL2 3526   0.021   5.541  11.175 -0.1083 -0.0871  0.2926
  221loPI   C1A 3527  -0.223   5.927  10.882 -0.0599  0.0011  0.1895
  221loPI   C2A 3528  -0.267   5.923  10.481 -0.0802  0.1166  0.0864
  221loPI   C3A 3529  -0.362   5.898  10.014 -0.0159  0.2860  0.4840
  221loPI   C4A 3530  -0.152   5.916   9.553  0.0069  0.1090 -0.0604
  221loPI   C5A 3531  -0.138   5.810   9.061  0.1432 -0.1600  0.2273
  221loPI   C6A 3532  -0.412   5.833   8.790 -0.0321 -0.0567 -0.2475
  221loPI   C1B 3533   0.023   5.497  10.766 -0.4433  0.1189  0.1262
  221loPI   C2B 3534   0.127   5.536  10.381  0.0851 -0.2301  0.2087
  221loPI   C3B 3535   0.168   5.524   9.927  0.1830  0.2353 -0.1423
  221loPI   C4B 3536   0.176   5.503   9.534  0.1276 -0.1051  0.0227
  222loPI    C1 3537   7.142  16.374  11.818  0.0509 -0.0782  0.0694
  222loPI    C2 3538   7.272  16.540  11.479 -0.0337 -0.0356  0.0577
  222loPI    C3 3539   7.534  16.384  11.738  0.0534  0.1887  0.1072
  222loPI   PO4 3540   6.971  16.225  11.723 -0.1479  0.1409  0.0065
  222loPI   GL1 3541   6.822  16.099  11.277 -0.0681 -0.1668  0.0456
  222loPI   GL2 3542   6.445  16.024  11.199 -0.0320  0.0667 -0.1635
  222loPI   C1A 3543   6.790  16.246  10.899 -0.1471  0.2749  0.1303
  222loPI   C2A 3544   6.779  16.174  10.454 -0.0408 -0.0782  0.2341
  222loPI   C3A 3545   6.647  16.195  10.030 -0.2110  0.1687  0.0066
  222loPI   C4A 3546   6.601  16.278   9.563 -0.2150 -0.0953  0.0190
  222loPI   C5A 3547   6.583  16.167   9.192  0.1532  0.0997  0.0145
  222loPI   C6A 3548   6.697  16.027   8.909 -0.2191 -0.0284 -0.1490
  222loPI   C1B 3549   6.201  16.077  10.791 -0.1769  0.0416  0.1281
  222loPI   C2B 3550   6.112  16.160  10.330  0.1012 -0.4678 -0.2541
  222loPI   C3B 3551   6.166  16.118   9.840  0.0688  0.1851  0.2260
  222loPI   C4B 3552   6.021  16.230   9.476  0.1587 -0.1310 -0.1002
  223loPI    C1 3553   4.733  10.081  12.045  0.1471  0.2833  0.3351
  223loPI    C2 3554   4.458  10.266  12.270 -0.4052 -0.1660  0.0556
  223loPI    C3 3555   4.577   9.896  12.364 -0.0305 -0.0476  0.0627
  223loPI   PO4 3556   4.650  10.075  11.738  0.0759 -0.1224 -0.2443
  223loPI   GL1 3557   4.657  10.336  11.398 -0.0403 -0.0958  0.0253
  223loPI   GL2 3558   4.718  10.601  11.392 -0.0119 -0.2922 -0.0117
  223loPI   C1A 3559   4.666   9.960  11.018  0.1875 -0.2078  0.0040
  223loPI   C2A 3560   4.791   9.887  10.610 -0.3285 -0.0390  0.3268
  223loPI   C3A 3561   4.717   9.895  10.225 -0.0483  0.4442  0.3660
  223loPI   C4A 3562   4.812   9.911   9.681 -0.1037 -0.2158 -0.0105
  223loPI   C5A 3563   4.874  10.104   9.320  0.0347  0.1321  0.0230
  223loPI   C6A 3564   5.039  10.188   8.904 -0.0407 -0.0142  0.2569
  223loPI   C1B 3565   4.834  10.386  10.920  0.1077 -0.0440 -0.1796
  223loPI   C2B 3566   4.874  10.379  10.398  0.1639  0.0578 -0.0680
  223loPI   C3B 3567   4.898  10.342  10.008 -0.1181 -0.0824  0.1717
  223loPI   C4B 3568   4.934  10.460   9.651  0.2442 -0.0189  0.2661
  224loPI    C1 3569  15.402   3.916  11.812 -0.0584  0.5642  0.0939
  224loPI    C2 3570  15.769   3.982  11.668 -0.0106  0.0869 -0.0202
  224loPI    C3 3571  15.715   3.927  12.061  0.0672 -0.0224 -0.0244
  224loPI   PO4 3572  15.288   3.732  11.686  0.2971 -0.0660 -0.2480
  224loPI   GL1 3573  15.441   3.647  11.321 -0.0571  0.4299 -0.2330
  224loPI   GL2 3574  15.380   3.349  11.415 -0.4110 -0.0205  0.2170
  224loPI   C1A 3575  15.305   3.810  10.909  0.0288 -0.0081 -0.0665
  224loPI   C2A 3576  15.323   3.892  10.533 -0.0720  0.2720 -0.1108
  224loPI   C3A 3577  15.272   3.753  10.024 -0.0331  0.0784  0.1578
  224loPI   C4A 3578  15.247   3.746   9.562 -0.1856  0.1165  0.1249
  224loPI   C5A 3579  15.484   3.476   9.339  0.4444 -0.3855  0.4271
  224loPI   C6A 3580  15.896   3.431   9.212  0.0917 -0.0582 -0.0216
  224loPI   C1B 3581  15.235   3.303  10.951  0.0194  0.1351 -0.1373
  224loPI   C2B 3582  15.140   3.378  10.571 -0.1245  0.0688  0.1054
  224loPI   C3B 3583  15.201   3.270  10.195  0.0945 -0.0044  0.0207
  224loPI   C4B 3584  15.099   3.231   9.825 -0.0222 -0.0370  0.0900
  225loPI    C1 3585  11.782   7.678  11.645  0.0352  0.1978 -0.1361
  225loPI    C2 3586  11.498   7.774  11.910  0.1164  0.0961 -0.0102
  225loPI    C3 3587  11.864   7.677  12.037  0.1126 -0.1070 -0.1506
  225loPI   PO4 3588  11.659   7.577  11.430 -0.2272 -0.2449 -0.2436
  225loPI   GL1 3589  11.858   7.564  10.957  0.0433  0.2183  0.3059
  225loPI   GL2 3590  11.651   7.694  10.901 -0.0599  0.2847  0.0358
  225loPI   C1A 3591  11.938   7.322  10.574  0.0040 -0.1505  0.2686
  225loPI   C2A 3592  12.038   7.313  10.152 -0.2397  0.1121  0.4507
  225loPI   C3A 3593  11.912   7.328   9.752  0.0102  0.2055  0.0121
  225loPI   C4A 3594  11.888   7.319   9.373  0.1831  0.1177  0.1988
  225loPI   C5A 3595  11.841   6.998   8.966  0.3115 -0.0275  0.3454
  225loPI   C6A 3596  11.953   6.674   8.847 -0.0776 -0.0723  0.3375
  225loPI   C1B 3597  11.704   7.707  10.413 -0.2610  0.0388  0.0199
  225loPI   C2B 3598  11.647   7.630  10.042  0.0845 -0.2379 -0.1088
  225loPI   C3B 3599  11.497   7.684   9.642  0.1149  0.0434  0.0533
  225loPI   C4B 3600  11.587   7.727   9.312 -0.0299 -0.3100  0.2145
  226loPI    C1 3601  11.693   1.090  11.719  0.0977  0.1651 -0.0136
  226loPI    C2 3602  11.416   1.218  11.977 -0.0107 -0.0026 -0.0453
  226loPI    C3 3603  11.783   1.127  12.107 -0.1042 -0.2158  0.0747
  226loPI   PO4 3604  11.708   1.221  11.441  0.0300 -0.0276 -0.1323
  226loPI   GL1 3605  11.429   1.304  11.082  0.0419 -0.2684 -0.2880
  226loPI   GL2 3606  11.528   0.979  11.012  0.3371  0.3127 -0.4537
  226loPI   C1A 3607  11.626   1.383  10.603  0.0820 -0.1938  0.0472
  226loPI   C2A 3608  11.570   1.332  10.129 -0.3512  0.1455 -0.4366
  226loPI   C3A 3609  11.547   1.242   9.665  0.2115  0.0336 -0.1378
  226loPI   C4A 3610  11.675   1.150   9.232 -0.1340  0.0441  0.3584
  226loPI   C5A 3611  11.484   1.137   8.904  0.3129  0.0434  0.3232
  226loPI   C6A 3612  11.134   1.220   8.643 -0.0348 -0.0292 -0.3149
  226loPI   C1B 3613  11.403   0.859  10.738  0.0045 -0.2002  0.1352
  226loPI   C2B 3614  11.338   0.867  10.324  0.2281  0.2246 -0.1365
  226loPI   C3B 3615  11.342   0.804   9.868  0.2067 -0.0427  0.1107
  226loPI   C4B 3616  11.393   0.770   9.528  0.0462  0.1722  0.0338
  227loPI    C1 3617  17.026   7.964  11.634  0.0051 -0.2687  0.2123
  227loPI    C2 3618  16.738   8.159  11.833  0.0041  0.0542 -0.0954
  227loPI    C3 3619  17.117   8.176  11.961 -0.0030  0.2234 -0.0941
  227loPI   PO4 3620  16.958   8.042  11.386 -0.0453 -0.3661 -0.0870
  227loPI   GL1 3621  17.218   7.879  11.049 -0.5000  0.1756  0.3401
  227loPI   GL2 3622  17.538   7.901  10.953  0.0978  0.1891 -0.2135
  227loPI   C1A 3623  16.988   7.764  10.722 -0.2181 -0.0679 -0.0057
  227loPI   C2A 3624  16.808   7.798  10.319 -0.0363  0.1459 -0.1197
  227loPI   C3A 3625  16.935   7.734   9.902 -0.1663  0.0816  0.0075
  227loPI   C4A 3626  16.890   7.660   9.387 -0.1235 -0.1977 -0.1368
  227loPI   C5A 3627  16.809   7.612   8.954  0.1928 -0.1587 -0.0476
  227loPI   C6A 3628  16.511   7.610   8.533  0.3620  0.3579 -0.0304
  227loPI   C1B 3629  17.425   7.798  10.537 -0.0528  0.0852  0.0142
  227loPI   C2B 3630  17.370   7.819  10.125 -0.3771  0.2196 -0.2011
  227loPI   C3B 3631  17.374   7.731   9.739  0.1600  0.1535 -0.3821
  227loPI   C4B 3632  17.407   7.757   9.239  0.0438 -0.1876 -0.0648
  228loPI    C1 3633   6.052   7.918  11.690  0.0335 -0.0508 -0.0261
  228loPI    C2 3634   5.774   8.028  11.955  0.0142 -0.1181 -0.0182
  228loPI    C3 3635   6.047   7.754  12.055  0.1987  0.0830  0.0380
  228loPI   PO4 3636   5.981   7.924  11.461 -0.1631 -0.0938 -0.1351
  228loPI   GL1 3637   5.827   7.802  11.151  0.2189  0.1536 -0.0242
  228loPI   GL2 3638   5.792   7.675  10.926 -0.0399  0.0870 -0.0399
  228loPI   C1A 3639   5.895   8.167  10.850  0.0251 -0.0430 -0.0535
  228loPI   C2A 3640   5.985   8.275  10.441 -0.2044  0.0552 -0.1128
  228loPI   C3A 3641   5.982   8.302   9.989  0.0795 -0.0273  0.0660
  228loPI   C4A 3642   5.996   8.240   9.564 -0.1378 -0.0476 -0.1889
  228loPI   C5A 3643   5.962   8.144   9.153  0.2556 -0.0411 -0.0865
  228loPI   C6A 3644   6.198   7.951   8.854 -0.0469  0.3703  0.1501
  228loPI   C1B 3645   5.754   7.793  10.466 -0.0689  0.0074 -0.0580
  228loPI   C2B 3646   5.794   7.780  10.038 -0.0668 -0.0094 -0.1675
  228loPI   C3B 3647   5.829   7.764   9.637  0.0994  0.0002  0.3256
  228loPI   C4B 3648   5.908   7.648   9.217 -0.0976  0.0156 -0.2399
  229loPI    C1 3649  16.454  12.412  11.600 -0.3259 -0.2649  0.2008
  229loPI    C2 3650  16.491  12.296  11.981  0.0511  0.0167  0.2556
  229loPI    C3 3651  16.653  12.076  11.688 -0.2298 -0.1943  0.2543
  229loPI   PO4 3652  16.548  12.668  11.573  0.0152  0.0786  0.0565
  229loPI   GL1 3653  16.475  12.952  11.185  0.2800 -0.0077  0.1702
  229loPI   GL2 3654  16.372  12.678  11.095  0.0846  0.1574 -0.0243
  229loPI   C1A 3655  16.572  13.149  10.837  0.1912  0.0364 -0.2398
  229loPI   C2A 3656  16.648  13.093  10.413  0.0924 -0.0992 -0.0363
  229loPI   C3A 3657  16.661  13.141  10.009 -0.2633 -0.3251  0.0148
  229loPI   C4A 3658  16.562  13.144   9.597 -0.2580 -0.0904 -0.3479
  229loPI   C5A 3659  16.518  13.167   9.105  0.2159  0.1661 -0.2763
  229loPI   C6A 3660  16.303  13.187   8.730 -0.2086  0.0313  0.2229
  229loPI   C1B 3661  16.404  12.732  10.649 -0.2836 -0.0349 -0.1681
  229loPI   C2B 3662  16.475  12.672  10.161 -0.0673 -0.1089  0.0685
  229loPI   C3B 3663  16.439  12.551   9.661  0.0115 -0.1868 -0.0487
  229loPI   C4B 3664  16.532  12.557   9.322 -0.1787  0.2233  0.2593
  230loPI    C1 3665   5.377   1.480  11.724  0.0340 -0.1345 -0.0221
  230loPI    C2 3666   5.338   1.131  11.531 -0.2232 -0.0644 -0.1022
  230loPI    C3 3667   5.037   1.271  11.755 -0.1303  0.1171 -0.0883
  230loPI   PO4 3668   5.555   1.683  11.488 -0.1382  0.0931 -0.3771
  230loPI   GL1 3669   5.505   1.952  11.135 -0.0695 -0.1919 -0.3418
  230loPI   GL2 3670   5.234   2.059  11.130  0.0583 -0.1915  0.0030
  230loPI   C1A 3671   5.522   1.739  10.729 -0.1629 -0.1854  0.0420
  230loPI   C2A 3672   5.429   1.725  10.205 -0.0247  0.0064  0.1315
  230loPI   C3A 3673   5.358   1.778   9.687 -0.2344  0.2355  0.3892
  230loPI   C4A 3674   5.394   1.827   9.252  0.1106  0.1605  0.0571
  230loPI   C5A 3675   5.367   1.533   8.938  0.2073  0.0502 -0.1386
  230loPI   C6A 3676   5.258   1.302   8.660 -0.1862  0.0164 -0.1344
  230loPI   C1B 3677   5.174   2.112  10.724  0.1394 -0.1333  0.1975
  230loPI   C2B 3678   5.166   2.141  10.313  0.0877 -0.1769 -0.2375
  230loPI   C3B 3679   5.111   2.146   9.860 -0.1470 -0.1178  0.1056
  230loPI   C4B 3680   5.127   2.213   9.417  0.0401  0.1456 -0.0703
  231loPI    C1 3681  13.108   2.413  11.517  0.0695 -0.1151 -0.0407
  231loPI    C2 3682  12.967   2.695  11.763  0.2054  0.0213 -0.1174
  231loPI    C3 3683  12.812   2.326  11.772 -0.0744  0.1358 -0.1185
  231loPI   PO4 3684  13.091   2.606  11.259 -0.1800 -0.2138 -0.3231
  231loPI   GL1 3685  13.015   2.633  10.826 -0.3099  0.0141  0.5768
  231loPI   GL2 3686  13.248   2.922  10.845  0.0622  0.3785  0.0224
  231loPI   C1A 3687  12.920   2.475  10.455 -0.2927  0.0146  0.0248
  231loPI   C2A 3688  12.978   2.433   9.970 -0.3883 -0.2853 -0.0776
  231loPI   C3A 3689  12.908   2.378   9.552 -0.1048 -0.0501  0.2157
  231loPI   C4A 3690  12.885   2.466   9.105 -0.0337 -0.0265  0.0136
  231loPI   C5A 3691  12.440   2.522   8.868 -0.0090  0.2028 -0.0972
  231loPI   C6A 3692  12.034   2.569   8.632 -0.1348 -0.1715 -0.2379
  231loPI   C1B 3693  13.167   2.909  10.350 -0.0396 -0.0054 -0.1289
  231loPI   C2B 3694  13.164   2.949   9.815  0.3084 -0.1905  0.2195
  231loPI   C3B 3695  13.022   2.904   9.396  0.1067  0.0707  0.2831
  231loPI   C4B 3696  12.819   2.885   8.873  0.0921 -0.1364 -0.1487
  232loPI    C1 3697   7.249   0.792  11.736  0.1234 -0.2407 -0.0138
  232loPI    C2 3698   6.948   0.674  11.971 -0.0125 -0.0962 -0.1130
  232loPI    C3 3699   7.263   0.863  12.129 -0.1019 -0.0024 -0.0460
  232loPI   PO4 3700   7.171   0.856  11.503  0.0029 -0.2246 -0.0568
  232loPI   GL1 3701   7.346   0.988  11.223 -0.0951 -0.0412  0.0862
  232loPI   GL2 3702   7.548   1.081  11.142  0.2396  0.0388  0.0159
  232loPI   C1A 3703   7.446   0.737  10.824  0.1498 -0.1162 -0.0535
  232loPI   C2A 3704   7.452   0.753  10.400  0.0832 -0.1709 -0.2516
  232loPI   C3A 3705   7.483   0.691  10.045  0.1789  0.0994 -0.0478
  232loPI   C4A 3706   7.445   0.658   9.630  0.0071  0.1820  0.1168
  232loPI   C5A 3707   7.740   0.595   9.265  0.1275 -0.4260  0.0258
  232loPI   C6A 3708   7.797   0.900   8.923  0.2900 -0.0518  0.2094
  232loPI   C1B 3709   7.617   1.222  10.717  0.0271 -0.0665 -0.2579
  232loPI   C2B 3710   7.587   1.187  10.260 -0.1494 -0.1474  0.0894
  232loPI   C3B 3711   7.643   1.144   9.812  0.1818  0.0996 -0.1549
  232loPI   C4B 3712   7.680   1.140   9.367 -0.1180 -0.3140 -0.1922
  233loPI    C1 3713  16.894   6.345  11.902 -0.0652  0.3756  0.0722
  233loPI    C2 3714  16.670   6.563  12.152 -0.0290  0.0790  0.3703
  233loPI    C3 3715  16.865   6.241  12.288 -0.1084 -0.1616 -0.0680
  233loPI   PO4 3716  16.681   6.207  11.629 -0.0752  0.0437  0.0005
  233loPI   GL1 3717  16.741   5.983  11.209 -0.0921  0.0642 -0.1429
  233loPI   GL2 3718  16.746   5.710  11.088  0.3534 -0.0316 -0.2604
  233loPI   C1A 3719  16.848   6.289  10.821  0.0286 -0.2493  0.0861
  233loPI   C2A 3720  16.829   6.316  10.402  0.0764  0.0436  0.1554
  233loPI   C3A 3721  16.839   6.350  10.012 -0.1472  0.0151 -0.2591
  233loPI   C4A 3722  16.764   6.332   9.663  0.2058 -0.0555 -0.0238
  233loPI   C5A 3723  17.035   6.281   9.244  0.0500  0.1748 -0.1403
  233loPI   C6A 3724  17.071   6.323   8.800  0.3542  0.0322  0.1363
  233loPI   C1B 3725  16.941   5.406  10.893 -0.1805  0.0552  0.1408
  233loPI   C2B 3726  16.958   5.467  10.456 -0.1000  0.0037  0.0338
  233loPI   C3B 3727  16.857   5.432  10.078  0.0095 -0.0655  0.2276
  233loPI   C4B 3728  17.041   5.399   9.753  0.0770  0.0918  0.0199
  234loPI    C1 3729   5.538   3.804  11.299 -0.0746  0.1665  0.1987
  234loPI    C2 3730   5.880   3.702  11.480  0.0278  0.2531  0.0562
  234loPI    C3 3731   5.706   3.448  11.225  0.0020  0.2218  0.1047
  234loPI   PO4 3732   5.606   3.983  11.179 -0.0419  0.0766 -0.0929
  234loPI   GL1 3733   5.810   4.032  10.912  0.0951  0.2072 -0.0499
  234loPI   GL2 3734   5.963   3.714  10.884  0.2758 -0.3790 -0.1127
  234loPI   C1A 3735   5.891   4.166  10.567 -0.1536  0.0655 -0.0825
  234loPI   C2A 3736   5.979   4.157  10.215  0.1338  0.0302 -0.1793
  234loPI   C3A 3737   5.903   4.120   9.802  0.0495  0.0120 -0.2668
  234loPI   C4A 3738   5.855   4.085   9.373  0.1819  0.1991  0.1366
  234loPI   C5A 3739   5.727   4.020   8.958  0.0106 -0.1392  0.1367
  234loPI   C6A 3740   5.752   4.080   8.499  0.1153 -0.0948  0.2846
  234loPI   C1B 3741   6.250   3.754  10.634 -0.1151  0.2819  0.4263
  234loPI   C2B 3742   6.243   3.708  10.212  0.1372 -0.2644 -0.7480
  234loPI   C3B 3743   6.242   3.687   9.765  0.2839  0.0306  0.0102
  234loPI   C4B 3744   6.252   3.735   9.288 -0.1000 -0.1289 -0.2531
  235loPI    C1 3745   9.274  10.515  11.756  0.0590 -0.2910 -0.1464
  235loPI    C2 3746   9.121  10.230  11.991 -0.0056 -0.0960  0.0526
  235loPI    C3 3747   9.241  10.576  12.150 -0.2441  0.1208 -0.2286
  235loPI   PO4 3748   9.379  10.328  11.523  0.0429 -0.1138  0.2567
  235loPI   GL1 3749   9.279  10.090  11.159  0.4474  0.0334  0.1825
  235loPI   GL2 3750   9.511  10.148  11.098  0.3488 -0.0331 -0.2429
  235loPI   C1A 3751   9.178  10.142  10.783 -0.1190  0.0003  0.0973
  235loPI   C2A 3752   9.194  10.131  10.330  0.1180  0.3923 -0.2477
  235loPI   C3A 3753   9.179  10.108   9.832 -0.2482 -0.1502 -0.1511
  235loPI   C4A 3754   9.105  10.154   9.427 -0.1334  0.0939 -0.0193
  235loPI   C5A 3755   9.091  10.244   9.028 -0.2318 -0.3010 -0.1077
  235loPI   C6A 3756   9.228  10.012   8.705 -0.2147  0.1849  0.0794
  235loPI   C1B 3757   9.704  10.170  10.766  0.1143  0.0265 -0.2668
  235loPI   C2B 3758   9.714  10.262  10.284  0.2428  0.1424 -0.1401
  235loPI   C3B 3759   9.663  10.248   9.786 -0.0016 -0.1056 -0.2162
  235loPI   C4B 3760   9.663  10.186   9.420 -0.1191 -0.1197 -0.3022
  236loPI    C1 3761  16.400  13.891  12.218  0.0878  0.3055  0.0025
  236loPI    C2 3762  16.569  13.965  12.573 -0.0069 -0.2202  0.1653
  236loPI    C3 3763  16.171  13.971  12.536  0.0043 -0.1274  0.0577
  236loPI   PO4 3764  16.638  14.062  12.014  0.1020  0.4308  0.0769
  236loPI   GL1 3765  16.782  14.067  11.522  0.0935  0.2908  0.2407
  236loPI   GL2 3766  16.548  14.249  11.525  0.2402  0.1735 -0.3983
  236loPI   C1A 3767  16.962  14.052  11.068 -0.1133  0.1098  0.0914
  236loPI   C2A 3768  17.030  14.050  10.638  0.2904 -0.0218 -0.1013
  236loPI   C3A 3769  16.978  13.986  10.231 -0.1692 -0.0482 -0.2068
  236loPI   C4A 3770  17.014  14.074   9.839 -0.0637 -0.4961 -0.3329
  236loPI   C5A 3771  16.924  14.240   9.496  0.0496  0.0354 -0.2645
  236loPI   C6A 3772  16.998  14.278   9.092 -0.3028 -0.0035  0.0075
  236loPI   C1B 3773  16.589  14.469  11.131 -0.3853 -0.2266  0.1164
  236loPI   C2B 3774  16.660  14.453  10.743  0.1477  0.1795 -0.0254
  236loPI   C3B 3775  16.687  14.488  10.322  0.0874 -0.0090 -0.3775
  236loPI   C4B 3776  16.679  14.564   9.913 -0.2320  0.0873  0.0520
  237loPI    C1 3777  15.983  12.631  11.613 -0.1471 -0.0166 -0.1197
  237loPI    C2 3778  16.176  12.687  11.959 -0.1887  0.1026 -0.1154
  237loPI    C3 3779  15.777  12.706  11.948 -0.2125 -0.2932 -0.0949
  237loPI   PO4 3780  16.099  12.800  11.480  0.2989  0.0509 -0.0276
  237loPI   GL1 3781  15.983  13.080  11.325  0.1299 -0.1137  0.0074
  237loPI   GL2 3782  16.161  13.379  11.279 -0.0152  0.1618 -0.1682
  237loPI   C1A 3783  16.044  13.110  10.859  0.0120 -0.0836  0.1729
  237loPI   C2A 3784  16.096  13.139  10.526  0.4371  0.1141  0.0953
  237loPI   C3A 3785  16.168  13.080  10.113  0.3257  0.1747 -0.1820
  237loPI   C4A 3786  16.031  12.979   9.659 -0.0055  0.1005  0.0152
  237loPI   C5A 3787  16.156  12.876   9.279  0.1570  0.3429 -0.0309
  237loPI   C6A 3788  16.006  12.547   9.099 -0.2158 -0.1775 -0.0376
  237loPI   C1B 3789  16.252  13.586  10.793 -0.0831 -0.2964 -0.1362
  237loPI   C2B 3790  16.295  13.561  10.349 -0.1366 -0.2469 -0.1152
  237loPI   C3B 3791  16.313  13.506   9.920  0.1840  0.1625 -0.0685
  237loPI   C4B 3792  16.269  13.510   9.457  0.2051  0.3191 -0.0857
  238loPI    C1 3793   8.326  11.332  11.523  0.0152 -0.1842  0.0995
  238loPI    C2 3794   8.407  11.637  11.768 -0.1842 -0.0293 -0.0246
  238loPI    C3 3795   8.543  11.271  11.853  0.2088  0.1250  0.0340
  238loPI   PO4 3796   8.326  11.415  11.323  0.1828  0.1067  0.0107
  238loPI   GL1 3797   8.183  11.181  10.889 -0.3916  0.0096 -0.0990
  238loPI   GL2 3798   8.512  11.200  10.926 -0.1656 -0.0127 -0.2990
  238loPI   C1A 3799   8.301  11.299  10.495  0.1139 -0.2940 -0.2070
  238loPI   C2A 3800   8.243  11.414  10.074 -0.0837  0.1962  0.3248
  238loPI   C3A 3801   8.204  11.351   9.698 -0.1963  0.1470  0.3611
  238loPI   C4A 3802   8.192  11.386   9.299  0.1411 -0.3207 -0.0396
  238loPI   C5A 3803   7.876  11.706   8.990  0.1316  0.1100  0.0382
  238loPI   C6A 3804   7.515  11.966   8.863 -0.2834 -0.1368 -0.1830
  238loPI   C1B 3805   8.730  11.328  10.658 -0.3269  0.0971  0.1283
  238loPI   C2B 3806   8.709  11.407  10.244 -0.3481  0.3798 -0.1510
  238loPI   C3B 3807   8.799  11.455   9.811  0.2668  0.1736  0.0876
  238loPI   C4B 3808   8.675  11.464   9.333 -0.0950  0.1766 -0.4829
  239loPI    C1 3809   0.179   5.050  11.687  0.0729 -0.1103  0.1817
  239loPI    C2 3810  -0.201   4.974  11.789  0.0331 -0.1674 -0.0051
  239loPI    C3 3811   0.058   5.106  12.065 -0.1587  0.0139  0.0913
  239loPI   PO4 3812   0.169   5.170  11.391 -0.0288  0.3979 -0.0634
  239loPI   GL1 3813   0.505   5.434  11.094  0.0197 -0.2808 -0.1777
  239loPI   GL2 3814   0.534   5.126  11.021  0.1795  0.1340 -0.3231
  239loPI   C1A 3815   0.542   5.557  10.667  0.1819  0.0284 -0.0017
  239loPI   C2A 3816   0.562   5.727  10.243  0.1073  0.4326 -0.1246
  239loPI   C3A 3817   0.610   5.612   9.758 -0.1276 -0.0033  0.2936
  239loPI   C4A 3818   0.532   5.627   9.259 -0.1840 -0.2319 -0.1402
  239loPI   C5A 3819   0.256   5.554   8.935  0.0800 -0.0608  0.0067
  239loPI   C6A 3820   0.138   5.871   8.632  0.2737  0.5588 -0.0324
  239loPI   C1B 3821   0.421   5.110  10.473 -0.3982  0.0190  0.0086
  239loPI   C2B 3822   0.423   5.090  10.036 -0.0139  0.1057 -0.3249
  239loPI   C3B 3823   0.427   5.119   9.692  0.1489  0.0121  0.2863
  239loPI   C4B 3824   0.408   5.078   9.249  0.2365  0.0817  0.1400
  240loPI    C1 3825  12.558  11.842  11.794  0.0162  0.0759 -0.2162
  240loPI    C2 3826  12.934  11.975  11.773 -0.0875  0.4164  0.0184
  240loPI    C3 3827  12.847  11.657  11.999  0.1234  0.0805 -0.3618
  240loPI   PO4 3828  12.460  11.766  11.586  0.4787  0.1731 -0.1206
  240loPI   GL1 3829  12.603  11.899  11.256 -0.0786  0.0572  0.0822
  240loPI   GL2 3830  12.349  11.782  11.080  0.0740  0.0518 -0.1368
  240loPI   C1A 3831  12.804  12.045  10.915  0.0113 -0.0365 -0.2157
  240loPI   C2A 3832  12.794  12.199  10.510 -0.2081 -0.2179  0.1745
  240loPI   C3A 3833  12.901  12.054  10.100  0.2102  0.0650  0.0123
  240loPI   C4A 3834  12.780  12.011   9.725  0.0651  0.1310  0.1968
  240loPI   C5A 3835  12.934  12.123   9.338  0.1986 -0.0531 -0.1284
  240loPI   C6A 3836  12.658  12.045   8.932 -0.3451 -0.1024  0.1572
  240loPI   C1B 3837  12.393  11.930  10.682 -0.1354  0.2442  0.0653
  240loPI   C2B 3838  12.394  11.901  10.351  0.1406 -0.3411  0.1622
  240loPI   C3B 3839  12.316  11.920   9.928  0.1301 -0.0283 -0.0446
  240loPI   C4B 3840  12.364  11.957   9.431 -0.0860  0.0380 -0.0950
  241loPI    C1 3841  16.437   9.849  11.475 -0.0166 -0.1753  0.1580
  241loPI    C2 3842  16.819   9.729  11.488  0.0184 -0.0807  0.0195
  241loPI    C3 3843  16.559   9.600  11.763  0.1710 -0.0730  0.1683
  241loPI   PO4 3844  16.366   9.837  11.249 -0.1075  0.0051  0.0359
  241loPI   GL1 3845  16.150   9.834  10.873 -0.1172 -0.3313 -0.2778
  241loPI   GL2 3846  15.857   9.946  10.986  0.2271 -0.2875  0.1616
  241loPI   C1A 3847  16.249   9.965  10.453 -0.1326  0.0877  0.2622
  241loPI   C2A 3848  16.171   9.895  10.011 -0.2180 -0.3393  0.1228
  241loPI   C3A 3849  16.283  10.025   9.615  0.2198 -0.0305 -0.2245
  241loPI   C4A 3850  16.303  10.221   9.213  0.0502  0.0796 -0.2536
  241loPI   C5A 3851  16.305  10.433   8.859 -0.0640  0.2215 -0.0771
  241loPI   C6A 3852  15.929  10.716   8.832 -0.1898  0.6467  0.0744
  241loPI   C1B 3853  15.777   9.802  10.568  0.1161 -0.0496 -0.0393
  241loPI   C2B 3854  15.708   9.844  10.101 -0.1562 -0.2229 -0.1398
  241loPI   C3B 3855  15.716   9.784   9.633  0.0888  0.1200 -0.1064
  241loPI   C4B 3856  15.674   9.549   9.199 -0.0078  0.0998 -0.3241
  242loPI    C1 3857   9.465  11.309  11.522  0.3977 -0.1493  0.1727
  242loPI    C2 3858   9.260  10.968  11.481 -0.0854  0.1496  0.0135
  242loPI    C3 3859   9.402  11.074  11.839 -0.0740 -0.1372  0.0958
  242loPI   PO4 3860   9.564  11.295  11.265  0.2061  0.0125  0.3270
  242loPI   GL1 3861   9.800  11.061  11.049  0.3619 -0.2773 -0.0742
  242loPI   GL2 3862  10.103  11.095  10.889 -0.1450  0.2267  0.2187
  242loPI   C1A 3863   9.583  10.988  10.666 -0.1078  0.0000  0.0843
  242loPI   C2A 3864   9.498  11.089  10.247 -0.1618  0.1386 -0.2600
  242loPI   C3A 3865   9.533  11.172   9.810 -0.3425 -0.1993 -0.0462
  242loPI   C4A 3866   9.589  11.116   9.315 -0.1350  0.1976  0.0729
  242loPI   C5A 3867   9.481  10.915   8.881 -0.1711 -0.0951  0.0497
  242loPI   C6A 3868   9.079  10.928   8.639 -0.2045 -0.2356  0.1661
  242loPI   C1B 3869  10.040  11.162  10.432 -0.0521  0.2929 -0.1754
  242loPI   C2B 3870  10.043  11.180   9.973  0.0569  0.0705  0.0401
  242loPI   C3B 3871  10.048  11.158   9.497  0.1954  0.0312 -0.1137
  242loPI   C4B 3872  10.003  11.146   9.093 -0.1934 -0.0156 -0.3333
  243loPI    C1 3873   5.336  17.277  11.644  0.1925 -0.0228  0.1469
  243loPI    C2 3874   5.005  17.440  11.799  0.3022  0.2778  0.0706
  243loPI    C3 3875   5.076  17.049  11.846 -0.0899  0.1987  0.0408
  243loPI   PO4 3876   5.345  17.359  11.361  0.0915 -0.0912 -0.0050
  243loPI   GL1 3877   5.172  17.397  11.020  0.1754 -0.0293 -0.1530
  243loPI   GL2 3878   5.314  17.678  10.957  0.3209  0.0726 -0.2812
  243loPI   C1A 3879   5.189  17.269  10.631  0.1692 -0.0651 -0.1444
  243loPI   C2A 3880   5.096  17.290  10.160  0.4131  0.1895 -0.3080
  243loPI   C3A 3881   5.065  17.318   9.754  0.0356  0.1350  0.0819
  243loPI   C4A 3882   5.232  17.311   9.357  0.1523  0.0355 -0.0984
  243loPI   C5A 3883   5.251  17.415   8.974 -0.1785 -0.1093 -0.0859
  243loPI   C6A 3884   5.159  17.259   8.543  0.0686 -0.1140  0.3075
  243loPI   C1B 3885   5.307  17.737  10.532  0.0205  0.0505 -0.2742
  243loPI   C2B 3886   5.318  17.746  10.097  0.2042 -0.0685  0.0950
  243loPI   C3B 3887   5.363  17.869   9.674  0.1252 -0.2387  0.0350
  243loPI   C4B 3888   5.394  17.828   9.262 -0.2427  0.0257  0.1881
  244loPI    C1 3889   7.469   5.979  11.694  0.1145 -0.1645  0.1811
  244loPI    C2 3890   7.208   5.712  11.836 -0.2193  0.0158 -0.0790
  244loPI    C3 3891   7.274   6.051  12.036 -0.2033 -0.0183 -0.0262
  244loPI   PO4 3892   7.305   5.988  11.328  0.0795 -0.2471  0.0300
  244loPI   GL1 3893   7.520   5.820  10.919 -0.0123  0.0046  0.3077
  244loPI   GL2 3894   7.921   5.874  10.823  0.2085 -0.0818 -0.0216
  244loPI   C1A 3895   7.412   5.837  10.434  0.1497 -0.1604  0.0558
  244loPI   C2A 3896   7.390   5.717  10.082 -0.0858  0.0656 -0.3018
  244loPI   C3A 3897   7.452   5.738   9.701 -0.2344 -0.0639  0.0388
  244loPI   C4A 3898   7.504   5.588   9.258  0.0368 -0.3104 -0.0920
  244loPI   C5A 3899   7.305   5.773   8.942  0.0833 -0.0378  0.1644
  244loPI   C6A 3900   7.191   5.752   8.516  0.1573 -0.2868  0.1666
  244loPI   C1B 3901   7.893   5.946  10.409  0.1496 -0.4231 -0.1598
  244loPI   C2B 3902   7.890   5.906   9.993 -0.3256  0.3543 -0.0903
  244loPI   C3B 3903   7.915   5.838   9.599 -0.0880  0.5243  0.1444
  244loPI   C4B 3904   8.036   5.769   9.168 -0.1625 -0.1284 -0.0455
  245loPI    C1 3905   2.649   5.921  11.668 -0.0679 -0.1567  0.0845
  245loPI    C2 3906   2.745   6.080  12.022 -0.0419  0.0330 -0.0061
  245loPI    C3 3907   2.973   5.792  11.864  0.1578  0.2064 -0.0384
  245loPI   PO4 3908   2.784   6.117  11.500 -0.5256 -0.1761 -0.1168
  245loPI   GL1 3909   2.871   6.505  11.083  0.2061 -0.0207  0.1068
  245loPI   GL2 3910   3.032   6.781  10.972  0.0932 -0.1314  0.3206
  245loPI   C1A 3911   2.795   6.344  10.694 -0.0552 -0.2578  0.2216
  245loPI   C2A 3912   2.894   6.424  10.329 -0.0691  0.0472 -0.2664
  245loPI   C3A 3913   2.839   6.353   9.925  0.0954  0.3127  0.0994
  245loPI   C4A 3914   2.774   6.502   9.450 -0.1292  0.3690  0.0131
  245loPI   C5A 3915   2.831   6.606   8.973 -0.0336  0.2544  0.1269
  245loPI   C6A 3916   3.079   6.396   8.765  0.3409  0.1866 -0.1418
  245loPI   C1B 3917   2.964   6.897  10.594  0.0720  0.0315 -0.1031
  245loPI   C2B 3918   2.960   6.879  10.140  0.1303  0.0581  0.0104
  245loPI   C3B 3919   2.974   6.854   9.667 -0.1712 -0.2414  0.1460
  245loPI   C4B 3920   2.989   6.982   9.332 -0.1270  0.1591  0.1220
  246loPI    C1 3921   2.687   4.475  11.745  0.2806  0.0449  0.0214
  246loPI    C2 3922   2.924   4.167  11.837  0.0322 -0.1219  0.1116
  246loPI    C3 3923   2.770   4.394  12.128  0.0450 -0.0414  0.0556
  246loPI   PO4 3924   2.875   4.569  11.526  0.0005 -0.1319  0.2447
  246loPI   GL1 3925   2.994   4.532  11.038  0.0285  0.0570 -0.1857
  246loPI   GL2 3926   2.703   4.548  11.006 -0.2976  0.0442  0.2898
  246loPI   C1A 3927   3.186   4.676  10.549 -0.3313 -0.2456  0.2181
  246loPI   C2A 3928   3.097   4.530  10.181 -0.1779 -0.1802  0.0424
  246loPI   C3A 3929   3.061   4.636   9.769  0.3889 -0.1458  0.0042
  246loPI   C4A 3930   3.041   4.673   9.325 -0.0451  0.1209 -0.2110
  246loPI   C5A 3931   3.200   4.856   8.989 -0.3837 -0.0042 -0.0509
  246loPI   C6A 3932   3.456   5.157   8.750 -0.3712  0.1983 -0.3365
  246loPI   C1B 3933   2.704   4.573  10.527 -0.1740 -0.1479  0.1512
  246loPI   C2B 3934   2.633   4.515  10.075 -0.1529  0.1676  0.1088
  246loPI   C3B 3935   2.555   4.585   9.566  0.2567  0.1994  0.1404
  246loPI   C4B 3936   2.574   4.679   9.168  0.2323  0.0775  0.0202
  247loPI    C1 3937   0.103  11.243  11.762 -0.2454 -0.0548 -0.0599
  247loPI    C2 3938   0.070  10.980  11.462 -0.4335 -0.0830 -0.0158
  247loPI    C3 3939  -0.107  10.906  11.813 -0.3665  0.0354  0.0437
  247loPI   PO4 3940   0.006  11.527  11.623 -0.2863  0.1330  0.1081
  247loPI   GL1 3941  -0.223  11.661  11.256  0.1914  0.0042  0.3281
  247loPI   GL2 3942   0.072  11.530  11.157  0.3892  0.0410 -0.0572
  247loPI   C1A 3943  -0.364  11.874  10.876 -0.0520  0.4815 -0.0754
  247loPI   C2A 3944  -0.412  11.872  10.513 -0.3157 -0.0639  0.0267
  247loPI   C3A 3945  -0.324  11.976  10.189 -0.0145  0.0733  0.0888
  247loPI   C4A 3946  -0.398  11.870   9.873 -0.3485 -0.1592 -0.0826
  247loPI   C5A 3947  -0.250  11.726   9.533  0.1728 -0.0006  0.1436
  247loPI   C6A 3948  -0.159  12.055   9.165  0.1636 -0.1628  0.1388
  247loPI   C1B 3949  -0.096  11.361  10.797  0.3190 -0.0429 -0.2025
  247loPI   C2B 3950  -0.221  10.983  10.487  0.1475 -0.2561 -0.1736
  247loPI   C3B 3951  -0.282  10.979  10.057  0.0474  0.0621  0.2727
  247loPI   C4B 3952  -0.420  10.933   9.610 -0.0539 -0.0098  0.1427
  248loPI    C1 3953  12.445  11.268  11.491 -0.0520 -0.0598  0.0374
  248loPI    C2 3954  12.169  11.170  11.763  0.0662 -0.1200  0.1369
  248loPI    C3 3955  12.515  11.333  11.880  0.1559 -0.2335  0.0307
  248loPI   PO4 3956  12.290  11.197  11.171  0.0170  0.1972 -0.0020
  248loPI   GL1 3957  12.391  11.148  10.704 -0.0785 -0.2676  0.1218
  248loPI   GL2 3958  12.156  11.330  10.589  0.0367  0.0595  0.4050
  248loPI   C1A 3959  12.532  11.190  10.297  0.0262 -0.0513  0.0041
  248loPI   C2A 3960  12.450  11.097   9.899 -0.0744 -0.4099  0.0578
  248loPI   C3A 3961  12.350  11.118   9.496  0.2206 -0.2460  0.2034
  248loPI   C4A 3962  12.361  11.111   9.077 -0.0594 -0.2055 -0.1476
  248loPI   C5A 3963  12.524  10.827   8.782  0.0697 -0.0576 -0.0885
  248loPI   C6A 3964  12.947  10.654   8.695  0.0194  0.1730  0.1970
  248loPI   C1B 3965  12.128  11.485  10.185  0.0635  0.3706  0.0140
  248loPI   C2B 3966  12.132  11.470   9.750 -0.1032  0.1814 -0.0834
  248loPI   C3B 3967  12.090  11.526   9.268  0.4012  0.0747  0.1569
  248loPI   C4B 3968  11.997  11.375   8.872  0.1553  0.1029 -0.0119
  249loPI    C1 3969  11.014  12.899  11.795 -0.0108 -0.1531 -0.0014
  249loPI    C2 3970  10.804  12.716  12.082 -0.1116 -0.0356  0.0006
  249loPI    C3 3971  11.163  12.871  12.164 -0.1740  0.0660  0.0835
  249loPI   PO4 3972  10.983  12.726  11.582 -0.2099 -0.1585 -0.4528
  249loPI   GL1 3973  10.937  12.849  11.062  0.0513 -0.0237  0.1461
  249loPI   GL2 3974  10.702  12.650  10.897 -0.4290  0.2443 -0.0568
  249loPI   C1A 3975  11.099  12.718  10.651 -0.2242  0.0908  0.2713
  249loPI   C2A 3976  11.145  12.679  10.181 -0.4425  0.1185 -0.1412
  249loPI   C3A 3977  11.159  12.687   9.741  0.2465  0.4337  0.0033
  249loPI   C4A 3978  11.135  12.697   9.374 -0.0969  0.0792 -0.3757
  249loPI   C5A 3979  11.420  12.643   9.032 -0.0725  0.2292  0.2660
  249loPI   C6A 3980  11.465  12.592   8.642 -0.0236 -0.1454  0.1313
  249loPI   C1B 3981  10.619  12.577  10.455 -0.2109 -0.2702  0.1435
  249loPI   C2B 3982  10.649  12.583   9.968  0.1239 -0.0139 -0.3315
  249loPI   C3B 3983  10.587  12.617   9.536  0.2280 -0.1525 -0.0486
  249loPI   C4B 3984  10.511  12.682   9.228 -0.1057  0.4845 -0.1724
  250loPI    C1 3985   8.393   0.936  11.572 -0.1175 -0.1756  0.1938
  250loPI    C2 3986   8.529   0.644  11.809 -0.0627 -0.3044  0.0055
  250loPI    C3 3987   8.155   0.778  11.852 -0.1168 -0.4623  0.0365
  250loPI   PO4 3988   8.406   0.875  11.325 -0.0251 -0.1600  0.0083
  250loPI   GL1 3989   8.662   0.866  10.943 -0.0127 -0.0232 -0.1036
  250loPI   GL2 3990   8.990   1.011  11.001  0.0394 -0.2585  0.0369
  250loPI   C1A 3991   8.457   0.868  10.501 -0.0910  0.0527  0.0707
  250loPI   C2A 3992   8.415   0.852  10.034  0.0243 -0.2623 -0.1013
  250loPI   C3A 3993   8.621   0.760   9.644 -0.1806  0.0291  0.1180
  250loPI   C4A 3994   8.639   0.714   9.210 -0.0704 -0.1063 -0.1896
  250loPI   C5A 3995   8.837   0.850   8.852  0.2041  0.1412 -0.1591
  250loPI   C6A 3996   8.736   0.982   8.401  0.0989  0.1351  0.1794
  250loPI   C1B 3997   9.022   0.920  10.550  0.2425  0.0661 -0.0461
  250loPI   C2B 3998   8.921   0.956  10.126  0.1798  0.2393 -0.0528
  250loPI   C3B 3999   9.124   0.882   9.759 -0.1808  0.1620  0.0412
  250loPI   C4B 4000   9.113   0.819   9.285 -0.1223 -0.1693  0.1333
  251loPI    C1 4001   9.925   0.827  11.801 -0.0145 -0.1511  0.2192
  251loPI    C2 4002  10.299   0.935  11.707 -0.0619 -0.2575 -0.1059
  251loPI    C3 4003  10.088   1.152  11.968  0.1691 -0.1041 -0.0434
  251loPI   PO4 4004   9.845   0.659  11.611  0.2563 -0.1477  0.1822
  251loPI   GL1 4005   9.832   0.644  11.166 -0.0797  0.0583 -0.0664
  251loPI   GL2 4006  10.123   0.629  11.208 -0.0315  0.0503  0.1334
  251loPI   C1A 4007   9.866   0.586  10.686  0.2145  0.2147 -0.0308
  251loPI   C2A 4008   9.887   0.598  10.209 -0.0563 -0.0748 -0.2716
  251loPI   C3A 4009   9.907   0.457   9.818  0.0936  0.0360 -0.1053
  251loPI   C4A 4010   9.896   0.506   9.346 -0.0665  0.0089  0.4519
  251loPI   C5A 4011   9.816   0.579   8.946  0.0193 -0.0808  0.1286
  251loPI   C6A 4012   9.683   0.677   8.531 -0.0077 -0.1922 -0.3198
  251loPI   C1B 4013  10.328   0.738  10.888  0.0652 -0.0976  0.0674
  251loPI   C2B 4014  10.328   0.673  10.453  0.2330 -0.0620 -0.0027
  251loPI   C3B 4015  10.395   0.687  10.014 -0.1937 -0.2925  0.0065
  251loPI   C4B 4016  10.427   0.651   9.583 -0.2128  0.1105  0.0773
  252loPI    C1 4017  16.006   6.938  11.412  0.0990  0.0637  0.0372
  252loPI    C2 4018  15.907   6.598  11.600  0.2816 -0.0568 -0.0813
  252loPI    C3 4019  16.016   6.920  11.812 -0.0712 -0.0127  0.0387
  252loPI   PO4 4020  16.212   6.755  11.204 -0.1033 -0.1837 -0.2125
  252loPI   GL1 4021  16.237   6.451  10.895 -0.0420 -0.1691  0.2206
  252loPI   GL2 4022  15.891   6.335  10.934 -0.0869  0.3126 -0.1451
  252loPI   C1A 4023  16.267   6.289  10.479  0.0421 -0.2879  0.0142
  252loPI   C2A 4024  16.387   6.224  10.082  0.3958  0.1158 -0.2072
  252loPI   C3A 4025  16.291   6.272   9.692  0.0451 -0.1026 -0.1867
  252loPI   C4A 4026  16.362   6.250   9.313  0.1525 -0.1485  0.1101
  252loPI   C5A 4027  16.341   6.562   9.023 -0.0167  0.2302  0.1049
  252loPI   C6A 4028  16.334   7.038   8.929 -0.1924  0.0849  0.0261
  252loPI   C1B 4029  15.791   6.216  10.607 -0.0957  0.0051 -0.2431
  252loPI   C2B 4030  15.731   6.134  10.157  0.1377 -0.2358 -0.2655
  252loPI   C3B 4031  15.798   6.154   9.707 -0.1973  0.0273  0.2805
  252loPI   C4B 4032  15.891   6.169   9.267 -0.0079 -0.1156 -0.1210
  253loPI    C1 4033  11.093   2.200  11.872  0.0713 -0.0291  0.0824
  253loPI    C2 4034  10.707   2.306  11.877  0.0646 -0.0557  0.1624
  253loPI    C3 4035  10.890   2.204  12.217  0.1628  0.0299  0.1357
  253loPI   PO4 4036  11.131   2.050  11.675  0.3509 -0.1474 -0.0475
  253loPI   GL1 4037  11.137   1.927  11.267 -0.0229  0.0738 -0.0662
  253loPI   GL2 4038  11.327   2.187  11.266  0.1004 -0.1935  0.0118
  253loPI   C1A 4039  11.212   1.898  10.875  0.0136  0.0358  0.2801
  253loPI   C2A 4040  11.280   1.714  10.474 -0.4278 -0.0697 -0.0207
  253loPI   C3A 4041  11.269   1.804  10.008 -0.0773  0.1664 -0.0578
  253loPI   C4A 4042  11.182   1.659   9.565  0.1647 -0.1720  0.0611
  253loPI   C5A 4043  11.277   1.571   9.054 -0.0810 -0.0023  0.1294
  253loPI   C6A 4044  11.435   1.717   8.615 -0.2148  0.1378  0.0662
  253loPI   C1B 4045  11.465   2.312  10.906 -0.0491 -0.0594 -0.0815
  253loPI   C2B 4046  11.478   2.220  10.506  0.2260 -0.0118 -0.2256
  253loPI   C3B 4047  11.409   2.253  10.026 -0.0661  0.1555 -0.1466
  253loPI   C4B 4048  11.417   2.071   9.580  0.1095  0.1456 -0.3078
  254loPI    C1 4049   7.979   6.572  11.839 -0.1325 -0.0603  0.0854
  254loPI    C2 4050   7.711   6.304  11.967 -0.0162 -0.1853  0.0685
  254loPI    C3 4051   8.062   6.343  12.156 -0.0751  0.0305  0.1363
  254loPI   PO4 4052   7.792   6.836  11.794  0.1098 -0.2230 -0.4354
  254loPI   GL1 4053   7.804   6.851  11.411  0.2480  0.0249  0.3483
  254loPI   GL2 4054   8.010   6.659  11.352  0.1766 -0.0954  0.3267
  254loPI   C1A 4055   7.868   7.184  10.995 -0.0791 -0.1482 -0.3265
  254loPI   C2A 4056   7.973   7.209  10.608 -0.2849 -0.1081  0.0797
  254loPI   C3A 4057   7.982   7.265  10.183  0.0268 -0.0106  0.0956
  254loPI   C4A 4058   8.065   7.260   9.759 -0.2816 -0.0752  0.3280
  254loPI   C5A 4059   7.911   7.316   9.334  0.1411 -0.1457 -0.2693
  254loPI   C6A 4060   8.133   7.404   8.944  0.1222  0.1805 -0.2486
  254loPI   C1B 4061   7.802   6.734  10.875 -0.1548  0.0032  0.1692
  254loPI   C2B 4062   7.783   6.758  10.444  0.2391 -0.1819 -0.1181
  254loPI   C3B 4063   7.898   6.826   9.946  0.3039  0.1509 -0.3837
  254loPI   C4B 4064   7.852   6.744   9.538  0.0456  0.2809 -0.0451
  255loPI    C1 4065   4.591  15.304  11.879 -0.0753 -0.0954 -0.0232
  255loPI    C2 4066   4.371  14.973  11.929  0.1333 -0.2174  0.1002
  255loPI    C3 4067   4.716  15.017  12.128  0.2566 -0.0594 -0.1433
  255loPI   PO4 4068   4.580  15.322  11.615 -0.0269 -0.2610  0.1617
  255loPI   GL1 4069   4.422  15.591  11.333  0.0258 -0.1027  0.2199
  255loPI   GL2 4070   4.291  15.388  11.190 -0.2683 -0.0652  0.1553
  255loPI   C1A 4071   4.591  15.836  11.041 -0.1905 -0.1868  0.2103
  255loPI   C2A 4072   4.593  15.904  10.594  0.1297 -0.1857 -0.1038
  255loPI   C3A 4073   4.604  15.909  10.157 -0.2246 -0.0780 -0.1099
  255loPI   C4A 4074   4.603  15.887   9.774  0.1842  0.1281  0.1090
  255loPI   C5A 4075   4.612  15.833   9.311  0.3394 -0.1622 -0.1306
  255loPI   C6A 4076   4.697  15.495   8.936 -0.1658 -0.0830 -0.0277
  255loPI   C1B 4077   4.498  15.411  10.746 -0.0038 -0.2620  0.0295
  255loPI   C2B 4078   4.379  15.433  10.255  0.5288  0.0871  0.2033
  255loPI   C3B 4079   4.372  15.389   9.874 -0.2242 -0.0913  0.1903
  255loPI   C4B 4080   4.469  15.309   9.402 -0.0133  0.2453  0.1237
  256loPI    C1 4081  13.832  14.482  12.006 -0.1000 -0.2094  0.2892
  256loPI    C2 4082  13.756  14.753  12.290 -0.0172  0.1840 -0.0541
  256loPI    C3 4083  14.133  14.683  12.176 -0.0090 -0.3035  0.2406
  256loPI   PO4 4084  13.552  14.489  11.880  0.0699 -0.0368  0.1216
  256loPI   GL1 4085  13.502  14.334  11.383 -0.0085  0.0410  0.0801
  256loPI   GL2 4086  13.201  14.407  11.182 -0.0897 -0.0339  0.2249
  256loPI   C1A 4087  13.578  14.094  11.007  0.1573  0.0718 -0.2613
  256loPI   C2A 4088  13.536  13.974  10.542 -0.0249 -0.1023 -0.0363
  256loPI   C3A 4089  13.654  13.926  10.128  0.3372  0.1993  0.0533
  256loPI   C4A 4090  13.644  13.950   9.609  0.0900 -0.2632  0.0107
  256loPI   C5A 4091  13.545  14.005   9.155  0.0714  0.0558 -0.1295
  256loPI   C6A 4092  13.327  14.175   8.840 -0.2477  0.2270 -0.1552
  256loPI   C1B 4093  13.233  14.389  10.707  0.0334 -0.0104  0.1416
  256loPI   C2B 4094  13.280  14.420  10.301 -0.1967 -0.1552  0.1753
  256loPI   C3B 4095  13.342  14.355   9.910  0.0792  0.0541  0.0152
  256loPI   C4B 4096  13.245  14.222   9.474  0.0033 -0.0648 -0.0266
  257loPI    C1 4097   2.456  16.891  11.746 -0.0925 -0.0237  0.1826
  257loPI    C2 4098   2.177  17.106  11.556  0.0896  0.0476 -0.0092
  257loPI    C3 4099   2.099  16.949  11.916 -0.2472 -0.0565 -0.1239
  257loPI   PO4 4100   2.591  16.734  11.481  0.1737  0.1753  0.0077
  257loPI   GL1 4101   2.789  16.550  11.108 -0.2073 -0.3082  0.0140
  257loPI   GL2 4102   2.667  16.798  10.959 -0.3053  0.1396 -0.3024
  257loPI   C1A 4103   2.952  16.515  10.676  0.1309  0.2069  0.0990
  257loPI   C2A 4104   2.951  16.571  10.311 -0.1237  0.0759  0.2969
  257loPI   C3A 4105   2.926  16.486   9.958 -0.0509 -0.0711  0.2898
  257loPI   C4A 4106   2.979  16.482   9.484 -0.0249 -0.1599  0.2023
  257loPI   C5A 4107   3.119  16.742   9.036 -0.0364  0.0846 -0.0907
  257loPI   C6A 4108   3.261  16.735   8.683  0.2410 -0.1597  0.0600
  257loPI   C1B 4109   2.624  16.911  10.584 -0.0022 -0.0406  0.2456
  257loPI   C2B 4110   2.584  16.835  10.050  0.1011  0.0031 -0.2108
  257loPI   C3B 4111   2.521  16.904   9.588  0.4210  0.4286  0.0444
  257loPI   C4B 4112   2.556  16.841   9.179  0.3905 -0.1235 -0.1720
  258loPI    C1 4113  13.804   0.931  11.933  0.1143 -0.0219 -0.1973
  258loPI    C2 4114  14.045   1.220  12.067  0.0511 -0.1009  0.0951
  258loPI    C3 4115  14.131   0.837  12.143  0.0435 -0.1515 -0.1437
  258loPI   PO4 4116  13.725   0.917  11.726 -0.3462 -0.3225 -0.2438
  258loPI   GL1 4117  13.888   0.625  11.359 -0.0571  0.3073 -0.2585
  258loPI   GL2 4118  13.814   0.856  11.167 -0.0705  0.1143 -0.1734
  258loPI   C1A 4119  14.009   0.462  10.994 -0.2911  0.1194 -0.0606
  258loPI   C2A 4120  14.023   0.384  10.497 -0.2734 -0.1034  0.0559
  258loPI   C3A 4121  13.998   0.399  10.056 -0.1645 -0.3785 -0.1241
  258loPI   C4A 4122  14.178   0.318   9.649 -0.2661 -0.0782 -0.2739
  258loPI   C5A 4123  14.350   0.119   9.213 -0.0781  0.1121  0.4202
  258loPI   C6A 4124  14.459  -0.339   9.230 -0.1756  0.1218  0.3564
  258loPI   C1B 4125  13.772   0.850  10.763  0.2353 -0.2147  0.0343
  258loPI   C2B 4126  13.675   0.875  10.390  0.0542  0.1241 -0.3086
  258loPI   C3B 4127  13.736   0.775   9.978 -0.2309 -0.3388 -0.3290
  258loPI   C4B 4128  13.841   0.652   9.553 -0.1554 -0.2418 -0.5179
  259loPI    C1 4129  14.169  15.113  11.631  0.1684 -0.2392 -0.0414
  259loPI    C2 4130  13.871  14.955  11.846  0.2385 -0.0289  0.2156
  259loPI    C3 4131  13.847  15.334  11.720  0.0974 -0.2151 -0.3463
  259loPI   PO4 4132  14.237  15.006  11.500 -0.3638  0.1221 -0.0287
  259loPI   GL1 4133  14.365  15.195  11.144  0.1159 -0.1111 -0.1474
  259loPI   GL2 4134  14.168  14.824  10.977 -0.3401  0.1936  0.0682
  259loPI   C1A 4135  14.402  15.170  10.697 -0.1340 -0.2033 -0.0760
  259loPI   C2A 4136  14.542  15.095  10.312 -0.0399 -0.0499 -0.0687
  259loPI   C3A 4137  14.673  15.079   9.927 -0.0733  0.1251 -0.1564
  259loPI   C4A 4138  14.503  15.105   9.465 -0.0805  0.0092 -0.1217
  259loPI   C5A 4139  14.730  15.188   9.058 -0.0445  0.2995  0.2779
  259loPI   C6A 4140  14.660  15.085   8.629  0.1411  0.0133  0.0970
  259loPI   C1B 4141  14.315  14.712  10.551 -0.0865  0.0703 -0.1342
  259loPI   C2B 4142  14.406  14.603  10.138  0.3188  0.0962 -0.2632
  259loPI   C3B 4143  14.388  14.616   9.648 -0.0017  0.0442 -0.1825
  259loPI   C4B 4144  14.305  14.545   9.161 -0.1702  0.1124  0.0854
  260loPI    C1 4145   0.541   9.138  11.609  0.1712 -0.0772 -0.1892
  260loPI    C2 4146   0.470   8.812  11.831  0.0131  0.0706 -0.0189
  260loPI    C3 4147   0.846   8.933  11.768  0.0718 -0.1350 -0.0701
  260loPI   PO4 4148   0.375   9.071  11.362 -0.0385  0.1335 -0.3217
  260loPI   GL1 4149   0.290   9.333  10.980  0.2966 -0.0667  0.0753
  260loPI   GL2 4150   0.102   9.224  10.868 -0.1218  0.3625  0.1002
  260loPI   C1A 4151   0.517   9.474  10.682 -0.2723  0.1860  0.1295
  260loPI   C2A 4152   0.735   9.284  10.321  0.0720 -0.1035 -0.0183
  260loPI   C3A 4153   0.657   9.257   9.852  0.0544 -0.0881  0.4004
  260loPI   C4A 4154   0.521   9.200   9.398  0.2185 -0.2457 -0.0006
  260loPI   C5A 4155   0.516   8.971   9.026 -0.2736 -0.2854  0.1383
  260loPI   C6A 4156   0.478   8.984   8.562 -0.2571  0.0619  0.2343
  260loPI   C1B 4157   0.117   9.279  10.462  0.1466  0.0218  0.0825
  260loPI   C2B 4158   0.113   9.323   9.962 -0.0250  0.1110 -0.3033
  260loPI   C3B 4159  -0.026   9.145   9.512 -0.1159 -0.2393 -0.0242
  260loPI   C4B 4160   0.004   9.059   9.145 -0.1572  0.0744 -0.0744
  261loPI    C1 4161   8.050   2.897  11.651  0.1141  0.1352 -0.0186
  261loPI    C2 4162   7.994   2.554  11.850  0.0680  0.0424 -0.1886
  261loPI    C3 4163   8.363   2.702  11.805  0.1057 -0.0709 -0.2552
  261loPI   PO4 4164   7.891   2.844  11.437  0.3623 -0.0308 -0.0552
  261loPI   GL1 4165   7.955   2.657  11.036  0.1105 -0.0592  0.0216
  261loPI   GL2 4166   7.621   2.564  10.848 -0.0702 -0.0229  0.0943
  261loPI   C1A 4167   8.124   2.606  10.669 -0.0966 -0.2280 -0.0830
  261loPI   C2A 4168   8.095   2.555  10.185  0.3571 -0.2378 -0.0014
  261loPI   C3A 4169   8.096   2.642   9.679  0.0200  0.1492 -0.2031
  261loPI   C4A 4170   8.182   2.699   9.290 -0.2484  0.3250 -0.1339
  261loPI   C5A 4171   8.179   2.606   8.850  0.2247  0.1253 -0.0577
  261loPI   C6A 4172   8.226   2.148   8.492 -0.1539 -0.2305 -0.1586
  261loPI   C1B 4173   7.596   2.612  10.408 -0.3329  0.1709  0.2289
  261loPI   C2B 4174   7.681   2.484   9.932  0.4359  0.1147 -0.0265
  261loPI   C3B 4175   7.640   2.523   9.502  0.2033 -0.1154  0.1614
  261loPI   C4B 4176   7.697   2.485   9.030 -0.2007  0.2523  0.0124
  262loPI    C1 4177   3.778   0.074  11.969 -0.1647 -0.0687  0.0878
  262loPI    C2 4178   3.606   0.103  12.329 -0.1383 -0.1306  0.1058
  262loPI    C3 4179   3.738  -0.251  12.199 -0.0651 -0.0917  0.0736
  262loPI   PO4 4180   3.677   0.172  11.730  0.1243 -0.0345 -0.1603
  262loPI   GL1 4181   3.806   0.314  11.319  0.2932  0.2149  0.0169
  262loPI   GL2 4182   3.590   0.502  11.134  0.0734  0.1008 -0.0214
  262loPI   C1A 4183   3.773   0.103  10.854 -0.0046  0.2429  0.2241
  262loPI   C2A 4184   3.858   0.213  10.419  0.0470 -0.0083 -0.0608
  262loPI   C3A 4185   3.818   0.173  10.018 -0.0384 -0.0425  0.1219
  262loPI   C4A 4186   3.865   0.181   9.572  0.2601 -0.1340 -0.0512
  262loPI   C5A 4187   3.973   0.109   9.148  0.0782 -0.0731  0.0560
  262loPI   C6A 4188   3.810  -0.085   8.805 -0.1299  0.0353  0.0876
  262loPI   C1B 4189   3.507   0.479  10.635 -0.0366 -0.3039 -0.3643
  262loPI   C2B 4190   3.502   0.545  10.245 -0.2963  0.0835  0.3920
  262loPI   C3B 4191   3.522   0.500   9.884  0.1345 -0.0904 -0.0544
  262loPI   C4B 4192   3.518   0.602   9.474 -0.2365  0.0485  0.0488
  263loPI    C1 4193   9.976   2.633  11.614  0.0478 -0.1324 -0.0647
  263loPI    C2 4194   9.878   2.702  11.996 -0.0062 -0.1903 -0.0677
  263loPI    C3 4195  10.181   2.456  11.909  0.1703  0.0202 -0.0573
  263loPI   PO4 4196   9.684   2.538  11.532  0.0531  0.1566 -0.0388
  263loPI   GL1 4197   9.575   2.500  11.073  0.0075  0.1906  0.0579
  263loPI   GL2 4198   9.363   2.820  11.038 -0.0846  0.0564  0.2087
  263loPI   C1A 4199   9.447   2.289  10.643  0.0730  0.0846  0.1732
  263loPI   C2A 4200   9.437   2.375  10.221  0.0141  0.1175  0.3928
  263loPI   C3A 4201   9.403   2.340   9.798 -0.0958  0.0203  0.0176
  263loPI   C4A 4202   9.443   2.219   9.393  0.0901 -0.2551  0.1745
  263loPI   C5A 4203   9.437   2.242   9.011 -0.0105  0.1705  0.0125
  263loPI   C6A 4204   9.018   2.222   8.698  0.1374 -0.0646  0.0943
  263loPI   C1B 4205   9.195   2.720  10.675 -0.1991  0.0867 -0.3300
  263loPI   C2B 4206   9.211   2.784  10.179 -0.0378 -0.3041  0.0664
  263loPI   C3B 4207   9.084   2.803   9.766 -0.2934  0.3181  0.1052
  263loPI   C4B 4208   9.182   2.829   9.415 -0.0670 -0.1190  0.3852
  264loPI    C1 4209   6.991  11.564  11.651 -0.0857 -0.1753  0.0604
  264loPI    C2 4210   6.782  11.388  11.943 -0.0291  0.0169  0.2186
  264loPI    C3 4211   7.179  11.429  11.978  0.0071 -0.1478  0.0190
  264loPI   PO4 4212   6.797  11.677  11.445 -0.0092 -0.1476  0.0863
  264loPI   GL1 4213   6.771  11.558  11.030 -0.4769  0.0732 -0.2831
  264loPI   GL2 4214   6.526  11.843  11.074  0.2137  0.0689 -0.0667
  264loPI   C1A 4215   6.920  11.622  10.634  0.3159 -0.1993  0.1736
  264loPI   C2A 4216   6.913  11.631  10.192 -0.2101  0.0692 -0.0371
  264loPI   C3A 4217   6.845  11.520   9.786 -0.3360  0.0120  0.2249
  264loPI   C4A 4218   6.802  11.647   9.308  0.2135  0.0025 -0.0088
  264loPI   C5A 4219   6.684  11.452   8.898  0.0522  0.0928  0.0285
  264loPI   C6A 4220   6.744  11.198   8.585 -0.2480 -0.0994  0.2696
  264loPI   C1B 4221   6.494  11.999  10.668  0.2493 -0.2256  0.0212
  264loPI   C2B 4222   6.647  12.065  10.268  0.0755 -0.2341 -0.0785
  264loPI   C3B 4223   6.570  11.961   9.868 -0.0341 -0.0731 -0.2612
  264loPI   C4B 4224   6.444  11.962   9.434 -0.0961 -0.0478  0.2103
  265loPI    C1 4225   5.420   7.565  11.454  0.1888  0.0459 -0.0870
  265loPI    C2 4226   5.699   7.558  11.740  0.0804  0.0856  0.0209
  265loPI    C3 4227   5.352   7.367  11.794  0.1509 -0.1056 -0.1818
  265loPI   PO4 4228   5.482   7.444  11.240 -0.2043 -0.0820  0.0648
  265loPI   GL1 4229   5.582   7.241  10.969 -0.3052 -0.1945  0.0555
  265loPI   GL2 4230   5.388   6.986  11.021 -0.2029  0.2919 -0.2393
  265loPI   C1A 4231   5.600   7.289  10.612 -0.2157 -0.0797  0.2063
  265loPI   C2A 4232   5.570   7.264  10.272  0.1405 -0.0766 -0.1185
  265loPI   C3A 4233   5.595   7.297   9.886 -0.0227 -0.0263 -0.0590
  265loPI   C4A 4234   5.624   7.285   9.470  0.0385  0.0113 -0.0305
  265loPI   C5A 4235   5.789   7.101   9.163  0.0731 -0.1933  0.0343
  265loPI   C6A 4236   5.671   6.775   8.867 -0.1242  0.0812  0.1030
  265loPI   C1B 4237   5.368   6.835  10.771  0.3656  0.1824  0.0236
  265loPI   C2B 4238   5.379   6.831  10.239  0.3603 -0.0100 -0.0942
  265loPI   C3B 4239   5.463   6.873   9.836  0.0428 -0.0125 -0.0921
  265loPI   C4B 4240   5.418   6.808   9.358 -0.0534 -0.0980  0.1036
  266loPI    C1 4241   0.408   9.808  11.939 -0.0031  0.0258 -0.0948
  266loPI    C2 4242   0.784   9.818  12.074 -0.0071  0.0617 -0.0861
  266loPI    C3 4243   0.479   9.861  12.329 -0.0149  0.1193 -0.1050
  266loPI   PO4 4244   0.399   9.959  11.659 -0.4133  0.1608  0.2491
  266loPI   GL1 4245   0.291  10.075  11.314 -0.2438  0.5663  0.0781
  266loPI   GL2 4246   0.028   9.829  11.208  0.0229  0.0776  0.0651
  266loPI   C1A 4247   0.328  10.171  10.915 -0.0911 -0.0416  0.1332
  266loPI   C2A 4248   0.254  10.197  10.439  0.1822 -0.0267 -0.0036
  266loPI   C3A 4249   0.394  10.230  10.011  0.1163  0.1362 -0.2119
  266loPI   C4A 4250   0.565  10.254   9.584 -0.1221  0.1321  0.1339
  266loPI   C5A 4251   0.572  10.000   9.328  0.3395 -0.0216 -0.2063
  266loPI   C6A 4252   0.586   9.792   8.944 -0.3068  0.0150 -0.0620
  266loPI   C1B 4253   0.146   9.753  10.693  0.2219 -0.2232 -0.0424
  266loPI   C2B 4254   0.273   9.717  10.243 -0.1199 -0.0600 -0.0833
  266loPI   C3B 4255   0.277   9.716   9.788 -0.1254 -0.1719 -0.3488
  266loPI   C4B 4256   0.150   9.613   9.382 -0.1510  0.2438  0.2512
  267loPI    C1 4257  16.161   0.178  11.927 -0.3473  0.1188 -0.1099
  267loPI    C2 4258  15.922   0.426  12.131 -0.2734 -0.0228  0.1540
  267loPI    C3 4259  16.096   0.118  12.317  0.1199  0.0808 -0.0329
  267loPI   PO4 4260  15.948   0.108  11.675  0.0993 -0.2019 -0.0819
  267loPI   GL1 4261  15.805  -0.115  11.358  0.0584 -0.1532  0.0924
  267loPI   GL2 4262  15.514  -0.242  11.213 -0.0750  0.0689 -0.0736
  267loPI   C1A 4263  15.938   0.096  10.973 -0.0947  0.0745 -0.1150
  267loPI   C2A 4264  15.834   0.146  10.566 -0.3895  0.0742  0.1344
  267loPI   C3A 4265  16.012   0.287  10.207 -0.1416  0.2799 -0.1435
  267loPI   C4A 4266  15.964   0.225   9.878  0.1058 -0.2953  0.1533
  267loPI   C5A 4267  16.028   0.278   9.460 -0.1673  0.1809 -0.0294
  267loPI   C6A 4268  15.725   0.233   9.194  0.0133 -0.3932  0.1100
  267loPI   C1B 4269  15.751  -0.334  10.840 -0.0793  0.2715  0.1406
  267loPI   C2B 4270  15.779  -0.328  10.370 -0.0623 -0.0628  0.0318
  267loPI   C3B 4271  15.749  -0.185  10.073  0.0858  0.2299  0.0984
  267loPI   C4B 4272  15.790  -0.284   9.626 -0.2460  0.1726 -0.1576
  268loPI    C1 4273  10.727   7.634  11.727  0.0682 -0.4484  0.1909
  268loPI    C2 4274  10.334   7.613  11.795  0.0268 -0.1031  0.0785
  268loPI    C3 4275  10.557   7.880  11.992  0.2040 -0.2858  0.1293
  268loPI   PO4 4276  10.817   7.686  11.411  0.0358 -0.1563 -0.1186
  268loPI   GL1 4277  10.751   7.452  10.977 -0.1109  0.1551 -0.0425
  268loPI   GL2 4278  10.926   7.189  10.864  0.1090 -0.0564  0.0711
  268loPI   C1A 4279  10.602   7.572  10.658  0.5236 -0.1276 -0.0435
  268loPI   C2A 4280  10.615   7.582  10.276 -0.2400  0.3610  0.0085
  268loPI   C3A 4281  10.572   7.524   9.904  0.0311 -0.1792  0.2653
  268loPI   C4A 4282  10.618   7.519   9.500 -0.0116 -0.0535 -0.2028
  268loPI   C5A 4283  10.593   7.555   9.101  0.0329 -0.3499  0.4015
  268loPI   C6A 4284  10.610   7.809   8.786 -0.1241 -0.3312  0.1522
  268loPI   C1B 4285  10.861   7.250  10.451  0.0587  0.0386  0.0980
  268loPI   C2B 4286  10.909   7.120   9.971  0.0268  0.1499 -0.0658
  268loPI   C3B 4287  10.865   7.070   9.620  0.3804  0.1954  0.3541
  268loPI   C4B 4288  10.957   7.182   9.224  0.2308 -0.0226  0.0643
  269loPI    C1 4289   3.617  15.836  11.694 -0.0412  0.6753  0.3003
  269loPI    C2 4290   3.400  15.799  12.028 -0.0441 -0.0195  0.2364
  269loPI    C3 4291   3.730  15.579  11.979 -0.0477  0.0664 -0.2225
  269loPI   PO4 4292   3.410  15.861  11.513 -0.2217 -0.0897 -0.1186
  269loPI   GL1 4293   3.150  15.939  11.313  0.0651 -0.0342 -0.0384
  269loPI   GL2 4294   2.992  15.662  11.218  0.1067  0.1924 -0.0916
  269loPI   C1A 4295   3.283  16.086  10.894 -0.0985  0.0633  0.0269
  269loPI   C2A 4296   3.234  16.152  10.443  0.0604 -0.3150  0.0419
  269loPI   C3A 4297   3.247  16.144  10.043 -0.0442 -0.1837 -0.0362
  269loPI   C4A 4298   3.281  16.125   9.674  0.0592 -0.1816  0.2020
  269loPI   C5A 4299   3.333  16.069   9.222 -0.3082 -0.1633  0.1211
  269loPI   C6A 4300   3.297  16.276   8.935  0.0594  0.2888  0.4195
  269loPI   C1B 4301   3.074  15.645  10.827  0.1247 -0.3433 -0.4078
  269loPI   C2B 4302   3.032  15.650  10.422 -0.0831 -0.0257 -0.0872
  269loPI   C3B 4303   3.091  15.635   9.988 -0.1030  0.1370  0.0512
  269loPI   C4B 4304   3.149  15.575   9.586  0.2708  0.1514  0.3918
  270loPI    C1 4305  10.962  15.550  11.460 -0.0126  0.0296 -0.0063
  270loPI    C2 4306  11.062  15.308  11.762 -0.0444  0.1553  0.1061
  270loPI    C3 4307  10.800  15.604  11.821 -0.4226 -0.1159 -0.1627
  270loPI   PO4 4308  11.158  15.482  11.298 -0.2376 -0.1357  0.0730
  270loPI   GL1 4309  11.192  15.566  10.920 -0.0265 -0.0109 -0.0874
  270loPI   GL2 4310  11.204  15.191  10.916  0.0904  0.1465 -0.0805
  270loPI   C1A 4311  11.286  15.459  10.490  0.2228  0.1568  0.0394
  270loPI   C2A 4312  11.242  15.417  10.005 -0.2785 -0.1025 -0.1603
  270loPI   C3A 4313  11.243  15.434   9.575  0.1057 -0.1037 -0.0606
  270loPI   C4A 4314  11.247  15.293   9.156 -0.0937  0.0089  0.0488
  270loPI   C5A 4315  11.352  15.378   8.751 -0.3128 -0.2530 -0.1547
  270loPI   C6A 4316  11.490  15.464   8.363 -0.0695 -0.3169 -0.0318
  270loPI   C1B 4317  11.067  15.008  10.440  0.0629 -0.4174 -0.0282
  270loPI   C2B 4318  11.115  14.929  10.090  0.0325  0.1236 -0.0078
  270loPI   C3B 4319  11.063  14.943   9.647  0.0644  0.1004  0.0399
  270loPI   C4B 4320  11.172  14.775   9.248  0.2140  0.2655  0.0207
  271loPI    C1 4321  14.026   3.966  12.257 -0.2357  0.3598  0.3857
  271loPI    C2 4322  14.333   4.139  12.447  0.1848  0.0856 -0.0208
  271loPI    C3 4323  14.198   3.783  12.568  0.1160  0.1426  0.0718
  271loPI   PO4 4324  14.112   4.012  11.971 -0.0241  0.1855 -0.0336
  271loPI   GL1 4325  14.377   4.203  11.546 -0.1184 -0.0262  0.0200
  271loPI   GL2 4326  14.720   4.235  11.385 -0.3207  0.1687  0.2269
  271loPI   C1A 4327  14.174   4.360  11.116  0.0984  0.1469 -0.1506
  271loPI   C2A 4328  14.214   4.431  10.583  0.0523  0.1196 -0.0875
  271loPI   C3A 4329  14.248   4.494  10.125  0.1885 -0.2161 -0.0416
  271loPI   C4A 4330  14.264   4.512   9.727  0.1573 -0.2342 -0.3497
  271loPI   C5A 4331  14.267   4.519   9.286  0.1799 -0.0921  0.0205
  271loPI   C6A 4332  14.564   4.511   8.971 -0.1026 -0.3740  0.1757
  271loPI   C1B 4333  14.533   4.036  10.991 -0.0940  0.0134  0.0246
  271loPI   C2B 4334  14.553   4.056  10.414  0.0539  0.1135 -0.0758
  271loPI   C3B 4335  14.577   4.115  10.040  0.0391  0.1956 -0.1485
  271loPI   C4B 4336  14.444   4.086   9.618  0.1657  0.2451 -0.0258
  272loPI    C1 4337  15.414   2.450  12.034  0.3580 -0.0790  0.0389
  272loPI    C2 4338  15.668   2.552  12.325  0.0372  0.2720  0.2052
  272loPI    C3 4339  15.274   2.559  12.393 -0.0379  0.2410 -0.2029
  272loPI   PO4 4340  15.503   2.549  11.867 -0.1563  0.1461 -0.0007
  272loPI   GL1 4341  15.424   2.576  11.391  0.0815  0.0119 -0.0248
  272loPI   GL2 4342  15.529   2.832  11.219 -0.1383  0.0241 -0.0677
  272loPI   C1A 4343  15.390   2.397  10.902 -0.1505 -0.0644  0.1265
  272loPI   C2A 4344  15.394   2.440  10.588 -0.0425 -0.1518  0.2890
  272loPI   C3A 4345  15.332   2.413  10.152 -0.0833 -0.0532 -0.0234
  272loPI   C4A 4346  15.272   2.405   9.741 -0.0912  0.0043  0.0832
  272loPI   C5A 4347  15.396   2.256   9.331  0.0094 -0.1166 -0.3845
  272loPI   C6A 4348  15.788   2.113   9.257  0.1444 -0.0189 -0.4241
  272loPI   C1B 4349  15.553   2.847  10.804  0.1060 -0.0502  0.0034
  272loPI   C2B 4350  15.513   2.853  10.316  0.1042 -0.0097 -0.0470
  272loPI   C3B 4351  15.508   2.889   9.934 -0.0530 -0.0099 -0.2543
  272loPI   C4B 4352  15.320   2.952   9.530  0.2222  0.0974 -0.0886
  273loPI    C1 4353  14.217  10.681  11.746 -0.0793  0.0310 -0.0191
  273loPI    C2 4354  14.578  10.655  11.917  0.0781  0.1534 -0.3240
  273loPI    C3 4355  14.348  10.975  11.984  0.0834  0.1401 -0.2399
  273loPI   PO4 4356  14.316  10.556  11.404  0.2627  0.3287  0.1754
  273loPI   GL1 4357  14.191  10.425  11.054 -0.2978  0.0017 -0.2329
  273loPI   GL2 4358  13.917  10.525  10.985  0.1177  0.1839  0.0803
  273loPI   C1A 4359  14.093  10.446  10.505 -0.1332  0.1629  0.2701
  273loPI   C2A 4360  14.056  10.446  10.035  0.2733  0.0450 -0.1974
  273loPI   C3A 4361  14.139  10.344   9.602  0.0789  0.0457 -0.3184
  273loPI   C4A 4362  14.139  10.669   9.213  0.0253 -0.1270 -0.1862
  273loPI   C5A 4363  14.152  10.631   8.802 -0.0108  0.1882  0.1247
  273loPI   C6A 4364  14.457  10.284   8.705  0.0999  0.1553 -0.0724
  273loPI   C1B 4365  13.821  10.822  10.637 -0.1619 -0.0137  0.0618
  273loPI   C2B 4366  13.804  10.875  10.233  0.0727  0.1899  0.0805
  273loPI   C3B 4367  13.791  10.840   9.890  0.4811 -0.2423  0.1183
  273loPI   C4B 4368  13.753  10.843   9.504 -0.2115 -0.1971 -0.1590
  274loPI    C1 4369   6.251   8.252  12.004 -0.1322 -0.0180 -0.0999
  274loPI    C2 4370   6.491   7.932  12.001 -0.0386  0.0525 -0.1191
  274loPI    C3 4371   6.465   8.159  12.329  0.1376  0.2070 -0.2100
  274loPI   PO4 4372   6.317   8.388  11.768  0.0130 -0.0530 -0.0311
  274loPI   GL1 4373   6.402   8.451  11.322  0.2603  0.1127  0.3193
  274loPI   GL2 4374   6.246   8.243  11.196 -0.3082 -0.0193  0.2813
  274loPI   C1A 4375   6.684   8.669  10.998  0.3424 -0.2507 -0.0185
  274loPI   C2A 4376   6.695   8.726  10.488  0.0237  0.1336 -0.0589
  274loPI   C3A 4377   6.602   8.845  10.145  0.1847 -0.1473 -0.3180
  274loPI   C4A 4378   6.704   8.883   9.624 -0.1001 -0.0350  0.0454
  274loPI   C5A 4379   6.683   8.802   9.105 -0.0172  0.2237  0.0131
  274loPI   C6A 4380   6.796   8.908   8.771  0.0025  0.2509  0.1538
  274loPI   C1B 4381   6.429   8.352  10.734  0.1080 -0.0872 -0.0126
  274loPI   C2B 4382   6.511   8.313  10.296 -0.0412 -0.1460 -0.1215
  274loPI   C3B 4383   6.471   8.482   9.890 -0.0553  0.0452 -0.0194
  274loPI   C4B 4384   6.581   8.415   9.537  0.2264  0.0811 -0.0672
  275loPI    C1 4385  16.600  16.282  11.892  0.2368 -0.0564 -0.0572
  275loPI    C2 4386  16.260  16.131  12.037  0.2383  0.2336  0.2610
  275loPI    C3 4387  16.608  15.943  12.102  0.1317 -0.1307 -0.1720
  275loPI   PO4 4388  16.529  16.258  11.614  0.1335 -0.0580 -0.0097
  275loPI   GL1 4389  16.515  16.095  11.209 -0.1274 -0.0885 -0.1157
  275loPI   GL2 4390  16.387  16.299  11.067 -0.2841  0.0838 -0.0297
  275loPI   C1A 4391  16.665  15.876  10.813 -0.2136  0.0602 -0.2961
  275loPI   C2A 4392  16.745  15.931  10.383  0.0323 -0.2955  0.2236
  275loPI   C3A 4393  16.752  16.002   9.923  0.1239  0.2283 -0.1112
  275loPI   C4A 4394  16.817  15.946   9.556 -0.1321  0.1062  0.1651
  275loPI   C5A 4395  16.915  16.082   9.162  0.2067  0.4251  0.0375
  275loPI   C6A 4396  16.803  16.196   8.699 -0.0490 -0.1125  0.2288
  275loPI   C1B 4397  16.404  16.269  10.638 -0.2693 -0.0124 -0.0405
  275loPI   C2B 4398  16.482  16.349  10.144 -0.0444 -0.1474 -0.1021
  275loPI   C3B 4399  16.398  16.374   9.738 -0.0233  0.1792  0.4643
  275loPI   C4B 4400  16.475  16.308   9.337 -0.0800 -0.0162 -0.1128
  276loPI    C1 4401  12.422  16.386  11.702  0.0602 -0.0408  0.0346
  276loPI    C2 4402  12.412  16.357  12.101  0.0364  0.0320  0.0395
  276loPI    C3 4403  12.075  16.422  11.897  0.0359 -0.0893  0.0005
  276loPI   PO4 4404  12.690  16.220  11.666  0.0935 -0.0541  0.1810
  276loPI   GL1 4405  12.850  15.978  11.296  0.0370 -0.0485 -0.0219
  276loPI   GL2 4406  13.101  15.900  11.205 -0.2128  0.2474  0.0507
  276loPI   C1A 4407  12.903  16.236  10.900 -0.0732 -0.3700 -0.3514
  276loPI   C2A 4408  12.913  16.189  10.450 -0.1790  0.1465  0.0761
  276loPI   C3A 4409  13.004  16.225  10.038 -0.0152 -0.1900  0.1245
  276loPI   C4A 4410  13.117  16.105   9.608 -0.2155  0.1000  0.1021
  276loPI   C5A 4411  13.120  16.080   9.187  0.2217  0.4669  0.2099
  276loPI   C6A 4412  13.413  15.939   8.909 -0.1115  0.1578 -0.2106
  276loPI   C1B 4413  13.243  15.827  10.691  0.1142 -0.2132 -0.2629
  276loPI   C2B 4414  13.375  15.800  10.243  0.1143 -0.1337 -0.0535
  276loPI   C3B 4415  13.363  15.739   9.852  0.1754  0.0098 -0.0478
  276loPI   C4B 4416  13.446  15.765   9.424 -0.0836 -0.0315  0.0420
  277loPI    C1 4417  16.745   4.314  11.489  0.2207  0.0693  0.0070
  277loPI    C2 4418  16.917   4.549  11.762 -0.0414  0.3388 -0.0552
  277loPI    C3 4419  16.536   4.437  11.806  0.0432  0.0274 -0.0922
  277loPI   PO4 4420  16.827   4.314  11.287 -0.0589 -0.3543  0.2317
  277loPI   GL1 4421  16.892   4.130  10.894  0.0159 -0.2050  0.1322
  277loPI   GL2 4422  16.987   4.444  10.800 -0.0945  0.2756 -0.4268
  277loPI   C1A 4423  16.830   4.114  10.410 -0.0410 -0.0549 -0.1548
  277loPI   C2A 4424  16.889   4.023   9.960 -0.0643 -0.0377  0.1155
  277loPI   C3A 4425  16.884   4.066   9.459 -0.1338 -0.2033 -0.1248
  277loPI   C4A 4426  17.119   4.096   9.033  0.2815  0.1143 -0.1041
  277loPI   C5A 4427  17.482   4.194   8.779 -0.0261 -0.2459 -0.3043
  277loPI   C6A 4428  17.871   4.217   8.642  0.1036  0.0888  0.2861
  277loPI   C1B 4429  17.167   4.475  10.415  0.0149 -0.2677 -0.0198
  277loPI   C2B 4430  17.031   4.471  10.022  0.1100  0.0524  0.1763
  277loPI   C3B 4431  17.093   4.516   9.581 -0.0176 -0.2360  0.1785
  277loPI   C4B 4432  17.199   4.553   9.188  0.1039  0.2149  0.2961
  278loPI    C1 4433   4.334   7.403  11.650  0.1560  0.0490  0.2709
  278loPI    C2 4434   4.523   7.661  11.892  0.2856  0.0085  0.2139
  278loPI    C3 4435   4.469   7.282  12.007  0.3253 -0.0045  0.1897
  278loPI   PO4 4436   4.470   7.387  11.460  0.0703  0.0522 -0.1352
  278loPI   GL1 4437   4.457   7.468  11.153 -0.1325  0.0930 -0.1109
  278loPI   GL2 4438   4.733   7.619  11.016 -0.1008 -0.2229  0.4273
  278loPI   C1A 4439   4.252   7.510  10.770  0.5217  0.0566 -0.1625
  278loPI   C2A 4440   4.242   7.668  10.354  0.0020 -0.0128  0.0946
  278loPI   C3A 4441   4.192   7.555   9.922 -0.2648 -0.1120 -0.2434
  278loPI   C4A 4442   4.172   7.516   9.465  0.1190 -0.1684  0.0847
  278loPI   C5A 4443   4.112   7.665   9.109 -0.1168  0.1274 -0.2221
  278loPI   C6A 4444   3.878   7.882   8.766  0.2939 -0.3219  0.2292
  278loPI   C1B 4445   4.699   7.630  10.560 -0.1023  0.0763 -0.1066
  278loPI   C2B 4446   4.717   7.571  10.122  0.1606 -0.0665 -0.0703
  278loPI   C3B 4447   4.654   7.604   9.651 -0.1554 -0.2818 -0.0673
  278loPI   C4B 4448   4.591   7.468   9.268  0.1018 -0.0287 -0.0302
  279loPI    C1 4449   5.524   9.680  11.716 -0.1590  0.0741  0.4745
  279loPI    C2 4450   5.367   9.350  11.553 -0.2131  0.3583 -0.0712
  279loPI    C3 4451   5.311   9.427  11.942 -0.0405 -0.3619  0.1121
  279loPI   PO4 4452   5.528   9.827  11.476 -0.1513 -0.0876  0.2129
  279loPI   GL1 4453   5.650   9.565  11.174 -0.0033 -0.2146 -0.1329
  279loPI   GL2 4454   5.793   9.292  11.255 -0.2922 -0.3575  0.1735
  279loPI   C1A 4455   5.571   9.621  10.780  0.0916  0.1472  0.1537
  279loPI   C2A 4456   5.565   9.510  10.391  0.0169  0.0545 -0.0836
  279loPI   C3A 4457   5.577   9.576  10.017  0.0496 -0.0542  0.1984
  279loPI   C4A 4458   5.578   9.667   9.678  0.1038 -0.0033 -0.0484
  279loPI   C5A 4459   5.668   9.589   9.218 -0.1855  0.1125 -0.1214
  279loPI   C6A 4460   5.844   9.211   9.023 -0.1047 -0.0832  0.3228
  279loPI   C1B 4461   5.779   9.125  10.899  0.2673  0.3355 -0.3776
  279loPI   C2B 4462   5.856   9.132  10.466  0.2986 -0.1404 -0.1978
  279loPI   C3B 4463   5.816   9.153  10.084 -0.1756 -0.2441  0.0697
  279loPI   C4B 4464   5.802   9.234   9.599  0.1081  0.0501  0.1254
  280loPI    C1 4465   1.784   4.525  11.497 -0.0055 -0.3205 -0.1581
  280loPI    C2 4466   1.712   4.141  11.581 -0.0379 -0.2569  0.1150
  280loPI    C3 4467   1.807   4.395  11.875  0.2109 -0.1034 -0.0942
  280loPI   PO4 4468   1.851   4.520  11.226  0.1931  0.1528 -0.0797
  280loPI   GL1 4469   1.585   4.535  10.912 -0.1648 -0.0413 -0.3173
  280loPI   GL2 4470   1.345   4.677  10.861 -0.0845 -0.1544  0.2246
  280loPI   C1A 4471   1.524   4.290  10.633  0.0365 -0.2207 -0.2036
  280loPI   C2A 4472   1.429   4.326  10.217 -0.1486  0.0831  0.2428
  280loPI   C3A 4473   1.565   4.335   9.779  0.1414  0.0781  0.1071
  280loPI   C4A 4474   1.620   4.322   9.336 -0.0268 -0.1483  0.2202
  280loPI   C5A 4475   1.466   4.454   8.935  0.1612 -0.1020  0.1708
  280loPI   C6A 4476   1.450   4.275   8.579 -0.0384 -0.3955  0.2558
  280loPI   C1B 4477   1.235   4.706  10.389 -0.2773  0.2048 -0.0869
  280loPI   C2B 4478   1.236   4.680   9.909 -0.3269 -0.0022  0.1565
  280loPI   C3B 4479   1.295   4.681   9.492  0.3487  0.1469 -0.0506
  280loPI   C4B 4480   1.166   4.902   9.129 -0.2228  0.1720 -0.2757
  281loPI    C1 4481   0.979   6.319  12.076  0.1970 -0.0545 -0.2196
  281loPI    C2 4482   1.342   6.150  12.064  0.0911 -0.2985 -0.0659
  281loPI    C3 4483   1.077   6.034  12.340  0.0164  0.1264  0.0466
  281loPI   PO4 4484   1.002   6.367  11.774 -0.1086  0.4413  0.0362
  281loPI   GL1 4485   1.015   6.294  11.339  0.0831  0.1492  0.0390
  281loPI   GL2 4486   0.655   6.444  11.211 -0.1213 -0.1701 -0.0731
  281loPI   C1A 4487   1.013   6.494  10.908 -0.2686  0.0903  0.0423
  281loPI   C2A 4488   0.918   6.648  10.497  0.1120  0.1344  0.2838
  281loPI   C3A 4489   0.955   6.525  10.078 -0.0171  0.0020 -0.1954
  281loPI   C4A 4490   0.970   6.544   9.605 -0.2410  0.0482  0.0480
  281loPI   C5A 4491   0.912   6.754   9.186  0.0757 -0.1212  0.3912
  281loPI   C6A 4492   1.042   7.082   8.768 -0.3680 -0.3031 -0.0220
  281loPI   C1B 4493   0.491   6.495  10.814 -0.2075 -0.4215  0.0230
  281loPI   C2B 4494   0.394   6.620  10.412 -0.2209 -0.2707  0.2433
  281loPI   C3B 4495   0.400   6.497   9.888  0.3091 -0.1089 -0.0055
  281loPI   C4B 4496   0.488   6.599   9.493  0.1700  0.1479  0.0825
  282loPI    C1 4497   0.646   7.940  11.894  0.0842 -0.0414  0.0176
  282loPI    C2 4498   1.043   7.944  11.936  0.0921 -0.2017 -0.0343
  282loPI    C3 4499   0.827   7.654  12.107 -0.0187 -0.0294  0.1221
  282loPI   PO4 4500   0.558   8.122  11.648  0.0533  0.0794  0.1978
  282loPI   GL1 4501   0.485   8.241  11.186 -0.0264  0.0121  0.0407
  282loPI   GL2 4502   0.617   7.971  11.186 -0.3333  0.0343  0.1269
  282loPI   C1A 4503   0.329   8.337  10.654  0.3545  0.1501 -0.0724
  282loPI   C2A 4504   0.175   8.238  10.269  0.0944  0.3883  0.1840
  282loPI   C3A 4505   0.162   8.271   9.861  0.0218  0.0644 -0.2170
  282loPI   C4A 4506   0.113   8.182   9.464  0.0486 -0.1554 -0.1514
  282loPI   C5A 4507   0.349   8.016   9.094  0.1127  0.0016 -0.0840
  282loPI   C6A 4508   0.226   7.793   8.778 -0.1798 -0.0137  0.1225
  282loPI   C1B 4509   0.590   7.873  10.807  0.1044 -0.3450  0.0020
  282loPI   C2B 4510   0.569   7.875  10.385  0.1010 -0.0530 -0.1893
  282loPI   C3B 4511   0.534   7.924   9.963 -0.1927  0.0840  0.2496
  282loPI   C4B 4512   0.446   7.830   9.569  0.0769  0.2419 -0.2192
  283loPI    C1 4513   4.634  14.552  11.750  0.0496 -0.0963  0.1806
  283loPI    C2 4514   4.936  14.585  12.010  0.1315 -0.2390  0.1047
  283loPI    C3 4515   4.564  14.525  12.143  0.1494 -0.1529  0.1949
  283loPI   PO4 4516   4.822  14.440  11.529  0.0547 -0.0676 -0.3000
  283loPI   GL1 4517   4.629  14.181  11.189 -0.0443 -0.0222 -0.2527
  283loPI   GL2 4518   4.693  13.801  11.085 -0.3764 -0.1058 -0.0974
  283loPI   C1A 4519   4.571  14.578  10.881  0.2438  0.3010  0.1599
  283loPI   C2A 4520   4.491  14.499  10.474 -0.2579 -0.1042  0.0871
  283loPI   C3A 4521   4.678  14.497  10.102 -0.1158  0.0063  0.0676
  283loPI   C4A 4522   4.598  14.493   9.620  0.0409 -0.0430  0.0171
  283loPI   C5A 4523   4.697  14.579   9.158  0.0169  0.0266  0.1803
  283loPI   C6A 4524   4.734  14.610   8.648  0.0808 -0.0203 -0.1794
  283loPI   C1B 4525   4.789  13.642  10.696  0.0899 -0.0803  0.1691
  283loPI   C2B 4526   4.716  13.616  10.232  0.1642  0.0019  0.3056
  283loPI   C3B 4527   4.740  13.720   9.888 -0.1539 -0.0444  0.2996
  283loPI   C4B 4528   4.782  13.595   9.495  0.3292 -0.0050 -0.1364
  284loPI    C1 4529  13.861  16.932  11.790 -0.0620 -0.0484 -0.1542
  284loPI    C2 4530  13.742  17.031  12.159  0.3261  0.0818 -0.0592
  284loPI    C3 4531  13.734  16.649  12.042  0.0109  0.0642  0.0110
  284loPI   PO4 4532  13.744  17.104  11.624  0.1595 -0.2137 -0.1393
  284loPI   GL1 4533  13.578  16.944  11.293  0.0897 -0.0975 -0.0977
  284loPI   GL2 4534  13.887  16.716  11.244 -0.0092  0.1757 -0.0755
  284loPI   C1A 4535  13.576  16.778  10.818 -0.0838  0.0120  0.0827
  284loPI   C2A 4536  13.664  16.836  10.367  0.1044 -0.1328 -0.0296
  284loPI   C3A 4537  13.701  16.761   9.954  0.3094  0.1583  0.3044
  284loPI   C4A 4538  13.651  16.770   9.481  0.1226 -0.0061 -0.1428
  284loPI   C5A 4539  13.892  16.786   9.112  0.0913 -0.0322 -0.0335
  284loPI   C6A 4540  14.158  16.620   8.855  0.0249  0.1168  0.3262
  284loPI   C1B 4541  14.104  16.839  10.812 -0.1793  0.0367  0.1390
  284loPI   C2B 4542  14.183  16.851  10.390  0.0940 -0.0020  0.2475
  284loPI   C3B 4543  14.249  16.893   9.925  0.0521 -0.0694 -0.0242
  284loPI   C4B 4544  14.180  16.841   9.623  0.1108 -0.1144  0.0042
  285loPI    C1 4545  14.449   3.354  11.824 -0.0058 -0.0758 -0.1533
  285loPI    C2 4546  14.457   3.153  12.170 -0.0143 -0.1674 -0.2058
  285loPI    C3 4547  14.316   3.527  12.159  0.1391 -0.1048 -0.0800
  285loPI   PO4 4548  14.346   3.220  11.586 -0.2129 -0.0561  0.3837
  285loPI   GL1 4549  14.138   3.206  11.283  0.1051  0.0253 -0.0217
  285loPI   GL2 4550  13.803   3.062  11.190  0.2179  0.0356  0.3779
  285loPI   C1A 4551  14.189   3.116  10.800  0.0832  0.0202 -0.1342
  285loPI   C2A 4552  14.202   3.082  10.429  0.0851 -0.0829 -0.1295
  285loPI   C3A 4553  14.201   3.104   9.978 -0.1206 -0.0749 -0.1124
  285loPI   C4A 4554  14.009   3.136   9.477  0.1970  0.0717  0.0762
  285loPI   C5A 4555  13.790   3.019   9.091 -0.2039 -0.0776  0.2544
  285loPI   C6A 4556  13.650   3.029   8.668 -0.1959 -0.0143 -0.0804
  285loPI   C1B 4557  13.703   2.947  10.769  0.0705 -0.2648  0.0161
  285loPI   C2B 4558  13.701   3.007  10.331  0.0051  0.1126  0.3824
  285loPI   C3B 4559  13.676   3.046   9.878  0.0937  0.1428  0.0204
  285loPI   C4B 4560  13.499   3.050   9.512 -0.2203 -0.0837  0.0178
  286loPI    C1 4561  15.218   5.423  11.919 -0.0425  0.2293  0.0099
  286loPI    C2 4562  15.431   5.746  12.021  0.0329  0.2421 -0.1845
  286loPI    C3 4563  15.431   5.424  12.258  0.1899  0.2779 -0.1345
  286loPI   PO4 4564  15.325   5.415  11.670 -0.0853  0.1217 -0.2070
  286loPI   GL1 4565  15.414   5.453  11.193  0.2743  0.0370 -0.0808
  286loPI   GL2 4566  15.148   5.661  11.045 -0.1906 -0.3282  0.2097
  286loPI   C1A 4567  15.461   5.185  10.989 -0.1015 -0.0968  0.0306
  286loPI   C2A 4568  15.454   5.098  10.598 -0.0917  0.2561  0.1443
  286loPI   C3A 4569  15.345   5.180  10.152 -0.2284 -0.0331 -0.1624
  286loPI   C4A 4570  15.425   5.220   9.741 -0.3426  0.0733  0.0578
  286loPI   C5A 4571  15.355   5.059   9.400  0.0813 -0.1934 -0.1492
  286loPI   C6A 4572  15.189   4.732   9.088 -0.1473  0.2484 -0.1571
  286loPI   C1B 4573  15.012   5.580  10.642 -0.1855  0.3763  0.1423
  286loPI   C2B 4574  15.045   5.565  10.224  0.3123  0.0211  0.2656
  286loPI   C3B 4575  15.152   5.575   9.888 -0.3168  0.0131 -0.3591
  286loPI   C4B 4576  15.159   5.575   9.501  0.1184  0.1196 -0.1127
  287loPI    C1 4577  11.589   1.856  11.564 -0.1959 -0.0467 -0.0952
  287loPI    C2 4578  11.704   1.574  11.823 -0.2290 -0.1425 -0.1844
  287loPI    C3 4579  11.486   1.884  11.949 -0.2385 -0.1849 -0.0959
  287loPI   PO4 4580  11.641   1.713  11.331  0.0806 -0.1048 -0.2102
  287loPI   GL1 4581  11.913   1.686  10.998 -0.1241 -0.0873 -0.2540
  287loPI   GL2 4582  12.001   1.389  11.092 -0.0591 -0.0281  0.1080
  287loPI   C1A 4583  11.781   1.840  10.518  0.4602 -0.2536 -0.2350
  287loPI   C2A 4584  11.799   1.856  10.122  0.1461 -0.1103  0.2018
  287loPI   C3A 4585  11.741   1.737   9.800  0.2119  0.2379  0.1935
  287loPI   C4A 4586  11.769   1.612   9.409 -0.1270  0.1068 -0.0293
  287loPI   C5A 4587  11.797   1.598   8.985  0.1543  0.2865  0.1136
  287loPI   C6A 4588  11.910   1.549   8.548  0.2169  0.0130  0.0481
  287loPI   C1B 4589  12.129   1.484  10.594 -0.2096 -0.1450 -0.5960
  287loPI   C2B 4590  12.075   1.403  10.137 -0.0458 -0.0006 -0.1270
  287loPI   C3B 4591  12.056   1.353   9.695  0.3686 -0.0599  0.0578
  287loPI   C4B 4592  12.169   1.220   9.320 -0.4252  0.1798  0.0924
  288loPI    C1 4593  11.914  15.657  11.782 -0.0449 -0.1655  0.0731
  288loPI    C2 4594  12.199  15.900  11.922  0.0093 -0.1333 -0.0920
  288loPI    C3 4595  12.010  15.650  12.171 -0.0275  0.0570  0.0736
  288loPI   PO4 4596  12.008  15.578  11.567  0.1246  0.3037  0.0318
  288loPI   GL1 4597  12.122  15.692  11.159  0.1386  0.4057 -0.2318
  288loPI   GL2 4598  12.003  15.332  11.073  0.1537  0.1284  0.0020
  288loPI   C1A 4599  12.255  15.611  10.718 -0.0218 -0.1262 -0.0738
  288loPI   C2A 4600  12.374  15.580  10.258  0.0845  0.0762  0.0212
  288loPI   C3A 4601  12.352  15.563   9.848 -0.1764 -0.1909  0.0387
  288loPI   C4A 4602  12.391  15.581   9.398 -0.3125  0.0563 -0.0779
  288loPI   C5A 4603  12.675  15.473   9.062 -0.2904 -0.2710 -0.1792
  288loPI   C6A 4604  12.751  15.284   8.599  0.0663 -0.1421 -0.0845
  288loPI   C1B 4605  12.173  15.102  10.792 -0.1384  0.0588  0.0078
  288loPI   C2B 4606  12.173  15.030  10.263  0.1109 -0.0574  0.0022
  288loPI   C3B 4607  12.226  15.102   9.833 -0.0102 -0.1853 -0.2734
  288loPI   C4B 4608  12.158  15.087   9.475  0.0112 -0.2278  0.0200
  289loPI    C1 4609  11.530  11.060  11.462  0.0051  0.0107  0.0877
  289loPI    C2 4610  11.715  10.928  11.791  0.0456  0.0718  0.0896
  289loPI    C3 4611  11.420  11.196  11.821 -0.0681 -0.0526  0.0894
  289loPI   PO4 4612  11.679  11.212  11.360 -0.0168 -0.3253  0.0576
  289loPI   GL1 4613  11.808  11.408  10.923  0.2158 -0.0502  0.0787
  289loPI   GL2 4614  11.904  11.039  10.857  0.1624 -0.0898 -0.0127
  289loPI   C1A 4615  11.672  11.414  10.513  0.3150  0.1410  0.3250
  289loPI   C2A 4616  11.635  11.394  10.091 -0.1655 -0.0991  0.0303
  289loPI   C3A 4617  11.511  11.330   9.665  0.1308  0.5384  0.0802
  289loPI   C4A 4618  11.466  11.342   9.179  0.0166 -0.0369 -0.2515
  289loPI   C5A 4619  11.372  11.122   8.882 -0.0162  0.3661 -0.1888
  289loPI   C6A 4620  11.328  10.774   8.808 -0.0761  0.0708  0.1465
  289loPI   C1B 4621  11.908  10.943  10.336 -0.0222 -0.0963 -0.2628
  289loPI   C2B 4622  11.864  10.987   9.916 -0.0924  0.0865  0.0005
  289loPI   C3B 4623  11.877  11.077   9.402  0.1147 -0.2458 -0.3226
  289loPI   C4B 4624  11.865  10.910   8.995  0.0852 -0.0920  0.1182
  290loPI    C1 4625   8.559   0.094  11.910  0.0370 -0.1001  0.0130
  290loPI    C2 4626   8.378   0.299  12.201  0.0019 -0.1243  0.0083
  290loPI    C3 4627   8.770   0.349  12.134 -0.0457  0.0892 -0.1220
  290loPI   PO4 4628   8.440   0.129  11.715 -0.2612 -0.3981  0.3355
  290loPI   GL1 4629   8.536  -0.045  11.280  0.0024 -0.1031 -0.0772
  290loPI   GL2 4630   8.239  -0.016  11.104  0.0033 -0.1385  0.1726
  290loPI   C1A 4631   8.744  -0.069  10.846 -0.0502  0.2602 -0.2852
  290loPI   C2A 4632   8.666  -0.001  10.415  0.1599  0.0298 -0.0021
  290loPI   C3A 4633   8.576  -0.001  10.060 -0.3618  0.3656 -0.0370
  290loPI   C4A 4634   8.638  -0.071   9.693  0.1071  0.1486  0.0876
  290loPI   C5A 4635   8.723  -0.208   9.235  0.0615 -0.0215 -0.0544
  290loPI   C6A 4636   8.636  -0.199   8.820 -0.0335 -0.1506  0.1260
  290loPI   C1B 4637   8.168  -0.150  10.706  0.0358  0.1119 -0.0087
  290loPI   C2B 4638   8.132  -0.109  10.232 -0.3795 -0.3749  0.0511
  290loPI   C3B 4639   8.156  -0.178   9.824  0.3162  0.3463 -0.0103
  290loPI   C4B 4640   8.199  -0.056   9.430 -0.2799 -0.0595  0.0424
  291loPI    C1 4641   8.812  10.512  11.590 -0.1404  0.0141 -0.0321
  291loPI    C2 4642   8.911  10.134  11.504  0.2182  0.0643  0.1443
  291loPI    C3 4643   8.656  10.211  11.802 -0.3082 -0.0622 -0.2602
  291loPI   PO4 4644   8.877  10.676  11.393  0.2737 -0.1986  0.0980
  291loPI   GL1 4645   9.054  10.517  11.124  0.2093 -0.0532  0.0722
  291loPI   GL2 4646   9.374  10.676  11.056 -0.1329  0.0297 -0.0917
  291loPI   C1A 4647   8.960  10.502  10.641  0.2207  0.1889  0.3264
  291loPI   C2A 4648   8.837  10.511  10.168 -0.2439 -0.1945  0.2423
  291loPI   C3A 4649   8.848  10.538   9.755  0.2698  0.0502 -0.1366
  291loPI   C4A 4650   8.821  10.612   9.313 -0.3578 -0.0114  0.1400
  291loPI   C5A 4651   8.725  10.622   8.855 -0.0712  0.2164 -0.0885
  291loPI   C6A 4652   8.427  10.681   8.635  0.1456  0.1743 -0.0170
  291loPI   C1B 4653   9.423  10.508  10.593  0.1409  0.1563 -0.2850
  291loPI   C2B 4654   9.325  10.614  10.204  0.2148 -0.0450 -0.1975
  291loPI   C3B 4655   9.345  10.611   9.755 -0.3279 -0.2247 -0.0087
  291loPI   C4B 4656   9.310  10.638   9.326  0.0737  0.1924  0.0676
  292loPI    C1 4657   2.611   1.285  11.568 -0.0081 -0.0310  0.1050
  292loPI    C2 4658   2.715   1.039  11.866 -0.0433 -0.0276  0.1202
  292loPI    C3 4659   2.579   1.406  11.948 -0.4179 -0.1620  0.1174
  292loPI   PO4 4660   2.555   1.149  11.402  0.1566 -0.0365  0.1261
  292loPI   GL1 4661   2.434   1.391  11.064  0.0057  0.0018  0.0881
  292loPI   GL2 4662   2.057   1.369  11.146  0.1422 -0.1635  0.0856
  292loPI   C1A 4663   2.290   1.317  10.643 -0.1041 -0.0750 -0.0436
  292loPI   C2A 4664   2.228   1.296  10.230 -0.0700  0.0001  0.1107
  292loPI   C3A 4665   2.407   1.211   9.884 -0.2331  0.2117 -0.2947
  292loPI   C4A 4666   2.460   1.351   9.554  0.0817  0.0167  0.3231
  292loPI   C5A 4667   2.465   1.493   9.173  0.2204 -0.0710  0.3436
  292loPI   C6A 4668   2.632   1.491   8.892 -0.1731 -0.0938  0.0943
  292loPI   C1B 4669   1.961   1.648  10.720  0.2025  0.1312  0.1314
  292loPI   C2B 4670   1.945   1.702  10.317  0.2584 -0.0849 -0.2220
  292loPI   C3B 4671   2.034   1.609   9.774  0.2224  0.0055 -0.1364
  292loPI   C4B 4672   1.918   1.701   9.384  0.1808 -0.1334  0.1002
  293loPI    C1 4673   6.857   8.275  11.861  0.1947  0.0577  0.0489
  293loPI    C2 4674   6.683   8.561  12.079  0.0669  0.0333 -0.0201
  293loPI    C3 4675   6.959   8.323  12.245 -0.0849 -0.0349  0.1371
  293loPI   PO4 4676   6.848   8.408  11.604  0.2078 -0.1889  0.0489
  293loPI   GL1 4677   6.864   8.234  11.217 -0.0725  0.1773  0.0310
  293loPI   GL2 4678   7.095   8.453  11.151 -0.1058 -0.0417  0.0811
  293loPI   C1A 4679   6.782   7.877  10.928  0.0721 -0.1360  0.2605
  293loPI   C2A 4680   6.768   7.916  10.493 -0.1273 -0.2304  0.0098
  293loPI   C3A 4681   6.863   7.971  10.060  0.1004 -0.1788  0.0049
  293loPI   C4A 4682   6.864   7.973   9.637  0.1421 -0.1771 -0.3834
  293loPI   C5A 4683   6.888   7.991   9.302 -0.3360  0.1923  0.1166
  293loPI   C6A 4684   7.291   8.084   9.017 -0.2835 -0.1086  0.1539
  293loPI   C1B 4685   7.000   8.417  10.717  0.0069  0.0527  0.0725
  293loPI   C2B 4686   7.009   8.425  10.235  0.0016 -0.1703  0.0382
  293loPI   C3B 4687   7.049   8.391   9.842 -0.0055  0.2060  0.2217
  293loPI   C4B 4688   7.101   8.504   9.415 -0.0145 -0.0974  0.0459
  294loPI    C1 4689  11.198   8.553  11.474  0.0337  0.2211 -0.1170
  294loPI    C2 4690  11.417   8.757  11.739 -0.1121  0.0697  0.1244
  294loPI    C3 4691  11.018   8.762  11.764 -0.1283  0.0791 -0.1133
  294loPI   PO4 4692  11.188   8.531  11.258  0.0456  0.2044  0.0750
  294loPI   GL1 4693  11.212   8.732  10.924  0.0406  0.1609  0.2631
  294loPI   GL2 4694  11.116   8.996  10.773  0.0095  0.1212 -0.1089
  294loPI   C1A 4695  11.048   8.491  10.590 -0.1294 -0.2356 -0.1357
  294loPI   C2A 4696  10.961   8.463  10.130  0.0062 -0.1588 -0.0069
  294loPI   C3A 4697  10.963   8.551   9.679 -0.2619 -0.0426 -0.0715
  294loPI   C4A 4698  11.002   8.583   9.244 -0.0994 -0.0339  0.1310
  294loPI   C5A 4699  10.928   8.624   8.857 -0.2091  0.1737  0.1480
  294loPI   C6A 4700  10.995   8.919   8.480  0.2095  0.1322  0.0460
  294loPI   C1B 4701  11.192   8.996  10.383 -0.1214  0.2737  0.2023
  294loPI   C2B 4702  11.198   9.025   9.885 -0.0934  0.1027  0.0201
  294loPI   C3B 4703  11.238   9.021   9.445 -0.1718 -0.0551 -0.1990
  294loPI   C4B 4704  11.230   8.994   9.026 -0.0347 -0.1109 -0.1377
  295loPI    C1 4705  14.731  16.679  11.798  0.1705 -0.0434 -0.0891
  295loPI    C2 4706  14.928  17.027  11.780 -0.0757  0.1033 -0.0087
  295loPI    C3 4707  14.679  16.954  12.084 -0.0201 -0.1484 -0.0210
  295loPI   PO4 4708  14.681  16.620  11.554  0.0846  0.3178  0.1197
  295loPI   GL1 4709  14.381  16.719  11.224 -0.0426  0.1916 -0.1692
  295loPI   GL2 4710  14.488  16.962  11.118 -0.1052 -0.0582  0.0178
  295loPI   C1A 4711  14.449  16.442  10.787 -0.1108  0.3685 -0.0272
  295loPI   C2A 4712  14.458  16.353  10.369 -0.1827  0.1329 -0.4213
  295loPI   C3A 4713  14.586  16.439   9.936  0.3050 -0.0716 -0.0404
  295loPI   C4A 4714  14.605  16.339   9.407 -0.1660  0.0632 -0.0324
  295loPI   C5A 4715  14.689  16.497   9.113  0.1940 -0.2977  0.0649
  295loPI   C6A 4716  14.719  16.793   8.736  0.2032  0.1116 -0.0790
  295loPI   C1B 4717  14.681  16.896  10.703 -0.2537 -0.0618  0.1687
  295loPI   C2B 4718  14.688  16.795  10.272  0.1910  0.0348  0.1662
  295loPI   C3B 4719  14.774  16.943   9.797 -0.2494 -0.1623 -0.0367
  295loPI   C4B 4720  14.922  16.910   9.394  0.2301  0.0895  0.0577
  296loPI    C1 4721   3.962   3.816  11.539  0.0016  0.1379 -0.0488
  296loPI    C2 4722   4.222   3.535  11.653 -0.2906 -0.2165 -0.2331
  296loPI    C3 4723   3.981   3.706  11.923  0.1239  0.1146 -0.0613
  296loPI   PO4 4724   3.941   3.833  11.279  0.3038  0.1045 -0.0239
  296loPI   GL1 4725   4.174   3.848  10.900  0.1171  0.1165 -0.2790
  296loPI   GL2 4726   3.778   3.871  10.843 -0.2289 -0.2023  0.1623
  296loPI   C1A 4727   4.220   3.925  10.529 -0.2412 -0.0097  0.1230
  296loPI   C2A 4728   4.201   3.977  10.120  0.1256 -0.0393 -0.1023
  296loPI   C3A 4729   4.333   3.850   9.697 -0.0106 -0.0423  0.1573
  296loPI   C4A 4730   4.181   3.932   9.274 -0.1712  0.0876  0.1726
  296loPI   C5A 4731   4.297   3.636   8.988 -0.0393  0.3374 -0.0878
  296loPI   C6A 4732   4.394   3.234   8.736 -0.1581 -0.1118  0.0734
  296loPI   C1B 4733   3.666   3.808  10.541 -0.1310 -0.0561  0.2612
  296loPI   C2B 4734   3.721   3.809  10.116 -0.0428  0.0487 -0.0905
  296loPI   C3B 4735   3.752   3.848   9.695  0.0473 -0.0808 -0.2855
  296loPI   C4B 4736   3.703   3.818   9.348 -0.1517  0.0586  0.3496
  297loPI    C1 4737   6.030  16.158  11.819 -0.1296  0.0562  0.0858
  297loPI    C2 4738   5.666  16.132  11.982 -0.1486  0.2176  0.0713
  297loPI    C3 4739   5.991  16.128  12.216 -0.1701  0.3125  0.1034
  297loPI   PO4 4740   6.107  16.078  11.555 -0.1029  0.2804 -0.2144
  297loPI   GL1 4741   5.919  15.914  11.193 -0.1424  0.1459  0.1573
  297loPI   GL2 4742   5.673  16.132  10.991  0.2289  0.0838 -0.0115
  297loPI   C1A 4743   6.078  15.648  10.950  0.0305  0.1987  0.1608
  297loPI   C2A 4744   5.934  15.639  10.431  0.0499 -0.1515  0.0131
  297loPI   C3A 4745   6.045  15.645  10.008  0.1244  0.0102 -0.1282
  297loPI   C4A 4746   5.936  15.756   9.594  0.3957  0.3779  0.1668
  297loPI   C5A 4747   6.067  15.904   9.082  0.0670  0.0746 -0.2710
  297loPI   C6A 4748   5.794  16.182   8.927 -0.2104  0.3150  0.3604
  297loPI   C1B 4749   5.545  16.053  10.617  0.0682 -0.1245  0.3588
  297loPI   C2B 4750   5.578  16.083  10.199  0.3670 -0.1699 -0.1936
  297loPI   C3B 4751   5.578  16.063   9.763  0.0528 -0.3146 -0.1076
  297loPI   C4B 4752   5.488  16.017   9.333  0.0223  0.0499 -0.0847
  298loPI    C1 4753   5.066   8.813  11.966  0.0281 -0.1817 -0.3698
  298loPI    C2 4754   4.672   8.745  11.971 -0.0241  0.1134  0.1317
  298loPI    C3 4755   4.927   8.439  11.994 -0.2278 -0.0590  0.1285
  298loPI   PO4 4756   5.065   8.980  11.758  0.1509 -0.1779 -0.1106
  298loPI   GL1 4757   4.869   9.176  11.334  0.0518 -0.0062 -0.0434
  298loPI   GL2 4758   4.587   9.020  11.179 -0.0628 -0.0655 -0.2655
  298loPI   C1A 4759   5.275   9.138  11.032  0.2273  0.3050 -0.2130
  298loPI   C2A 4760   5.305   9.111  10.609 -0.1905 -0.2433 -0.3617
  298loPI   C3A 4761   5.312   9.146  10.176  0.0774  0.0556  0.3941
  298loPI   C4A 4762   5.288   9.164   9.668  0.1872 -0.0768 -0.0807
  298loPI   C5A 4763   5.457   9.066   9.321 -0.1926 -0.1987  0.0772
  298loPI   C6A 4764   5.379   8.849   9.031  0.2428 -0.4254 -0.0032
  298loPI   C1B 4765   4.852   8.987  10.730  0.0423  0.2886 -0.0040
  298loPI   C2B 4766   4.838   9.017  10.219  0.0908  0.2441  0.2229
  298loPI   C3B 4767   4.810   9.017   9.764 -0.0161 -0.1240 -0.2684
  298loPI   C4B 4768   4.957   9.072   9.282  0.1128 -0.0592 -0.0223
  299loPI    C1 4769   3.914  12.866  11.500 -0.0330 -0.0207  0.0870
  299loPI    C2 4770   3.574  12.836  11.291 -0.0250 -0.2161  0.0998
  299loPI    C3 4771   3.681  12.543  11.540  0.1135 -0.1184  0.1565
  299loPI   PO4 4772   4.080  12.939  11.369  0.0508 -0.0726 -0.0280
  299loPI   GL1 4773   4.191  12.678  11.036  0.1175 -0.3763 -0.2952
  299loPI   GL2 4774   4.485  12.514  11.098 -0.3137 -0.2194  0.2039
  299loPI   C1A 4775   4.320  12.665  10.581  0.1694 -0.1982  0.0782
  299loPI   C2A 4776   4.313  12.569  10.168  0.3339  0.2434 -0.2416
  299loPI   C3A 4777   4.376  12.677   9.714 -0.0300  0.3292  0.1281
  299loPI   C4A 4778   4.378  12.680   9.307 -0.1727  0.2474  0.1419
  299loPI   C5A 4779   4.607  12.550   9.029 -0.0354 -0.0953  0.3077
  299loPI   C6A 4780   4.798  12.191   8.994  0.1684  0.0749  0.0113
  299loPI   C1B 4781   4.673  12.226  10.669  0.0463 -0.0665  0.2004
  299loPI   C2B 4782   4.592  12.179  10.350 -0.0055  0.0948 -0.1520
  299loPI   C3B 4783   4.643  12.255   9.903  0.1909  0.2801  0.0791
  299loPI   C4B 4784   4.622  12.239   9.427  0.0043 -0.0744 -0.0100
  300loPI    C1 4785   6.867  10.130  11.958 -0.3530  0.1833  0.0282
  300loPI    C2 4786   7.125  10.317  12.201 -0.0677 -0.1251 -0.0291
  300loPI    C3 4787   6.825  10.102  12.355 -0.1870  0.0876  0.0401
  300loPI   PO4 4788   7.034  10.097  11.719 -0.1942 -0.1498 -0.0759
  300loPI   GL1 4789   7.068  10.202  11.304  0.1117  0.0641  0.0786
  300loPI   GL2 4790   7.153   9.884  11.182  0.0868  0.0152 -0.1333
  300loPI   C1A 4791   6.874  10.362  10.895  0.3696 -0.1966 -0.0897
  300loPI   C2A 4792   6.771  10.122  10.547 -0.0158  0.2684 -0.2584
  300loPI   C3A 4793   6.755  10.195  10.136 -0.2166  0.0743 -0.0175
  300loPI   C4A 4794   6.782  10.283   9.682  0.1636 -0.2275  0.0044
  300loPI   C5A 4795   6.883  10.176   9.282  0.1018 -0.1392 -0.3777
  300loPI   C6A 4796   7.250  10.045   9.074  0.1150 -0.0894 -0.2556
  300loPI   C1B 4797   7.288  10.040  10.795  0.1057 -0.0298 -0.0494
  300loPI   C2B 4798   7.251  10.170  10.339  0.0603 -0.1321 -0.0114
  300loPI   C3B 4799   7.271  10.370   9.925  0.0487  0.1648  0.2852
  300loPI   C4B 4800   7.350  10.274   9.528 -0.2370 -0.1616  0.1019
  301loPI    C1 4801   4.458   8.151  11.917 -0.0150 -0.1655 -0.1602
  301loPI    C2 4802   4.465   8.361  12.257  0.1594 -0.3378 -0.0556
  301loPI    C3 4803   4.242   8.029  12.231 -0.0965 -0.1573 -0.2126
  301loPI   PO4 4804   4.585   8.243  11.686 -0.0680 -0.0239 -0.1091
  301loPI   GL1 4805   4.477   8.421  11.252 -0.3720  0.2064  0.0431
  301loPI   GL2 4806   4.707   8.174  11.059  0.0526 -0.2962  0.0927
  301loPI   C1A 4807   4.552   8.570  10.847 -0.0705  0.1307  0.0853
  301loPI   C2A 4808   4.607   8.594  10.442 -0.1249  0.0381  0.0462
  301loPI   C3A 4809   4.606   8.510  10.051  0.2878  0.1894  0.1102
  301loPI   C4A 4810   4.630   8.472   9.584 -0.1088 -0.0817  0.3168
  301loPI   C5A 4811   4.525   8.565   9.104 -0.2841 -0.2604  0.1328
  301loPI   C6A 4812   4.263   8.758   8.822 -0.3085 -0.1074 -0.2070
  301loPI   C1B 4813   4.921   8.084  10.710  0.1412  0.2942 -0.1153
  301loPI   C2B 4814   4.857   8.179  10.350 -0.0001 -0.3347  0.1127
  301loPI   C3B 4815   4.895   8.066   9.926 -0.2004  0.1871 -0.3599
  301loPI   C4B 4816   5.016   8.128   9.580  0.1464  0.0400  0.0038
  302loPI    C1 4817  10.209   5.159  11.645 -0.0816 -0.0352  0.2030
  302loPI    C2 4818   9.853   5.073  11.805 -0.0403  0.1683  0.4084
  302loPI    C3 4819  10.175   5.108  12.040  0.1512 -0.1832  0.2057
  302loPI   PO4 4820  10.246   5.239  11.471 -0.0704 -0.0052 -0.1936
  302loPI   GL1 4821  10.279   5.149  11.116  0.0388  0.3898  0.0614
  302loPI   GL2 4822   9.977   5.175  11.042  0.1214  0.0736  0.1970
  302loPI   C1A 4823  10.593   5.287  10.707  0.2313 -0.0258  0.1392
  302loPI   C2A 4824  10.694   5.212  10.221  0.2766  0.1592 -0.1401
  302loPI   C3A 4825  10.679   5.295   9.820 -0.1750 -0.2092  0.1389
  302loPI   C4A 4826  10.606   5.398   9.441  0.0879  0.0139  0.0116
  302loPI   C5A 4827  10.697   5.248   8.957  0.2786 -0.2061 -0.1001
  302loPI   C6A 4828  10.925   5.286   8.578  0.5610  0.0899 -0.0180
  302loPI   C1B 4829  10.035   5.173  10.601  0.1598 -0.0241 -0.2778
  302loPI   C2B 4830  10.165   5.240  10.135 -0.1534  0.0708 -0.1244
  302loPI   C3B 4831  10.084   5.350   9.707 -0.0919  0.0140 -0.0146
  302loPI   C4B 4832  10.128   5.169   9.265  0.1904  0.2481  0.3502
  303loPI    C1 4833  11.719   6.726  11.576 -0.2928 -0.0246 -0.0393
  303loPI    C2 4834  11.426   6.538  11.771 -0.1768 -0.1285  0.0366
  303loPI    C3 4835  11.755   6.654  11.968 -0.1795  0.0150 -0.0417
  303loPI   PO4 4836  11.735   6.615  11.348  0.0163 -0.0246 -0.0885
  303loPI   GL1 4837  11.507   6.457  10.925 -0.0653  0.2185 -0.0373
  303loPI   GL2 4838  11.368   6.215  11.022  0.1035 -0.0203  0.0312
  303loPI   C1A 4839  11.598   6.415  10.448  0.0498 -0.1718  0.2105
  303loPI   C2A 4840  11.531   6.374  10.037  0.4829 -0.2134  0.0801
  303loPI   C3A 4841  11.470   6.335   9.575 -0.0183 -0.3359 -0.0428
  303loPI   C4A 4842  11.721   6.180   9.320 -0.2280 -0.2007  0.2724
  303loPI   C5A 4843  12.117   6.020   9.057 -0.0335  0.2359 -0.0031
  303loPI   C6A 4844  12.143   5.889   8.646 -0.2403  0.1084 -0.1578
  303loPI   C1B 4845  11.365   5.938  10.687  0.0715 -0.2623  0.3570
  303loPI   C2B 4846  11.433   5.882  10.231  0.1582 -0.0735  0.1326
  303loPI   C3B 4847  11.304   5.821   9.785 -0.0517 -0.1485  0.2032
  303loPI   C4B 4848  11.471   5.798   9.456 -0.3080  0.4087 -0.0090
  304loPI    C1 4849  14.469   9.309  12.053 -0.2015 -0.1388  0.0598
  304loPI    C2 4850  14.611   9.407  12.414  0.0279  0.0628 -0.0817
  304loPI    C3 4851  14.318   9.623  12.249 -0.0990 -0.0486 -0.0043
  304loPI   PO4 4852  14.670   9.297  11.928 -0.1477 -0.4079 -0.1810
  304loPI   GL1 4853  14.715   9.489  11.437 -0.0207  0.0576  0.3160
  304loPI   GL2 4854  14.549   9.295  11.296 -0.1628  0.3339  0.2765
  304loPI   C1A 4855  14.844   9.675  11.010  0.0747 -0.1794 -0.0819
  304loPI   C2A 4856  14.807   9.609  10.567  0.0212 -0.4900  0.0291
  304loPI   C3A 4857  14.772   9.610  10.196 -0.1852  0.0011 -0.0813
  304loPI   C4A 4858  14.722   9.590   9.746  0.1629 -0.5037 -0.0513
  304loPI   C5A 4859  14.547   9.496   9.281 -0.2269 -0.0545 -0.0992
  304loPI   C6A 4860  14.619   9.401   8.798 -0.2521 -0.0495  0.0918
  304loPI   C1B 4861  14.524   9.140  10.924 -0.0831 -0.0050  0.1067
  304loPI   C2B 4862  14.564   9.144  10.466  0.1323 -0.1452  0.0604
  304loPI   C3B 4863  14.531   9.103  10.057 -0.0687  0.0607 -0.0716
  304loPI   C4B 4864  14.497   9.052   9.605  0.0151 -0.0403 -0.3081
  305loPI    C1 4865   5.590   6.970  11.589  0.0759  0.2919  0.0670
  305loPI    C2 4866   5.698   6.644  11.793 -0.0827  0.1620 -0.0540
  305loPI    C3 4867   5.586   6.974  11.989  0.0395  0.1315  0.0690
  305loPI   PO4 4868   5.743   7.013  11.428 -0.1756 -0.1701  0.4395
  305loPI   GL1 4869   6.033   6.993  11.018 -0.2142 -0.3002 -0.2091
  305loPI   GL2 4870   6.171   7.292  10.866  0.1737  0.1081  0.1529
  305loPI   C1A 4871   5.886   6.829  10.593 -0.2150  0.3398 -0.3127
  305loPI   C2A 4872   5.881   6.876  10.146  0.1965  0.0244 -0.0798
  305loPI   C3A 4873   5.987   6.959   9.684 -0.1022  0.1944 -0.0395
  305loPI   C4A 4874   6.230   6.899   9.333  0.1237  0.1734  0.2215
  305loPI   C5A 4875   6.202   6.998   8.841  0.0885  0.0585 -0.0167
  305loPI   C6A 4876   5.991   7.481   8.688 -0.0653  0.2479 -0.0306
  305loPI   C1B 4877   6.051   7.332  10.337 -0.2108  0.1986 -0.0538
  305loPI   C2B 4878   6.123   7.414   9.902 -0.0795  0.1003  0.0732
  305loPI   C3B 4879   6.215   7.366   9.499  0.6099 -0.1473  0.1130
  305loPI   C4B 4880   6.344   7.370   9.053  0.0138 -0.0917  0.0860
  306loPI    C1 4881   4.982   3.824  11.537 -0.2383  0.0571  0.1544
  306loPI    C2 4882   5.340   3.871  11.708 -0.0930 -0.1416 -0.0897
  306loPI    C3 4883   5.008   3.939  11.919  0.0874  0.1543  0.1055
  306loPI   PO4 4884   5.030   3.781  11.259  0.2091 -0.1184  0.0938
  306loPI   GL1 4885   5.017   3.521  10.993 -0.1080  0.0762  0.3276
  306loPI   GL2 4886   4.929   3.238  11.102 -0.0347 -0.0390 -0.2075
  306loPI   C1A 4887   4.954   3.590  10.601  0.1761  0.2515 -0.1964
  306loPI   C2A 4888   5.036   3.583  10.234  0.0255 -0.1386 -0.1926
  306loPI   C3A 4889   5.109   3.497   9.790  0.0138  0.2786 -0.1121
  306loPI   C4A 4890   5.146   3.576   9.396 -0.0182  0.2547  0.1006
  306loPI   C5A 4891   5.206   3.674   8.975 -0.2543  0.0480 -0.2896
  306loPI   C6A 4892   5.595   3.510   8.779 -0.1781  0.3253 -0.1369
  306loPI   C1B 4893   4.812   3.097  10.729 -0.0125 -0.1136 -0.0985
  306loPI   C2B 4894   4.820   3.094  10.297 -0.0924  0.2913  0.2305
  306loPI   C3B 4895   4.961   2.982   9.900 -0.2312 -0.0648  0.1187
  306loPI   C4B 4896   4.973   3.025   9.470  0.0059  0.0419  0.0137
  307loPI    C1 4897  14.543   4.682  11.777  0.2650  0.0007 -0.1566
  307loPI    C2 4898  14.447   4.371  12.009 -0.0901  0.0502 -0.2318
  307loPI    C3 4899  14.363   4.743  12.129  0.0977  0.1022 -0.2582
  307loPI   PO4 4900  14.465   4.699  11.615  0.0105  0.1559 -0.2128
  307loPI   GL1 4901  14.618   4.863  11.313 -0.1480  0.1484  0.1203
  307loPI   GL2 4902  14.824   4.724  11.179 -0.4507  0.1835  0.0409
  307loPI   C1A 4903  14.417   5.050  10.936 -0.0889 -0.1468 -0.0533
  307loPI   C2A 4904  14.334   4.967  10.503  0.0064 -0.0961  0.1413
  307loPI   C3A 4905  14.407   5.032  10.002  0.1045 -0.0681 -0.1660
  307loPI   C4A 4906  14.409   4.957   9.563 -0.0875  0.2548 -0.0809
  307loPI   C5A 4907  14.376   5.300   9.215 -0.1079  0.1616  0.0687
  307loPI   C6A 4908  14.753   5.518   9.153 -0.0238  0.2249 -0.2419
  307loPI   C1B 4909  14.647   4.622  10.777 -0.2787  0.0637 -0.0720
  307loPI   C2B 4910  14.650   4.648  10.318 -0.1379 -0.0526  0.0690
  307loPI   C3B 4911  14.744   4.659   9.856 -0.2010  0.0579  0.1717
  307loPI   C4B 4912  14.757   4.601   9.431 -0.1154 -0.1471  0.2702
  308loPI    C1 4913   5.106  16.153  11.921 -0.0738 -0.1640  0.1352
  308loPI    C2 4914   4.998  16.456  12.159  0.1021  0.0238 -0.0205
  308loPI    C3 4915   5.263  16.185  12.288  0.1277  0.0730  0.0312
  308loPI   PO4 4916   5.146  16.319  11.674 -0.0685  0.0432 -0.1010
  308loPI   GL1 4917   5.163  16.501  11.268  0.1840 -0.0053 -0.4511
  308loPI   GL2 4918   5.227  16.172  11.192 -0.0209 -0.2041 -0.1308
  308loPI   C1A 4919   5.300  16.473  10.788 -0.2209  0.0817  0.3098
  308loPI   C2A 4920   5.245  16.499  10.288 -0.0835 -0.2307  0.1415
  308loPI   C3A 4921   5.302  16.446   9.892  0.1972 -0.2300  0.1935
  308loPI   C4A 4922   5.271  16.434   9.489 -0.2027 -0.1633 -0.0252
  308loPI   C5A 4923   5.283  16.532   9.053  0.1905  0.0542 -0.0884
  308loPI   C6A 4924   5.191  16.867   8.812 -0.1328 -0.2347 -0.1590
  308loPI   C1B 4925   5.101  15.977  10.847 -0.1259 -0.1570  0.0648
  308loPI   C2B 4926   5.117  15.954  10.395  0.3767 -0.0112 -0.0660
  308loPI   C3B 4927   5.075  15.987   9.990  0.1078  0.0691 -0.1256
  308loPI   C4B 4928   5.111  16.016   9.660 -0.0698  0.0184  0.0465
  309loPI    C1 4929  11.514   4.880  11.716  0.1505  0.1361 -0.0729
  309loPI    C2 4930  11.700   4.883  12.071 -0.3431 -0.1079  0.1979
  309loPI    C3 4931  11.501   4.557  11.951 -0.1275 -0.0526 -0.3404
  309loPI   PO4 4932  11.727   4.920  11.528  0.0833 -0.0399  0.1243
  309loPI   GL1 4933  11.908   5.217  11.211 -0.0418  0.1657 -0.3136
  309loPI   GL2 4934  11.720   5.351  11.063  0.1291 -0.0475 -0.1028
  309loPI   C1A 4935  11.994   5.084  10.757  0.1484 -0.0624 -0.3557
  309loPI   C2A 4936  12.119   5.034  10.381 -0.1597  0.1480 -0.3782
  309loPI   C3A 4937  12.033   5.056   9.912  0.0455  0.1524  0.1561
  309loPI   C4A 4938  12.030   5.003   9.500 -0.3001 -0.1099  0.4754
  309loPI   C5A 4939  12.135   4.891   9.108 -0.0762 -0.0952  0.0298
  309loPI   C6A 4940  12.246   4.986   8.680  0.0265  0.1108  0.0747
  309loPI   C1B 4941  11.717   5.532  10.608  0.0634  0.1675  0.2034
  309loPI   C2B 4942  11.711   5.453  10.162  0.0229 -0.1808  0.0166
  309loPI   C3B 4943  11.705   5.434   9.753  0.3131  0.1875 -0.2832
  309loPI   C4B 4944  11.659   5.361   9.348  0.0812 -0.0123  0.1421
  310loPI    C1 4945  11.639  17.104  11.536 -0.0893 -0.1595  0.0374
  310loPI    C2 4946  11.778  16.827  11.788 -0.0545 -0.1022  0.0816
  310loPI    C3 4947  11.388  16.915  11.783 -0.0606 -0.1281  0.0911
  310loPI   PO4 4948  11.744  16.987  11.252  0.2446  0.1031 -0.1458
  310loPI   GL1 4949  11.792  16.727  10.955  0.1793  0.2316 -0.1604
  310loPI   GL2 4950  11.835  16.967  10.732 -0.0047  0.0627  0.1437
  310loPI   C1A 4951  11.572  16.486  10.665  0.1408 -0.1756  0.3744
  310loPI   C2A 4952  11.635  16.514  10.287 -0.2882 -0.0110 -0.1011
  310loPI   C3A 4953  11.630  16.374   9.804  0.0079  0.0386 -0.0395
  310loPI   C4A 4954  11.679  16.286   9.392  0.2025  0.0527 -0.0868
  310loPI   C5A 4955  11.560  16.340   8.984 -0.0903 -0.0018  0.1498
  310loPI   C6A 4956  11.368  16.458   8.582  0.1589 -0.0436  0.3812
  310loPI   C1B 4957  11.836  16.998  10.334 -0.2049  0.1519  0.0795
  310loPI   C2B 4958  11.885  16.935   9.948  0.0387 -0.0378  0.0962
  310loPI   C3B 4959  11.973  16.792   9.516 -0.0363  0.0126 -0.3563
  310loPI   C4B 4960  11.912  16.672   9.111 -0.0332  0.1421  0.3680
  311loPI    C1 4961   0.912   2.025  11.829 -0.2123  0.1086 -0.1781
  311loPI    C2 4962   0.956   2.406  11.716 -0.2323  0.1670  0.0070
  311loPI    C3 4963   0.634   2.296  11.926 -0.2040  0.0571 -0.0068
  311loPI   PO4 4964   0.886   1.866  11.651 -0.3672  0.2851 -0.1986
  311loPI   GL1 4965   1.011   1.786  11.200  0.0158 -0.0366  0.1689
  311loPI   GL2 4966   1.028   1.498  11.028 -0.1660  0.1130  0.0917
  311loPI   C1A 4967   1.131   1.930  10.808 -0.2476 -0.0975 -0.1084
  311loPI   C2A 4968   1.184   1.928  10.372  0.2534 -0.3902 -0.1349
  311loPI   C3A 4969   1.138   2.014  10.009  0.0142  0.2638  0.1809
  311loPI   C4A 4970   1.077   1.992   9.594  0.0396 -0.0661 -0.0131
  311loPI   C5A 4971   1.079   2.267   9.195  0.0454 -0.1627 -0.2998
  311loPI   C6A 4972   0.828   2.513   9.035  0.2224  0.1495 -0.0661
  311loPI   C1B 4973   0.937   1.461  10.596  0.0271 -0.2328 -0.1392
  311loPI   C2B 4974   0.999   1.531  10.158 -0.0651 -0.0163 -0.0710
  311loPI   C3B 4975   0.849   1.565   9.772  0.0344 -0.0592  0.0329
  311loPI   C4B 4976   0.919   1.397   9.376  0.2612 -0.3394  0.0072
  312loPI    C1 4977   3.446   4.759  11.673  0.0831  0.3915  0.3092
  312loPI    C2 4978   3.344   4.397  11.809  0.4283  0.0951 -0.1867
  312loPI    C3 4979   3.449   4.685  12.066 -0.0185 -0.0953  0.2249
  312loPI   PO4 4980   3.423   4.692  11.386  0.3221 -0.0521  0.2723
  312loPI   GL1 4981   3.475   4.535  11.015  0.1446 -0.1388 -0.0302
  312loPI   GL2 4982   3.332   4.948  10.955 -0.0773  0.2674 -0.2821
  312loPI   C1A 4983   3.370   4.167  10.789 -0.0434  0.2316 -0.0534
  312loPI   C2A 4984   3.386   4.155  10.327  0.1934 -0.0844  0.2697
  312loPI   C3A 4985   3.356   4.254   9.846  0.0335 -0.1902  0.0184
  312loPI   C4A 4986   3.356   4.288   9.412  0.2593 -0.2263 -0.1290
  312loPI   C5A 4987   3.367   4.173   9.036  0.0090 -0.1290 -0.1124
  312loPI   C6A 4988   3.384   3.704   8.967 -0.3106  0.0086 -0.0259
  312loPI   C1B 4989   3.370   5.133  10.683  0.1761  0.0874  0.1181
  312loPI   C2B 4990   3.313   5.102  10.358  0.0368 -0.1569  0.1301
  312loPI   C3B 4991   3.294   5.113   9.911 -0.2070  0.3226  0.3458
  312loPI   C4B 4992   3.286   5.078   9.422 -0.0929 -0.2889 -0.1262
  313loPI    C1 4993  12.335   2.113  11.716  0.0795 -0.1694  0.1012
  313loPI    C2 4994  12.282   2.020  12.102  0.0718 -0.1990  0.0930
  313loPI    C3 4995  11.970   2.024  11.852  0.0717 -0.1485  0.0939
  313loPI   PO4 4996  12.582   1.893  11.646  0.3155 -0.0982  0.1093
  313loPI   GL1 4997  12.530   1.727  11.202  0.0185  0.1352  0.2560
  313loPI   GL2 4998  12.306   1.989  11.223  0.0798  0.1149 -0.4361
  313loPI   C1A 4999  12.635   1.487  10.812 -0.0149 -0.1419  0.1426
  313loPI   C2A 5000  12.579   1.524  10.324  0.2554  0.3366 -0.3702
  313loPI   C3A 5001  12.691   1.473   9.883 -0.0129  0.0282  0.1745
  313loPI   C4A 5002  12.585   1.394   9.513 -0.2162 -0.1534  0.0358
  313loPI   C5A 5003  12.735   1.247   9.144 -0.1901 -0.2017 -0.0830
  313loPI   C6A 5004  12.952   1.281   8.842 -0.1432 -0.2284 -0.0076
  313loPI   C1B 5005  12.304   1.938  10.725  0.2821 -0.0193 -0.0718
  313loPI   C2B 5006  12.264   1.882  10.228 -0.3601  0.0254  0.0267
  313loPI   C3B 5007  12.333   1.779   9.845 -0.0000 -0.1887  0.0252
  313loPI   C4B 5008  12.274   1.782   9.341 -0.2368  0.2353  0.3229
  314loPI    C1 5009  10.749   9.962  11.897  0.0277 -0.1173  0.2241
  314loPI    C2 5010  10.482  10.256  11.948  0.0181 -0.0924  0.0337
  314loPI    C3 5011  10.760  10.188  12.227 -0.1198 -0.0484  0.1827
  314loPI   PO4 5012  10.774  10.027  11.553 -0.3476  0.1233  0.0998
  314loPI   GL1 5013  10.886   9.985  11.189 -0.0939  0.0601  0.1428
  314loPI   GL2 5014  10.782  10.271  11.089 -0.1000 -0.0572  0.0320
  314loPI   C1A 5015  10.630   9.863  10.875  0.2682 -0.0769 -0.2208
  314loPI   C2A 5016  10.475   9.905  10.466 -0.2248  0.2604  0.0846
  314loPI   C3A 5017  10.493   9.912  10.059 -0.1559 -0.0973  0.1458
  314loPI   C4A 5018  10.514   9.846   9.588 -0.1200 -0.0021  0.1130
  314loPI   C5A 5019  10.586   9.773   9.165  0.2585  0.2115 -0.1237
  314loPI   C6A 5020  10.690   9.762   8.719 -0.3062 -0.0033  0.3562
  314loPI   C1B 5021  10.742  10.310  10.660 -0.0715  0.0458  0.0157
  314loPI   C2B 5022  10.709  10.407  10.217  0.2491  0.0618 -0.0182
  314loPI   C3B 5023  10.641  10.338   9.732  0.1948  0.0296 -0.1284
  314loPI   C4B 5024  10.620  10.263   9.320  0.3765  0.1341  0.3268
  315loPI    C1 5025  17.328   9.335  11.401 -0.0585 -0.0264  0.0719
  315loPI    C2 5026  17.340   9.067  11.697  0.1004 -0.1908 -0.0812
  315loPI    C3 5027  17.566   9.396  11.717  0.0791 -0.1807 -0.0009
  315loPI   PO4 5028  17.088   9.320  11.347 -0.0770  0.1338  0.1161
  315loPI   GL1 5029  16.897   9.530  11.036 -0.0289  0.2479  0.3390
  315loPI   GL2 5030  16.643   9.591  10.950  0.0505 -0.1130  0.2419
  315loPI   C1A 5031  17.108   9.484  10.629  0.0107  0.0122  0.2332
  315loPI   C2A 5032  17.119   9.454  10.169 -0.0826 -0.1549  0.0351
  315loPI   C3A 5033  17.004   9.505   9.740 -0.0817 -0.0329  0.2463
  315loPI   C4A 5034  17.075   9.464   9.295  0.2753  0.2122 -0.0186
  315loPI   C5A 5035  17.047   9.403   8.918 -0.0010  0.0169 -0.1718
  315loPI   C6A 5036  17.275   9.345   8.669 -0.3573 -0.1282 -0.1508
  315loPI   C1B 5037  16.552   9.562  10.497 -0.1659  0.1079 -0.2466
  315loPI   C2B 5038  16.472   9.509  10.093  0.0801 -0.0830  0.1578
  315loPI   C3B 5039  16.511   9.503   9.660 -0.0859 -0.2569  0.1991
  315loPI   C4B 5040  16.533   9.420   9.225  0.0668 -0.1909  0.0053
  316loPI    C1 5041   8.417  10.832  11.545  0.0399 -0.2317 -0.0616
  316loPI    C2 5042   8.155  10.927  11.831 -0.0209 -0.0776 -0.1672
  316loPI    C3 5043   8.440  10.656  11.903 -0.2331 -0.2768 -0.0645
  316loPI   PO4 5044   8.372  10.835  11.281 -0.1709  0.0975 -0.1250
  316loPI   GL1 5045   8.598  10.718  10.936 -0.5908  0.0234  0.1452
  316loPI   GL2 5046   8.959  10.923  10.884  0.3888  0.0090 -0.1114
  316loPI   C1A 5047   8.554  10.902  10.554  0.1081  0.1528  0.1299
  316loPI   C2A 5048   8.571  10.948  10.124  0.0022 -0.1975 -0.0430
  316loPI   C3A 5049   8.559  10.932   9.593 -0.1010  0.0956 -0.3311
  316loPI   C4A 5050   8.491  10.954   9.119 -0.0113  0.1116 -0.3587
  316loPI   C5A 5051   8.665  11.180   8.824  0.3174  0.2637 -0.0691
  316loPI   C6A 5052   8.740  11.070   8.363 -0.0091 -0.1855 -0.0804
  316loPI   C1B 5053   9.004  10.985  10.329 -0.0624  0.0015 -0.0438
  316loPI   C2B 5054   9.031  11.009   9.883  0.0431  0.1475 -0.3124
  316loPI   C3B 5055   9.041  11.018   9.492 -0.0125 -0.2238  0.0453
  316loPI   C4B 5056   9.047  11.121   9.172 -0.1749  0.1749  0.0368
  317loPI    C1 5057  14.617   5.127  11.965 -0.0874  0.0602 -0.4015
  317loPI    C2 5058  14.782   5.428  12.170 -0.0139 -0.1848 -0.0923
  317loPI    C3 5059  14.403   5.323  12.240  0.0012 -0.2484 -0.1055
  317loPI   PO4 5060  14.875   5.075  11.748  0.3229 -0.1573 -0.1725
  317loPI   GL1 5061  15.022   5.167  11.368  0.2475 -0.0641  0.1957
  317loPI   GL2 5062  15.242   4.978  11.318 -0.1585 -0.0673 -0.2827
  317loPI   C1A 5063  14.948   5.237  10.981  0.2991 -0.1621 -0.0293
  317loPI   C2A 5064  14.927   5.082  10.596  0.0290 -0.2253 -0.0831
  317loPI   C3A 5065  14.860   5.119  10.205  0.0583  0.0732 -0.1530
  317loPI   C4A 5066  14.945   5.148   9.787 -0.1790 -0.0393  0.1421
  317loPI   C5A 5067  14.874   5.081   9.389 -0.2904 -0.0389  0.0720
  317loPI   C6A 5068  14.890   5.053   8.907  0.0050 -0.0632 -0.0664
  317loPI   C1B 5069  15.184   4.724  10.822 -0.0535 -0.1355 -0.2609
  317loPI   C2B 5070  15.205   4.723  10.356 -0.2575 -0.0671 -0.1681
  317loPI   C3B 5071  15.217   4.766   9.935  0.0669  0.0968  0.1146
  317loPI   C4B 5072  15.255   4.570   9.587  0.0791  0.0861  0.2221
  318loPI    C1 5073   1.731   1.570  11.789 -0.0617  0.0264  0.1622
  318loPI    C2 5074   2.063   1.386  11.914 -0.0715 -0.1143 -0.0147
  318loPI    C3 5075   1.711   1.301  12.084 -0.0301 -0.0261  0.1166
  318loPI   PO4 5076   1.780   1.558  11.492  0.0016 -0.2716 -0.0978
  318loPI   GL1 5077   1.586   1.660  11.096  0.0206  0.1476 -0.2127
  318loPI   GL2 5078   1.515   1.328  11.152 -0.0611 -0.0338  0.0212
  318loPI   C1A 5079   1.463   1.598  10.558 -0.0155 -0.1633  0.1124
  318loPI   C2A 5080   1.550   1.605  10.021  0.2538  0.1187 -0.1141
  318loPI   C3A 5081   1.430   1.580   9.517  0.0816  0.1215  0.1544
  318loPI   C4A 5082   1.483   1.390   9.131  0.3717 -0.1644 -0.0156
  318loPI   C5A 5083   1.367   1.511   8.776  0.1901 -0.0205  0.4625
  318loPI   C6A 5084   0.860   1.661   8.651  0.1974 -0.0440  0.1312
  318loPI   C1B 5085   1.358   1.055  10.837  0.1724  0.1095 -0.1569
  318loPI   C2B 5086   1.227   1.041  10.437  0.0786 -0.1809 -0.2332
  318loPI   C3B 5087   1.307   1.152   9.950 -0.0350 -0.1791  0.1816
  318loPI   C4B 5088   1.263   1.034   9.573  0.2098 -0.3226 -0.0314
  319loPI    C1 5089   5.482   4.543  11.713 -0.0542 -0.0079  0.0654
  319loPI    C2 5090   5.696   4.220  11.615 -0.0453  0.0272 -0.0313
  319loPI    C3 5091   5.683   4.344  11.995  0.1334  0.0445 -0.0303
  319loPI   PO4 5092   5.546   4.675  11.465 -0.2842 -0.3492 -0.1484
  319loPI   GL1 5093   5.385   4.763  11.089  0.0039 -0.1314  0.1206
  319loPI   GL2 5094   5.446   4.463  10.957 -0.0841  0.0069 -0.1676
  319loPI   C1A 5095   5.243   4.980  10.751  0.3609  0.1461 -0.1287
  319loPI   C2A 5096   5.221   4.971  10.377 -0.2262 -0.0526 -0.3548
  319loPI   C3A 5097   5.170   4.922   9.896  0.1490  0.1538  0.1321
  319loPI   C4A 5098   5.267   4.773   9.485 -0.1061 -0.2041  0.0341
  319loPI   C5A 5099   5.203   4.799   9.023  0.5828 -0.2654 -0.0708
  319loPI   C6A 5100   5.024   4.722   8.697 -0.1360 -0.1292  0.0181
  319loPI   C1B 5101   5.477   4.569  10.585  0.2498 -0.2562  0.2438
  319loPI   C2B 5102   5.570   4.589  10.068 -0.0617 -0.0454  0.4986
  319loPI   C3B 5103   5.559   4.478   9.702 -0.1336  0.2601  0.0257
  319loPI   C4B 5104   5.541   4.459   9.186 -0.1452 -0.1094  0.0494
  320loPI    C1 5105   2.327   7.982  11.710  0.0652  0.2108  0.1550
  320loPI    C2 5106   2.704   7.886  11.804  0.1893  0.3095 -0.2200
  320loPI    C3 5107   2.524   8.192  11.988  0.2240  0.1475  0.0918
  320loPI   PO4 5108   2.334   8.012  11.401 -0.2288  0.1039 -0.1283
  320loPI   GL1 5109   2.629   8.009  10.978  0.2602 -0.1182 -0.4545
  320loPI   GL2 5110   2.805   7.886  11.127 -0.0153  0.0249 -0.2407
  320loPI   C1A 5111   2.476   8.246  10.597  0.0301 -0.0089 -0.1026
  320loPI   C2A 5112   2.541   8.225  10.223 -0.1127  0.2439 -0.0830
  320loPI   C3A 5113   2.631   8.243   9.752  0.2421  0.3647  0.0272
  320loPI   C4A 5114   2.792   8.371   9.345 -0.0483 -0.1142  0.0409
  320loPI   C5A 5115   2.841   8.303   8.933  0.0666 -0.2021  0.2275
  320loPI   C6A 5116   3.101   8.148   8.616  0.0893 -0.0586 -0.3448
  320loPI   C1B 5117   2.871   7.739  10.661  0.0320  0.2543 -0.2859
  320loPI   C2B 5118   2.797   7.738  10.218  0.2446  0.1732 -0.2045
  320loPI   C3B 5119   2.967   7.821   9.844 -0.0992 -0.0584 -0.2630
  320loPI   C4B 5120   2.850   7.883   9.451  0.1442  0.0680  0.0050
  321loPI    C1 5121   1.403   2.061  11.712  0.1418  0.0116  0.1139
  321loPI    C2 5122   1.379   1.804  12.018  0.1732  0.0150  0.1190
  321loPI    C3 5123   1.511   2.177  12.079  0.0859  0.0458  0.1197
  321loPI   PO4 5124   1.402   1.992  11.418 -0.0047  0.3290  0.1112
  321loPI   GL1 5125   1.604   2.110  10.994  0.2219  0.1422 -0.1810
  321loPI   GL2 5126   1.815   2.398  10.969  0.3359  0.3115  0.1701
  321loPI   C1A 5127   1.646   2.111  10.594 -0.0767 -0.0111  0.2125
  321loPI   C2A 5128   1.627   2.040  10.207 -0.0719  0.0699 -0.0472
  321loPI   C3A 5129   1.619   2.046   9.775  0.1296  0.0839  0.2169
  321loPI   C4A 5130   1.522   2.036   9.348  0.3855  0.0034  0.1399
  321loPI   C5A 5131   1.656   1.874   8.952  0.1922  0.0876 -0.1256
  321loPI   C6A 5132   1.818   1.715   8.527 -0.2244 -0.1626  0.3108
  321loPI   C1B 5133   1.785   2.594  10.549 -0.0124  0.2252  0.4449
  321loPI   C2B 5134   1.885   2.659   9.997 -0.2961 -0.4728  0.1063
  321loPI   C3B 5135   1.755   2.554   9.515  0.0305  0.0281  0.2633
  321loPI   C4B 5136   1.603   2.439   9.053  0.0053 -0.0048 -0.0125
  322loPI    C1 5137   5.854  13.262  11.734  0.0213  0.2058 -0.0479
  322loPI    C2 5138   6.082  13.190  12.054  0.0558  0.1849 -0.0769
  322loPI    C3 5139   5.697  13.286  12.100 -0.0035 -0.0657 -0.0388
  322loPI   PO4 5140   6.009  13.176  11.504 -0.2909 -0.0551 -0.3842
  322loPI   GL1 5141   6.027  13.065  11.162  0.2674 -0.1345  0.0281
  322loPI   GL2 5142   6.177  13.397  11.114  0.1804 -0.1127  0.0829
  322loPI   C1A 5143   5.914  12.836  10.794  0.0380  0.0690  0.1395
  322loPI   C2A 5144   5.901  12.803  10.315 -0.1847 -0.1880  0.0475
  322loPI   C3A 5145   5.803  12.897   9.842  0.2306 -0.1784  0.0679
  322loPI   C4A 5146   5.829  12.792   9.376  0.2389 -0.0713 -0.1169
  322loPI   C5A 5147   5.972  12.546   8.994  0.0968 -0.0003  0.0638
  322loPI   C6A 5148   6.178  12.578   8.613  0.1082  0.1281 -0.1313
  322loPI   C1B 5149   6.167  13.270  10.723  0.1060  0.2354 -0.1601
  322loPI   C2B 5150   6.064  13.308  10.224  0.1568 -0.0524 -0.2539
  322loPI   C3B 5151   6.050  13.310   9.716 -0.2419 -0.1012  0.1115
  322loPI   C4B 5152   6.170  13.278   9.270  0.0850  0.1164  0.2118
  323loPI    C1 5153   6.444   4.499  11.459 -0.0614  0.0831 -0.0711
  323loPI    C2 5154   6.775   4.414  11.251  0.0494  0.2545  0.0318
  323loPI    C3 5155   6.663   4.177  11.553 -0.0769  0.0408 -0.1791
  323loPI   PO4 5156   6.349   4.658  11.230 -0.0148  0.0694 -0.0981
  323loPI   GL1 5157   6.627   4.737  10.911  0.1351  0.0282 -0.1735
  323loPI   GL2 5158   6.699   5.060  10.894  0.0240 -0.0543 -0.0723
  323loPI   C1A 5159   6.568   4.707  10.511 -0.1467  0.3061  0.0543
  323loPI   C2A 5160   6.656   4.631  10.163  0.1733  0.2139  0.1514
  323loPI   C3A 5161   6.618   4.680   9.720 -0.2136  0.1694 -0.1511
  323loPI   C4A 5162   6.564   4.627   9.350  0.0150 -0.0206 -0.3640
  323loPI   C5A 5163   6.533   4.729   8.951 -0.0376  0.4251  0.2422
  323loPI   C6A 5164   6.704   4.611   8.537  0.1010  0.0335  0.0608
  323loPI   C1B 5165   6.739   5.157  10.419  0.2197 -0.1221  0.1702
  323loPI   C2B 5166   6.833   5.108   9.988  0.0927 -0.1080 -0.4668
  323loPI   C3B 5167   6.736   5.145   9.520 -0.1107 -0.1608 -0.0085
  323loPI   C4B 5168   6.826   5.114   9.090  0.1910 -0.1407 -0.1441
  324loPI    C1 5169  10.899   4.488  11.588 -0.3657 -0.1296  0.1649
  324loPI    C2 5170  10.998   4.838  11.754  0.0543 -0.1436 -0.0412
  324loPI    C3 5171  10.991   4.505  11.976  0.0397 -0.0694  0.0703
  324loPI   PO4 5172  11.036   4.508  11.313  0.1342  0.2159 -0.1638
  324loPI   GL1 5173  11.210   4.442  10.961 -0.3976  0.0316  0.0434
  324loPI   GL2 5174  11.179   4.063  10.884 -0.2756 -0.1738  0.1065
  324loPI   C1A 5175  11.365   4.489  10.640  0.1062  0.1984 -0.1253
  324loPI   C2A 5176  11.425   4.496  10.199  0.0556  0.1074 -0.2279
  324loPI   C3A 5177  11.331   4.531   9.790  0.1861  0.0193 -0.1165
  324loPI   C4A 5178  11.213   4.525   9.337  0.0804 -0.0833 -0.1456
  324loPI   C5A 5179  11.243   4.548   8.970 -0.0588  0.0401  0.1177
  324loPI   C6A 5180  10.846   4.787   8.702 -0.1652  0.0291 -0.1169
  324loPI   C1B 5181  11.178   4.082  10.453  0.2257 -0.0368  0.1061
  324loPI   C2B 5182  11.170   4.064  10.021 -0.1627 -0.2257  0.0090
  324loPI   C3B 5183  11.121   4.057   9.542 -0.1245 -0.0845 -0.0297
  324loPI   C4B 5184  11.155   4.007   9.076 -0.0688 -0.0412 -0.3133
  325loPI    C1 5185   4.034   7.843  11.806 -0.0618 -0.0335 -0.0276
  325loPI    C2 5186   3.757   7.555  11.817 -0.0755 -0.0238 -0.1084
  325loPI    C3 5187   4.051   7.560  12.088 -0.0375 -0.1522 -0.1467
  325loPI   PO4 5188   4.113   7.889  11.574 -0.4344 -0.0247  0.1287
  325loPI   GL1 5189   4.140   7.949  11.160  0.3272  0.0624 -0.0579
  325loPI   GL2 5190   3.781   7.879  11.191  0.2215  0.1089 -0.1005
  325loPI   C1A 5191   4.396   7.984  10.776  0.4111 -0.1123 -0.2987
  325loPI   C2A 5192   4.350   8.157  10.317 -0.1850 -0.0099  0.1812
  325loPI   C3A 5193   4.409   7.985   9.892 -0.0385  0.0097 -0.3017
  325loPI   C4A 5194   4.470   7.970   9.354  0.0566  0.1320  0.1802
  325loPI   C5A 5195   4.814   8.126   9.017  0.1616 -0.2549  0.0359
  325loPI   C6A 5196   5.217   8.236   8.963  0.0219 -0.2498 -0.0879
  325loPI   C1B 5197   3.860   7.852  10.772  0.1070 -0.4004  0.0095
  325loPI   C2B 5198   3.855   8.046  10.425 -0.0067  0.1249  0.0183
  325loPI   C3B 5199   3.913   8.080   9.943  0.1363 -0.2040 -0.0330
  325loPI   C4B 5200   3.924   7.998   9.506 -0.0073  0.2924 -0.0138
  326loPI    C1 5201   8.940  13.915  11.714 -0.4594 -0.0319 -0.1065
  326loPI    C2 5202   9.020  13.523  11.735  0.5049  0.1464  0.0414
  326loPI    C3 5203   8.926  13.726  12.067  0.0685  0.0633 -0.0253
  326loPI   PO4 5204   9.097  13.984  11.413 -0.2628  0.1094 -0.0939
  326loPI   GL1 5205   9.286  13.902  10.982 -0.1022  0.1636  0.2533
  326loPI   GL2 5206   9.283  14.236  10.972  0.1396 -0.1212 -0.3610
  326loPI   C1A 5207   9.229  13.696  10.559 -0.0115 -0.1469  0.0861
  326loPI   C2A 5208   9.197  13.757  10.036 -0.4129  0.2352 -0.2243
  326loPI   C3A 5209   9.070  13.741   9.662 -0.1486  0.2451 -0.2843
  326loPI   C4A 5210   9.036  13.836   9.250 -0.0699  0.0239 -0.1775
  326loPI   C5A 5211   9.249  13.978   8.876 -0.0005  0.2377 -0.2304
  326loPI   C6A 5212   9.516  14.217   8.723  0.1789 -0.0698  0.0864
  326loPI   C1B 5213   9.360  14.305  10.512 -0.0796  0.0534  0.0260
  326loPI   C2B 5214   9.429  14.283  10.158  0.1867 -0.2931  0.1697
  326loPI   C3B 5215   9.293  14.217   9.774  0.4977  0.2461  0.0142
  326loPI   C4B 5216   9.310  14.287   9.362  0.0092  0.0651  0.2661
  327loPI    C1 5217  15.135  13.053  11.876  0.1713  0.2391 -0.0316
  327loPI    C2 5218  15.024  13.334  12.138 -0.0410  0.1657 -0.0402
  327loPI    C3 5219  15.087  12.959  12.262  0.0221  0.1673 -0.0668
  327loPI   PO4 5220  15.061  13.171  11.661  0.0642 -0.1915 -0.1020
  327loPI   GL1 5221  15.194  13.092  11.288  0.0220  0.1523 -0.0685
  327loPI   GL2 5222  15.019  12.880  11.171 -0.1829  0.1207  0.1634
  327loPI   C1A 5223  15.527  12.984  10.936  0.0920 -0.2867  0.0383
  327loPI   C2A 5224  15.526  13.053  10.630  0.2712  0.4027 -0.1419
  327loPI   C3A 5225  15.678  13.027  10.163  0.3167 -0.1509 -0.3224
  327loPI   C4A 5226  15.574  12.915   9.792 -0.0643 -0.0675  0.0896
  327loPI   C5A 5227  15.593  12.953   9.411  0.0054 -0.1072  0.0375
  327loPI   C6A 5228  15.302  13.131   9.114 -0.3004 -0.2015  0.0626
  327loPI   C1B 5229  15.043  12.915  10.716  0.1008  0.0200 -0.1732
  327loPI   C2B 5230  15.033  12.965  10.227  0.2830 -0.1514 -0.2010
  327loPI   C3B 5231  15.113  12.914   9.849  0.1767 -0.3653  0.1130
  327loPI   C4B 5232  15.195  12.751   9.463  0.1477 -0.3284 -0.0252
  328loPI    C1 5233  11.273   9.898  11.554 -0.2594  0.1157  0.0826
  328loPI    C2 5234  11.550   9.887  11.843 -0.1593  0.1480 -0.0118
  328loPI    C3 5235  11.192   9.719  11.903 -0.1843  0.2671  0.1791
  328loPI   PO4 5236  11.289  10.113  11.409 -0.1133 -0.1051  0.1141
  328loPI   GL1 5237  11.341  10.205  11.039 -0.0791  0.0935  0.0767
  328loPI   GL2 5238  11.558  10.125  10.911 -0.2272  0.1331  0.0535
  328loPI   C1A 5239  11.252  10.436  10.645  0.1654 -0.0937 -0.1053
  328loPI   C2A 5240  11.200  10.438  10.115  0.0484  0.0197  0.0257
  328loPI   C3A 5241  11.119  10.312   9.806 -0.3982  0.3751  0.0040
  328loPI   C4A 5242  11.266  10.400   9.368  0.4540  0.3639 -0.0357
  328loPI   C5A 5243  11.212  10.301   8.900  0.1318  0.2030 -0.2588
  328loPI   C6A 5244  11.116  10.534   8.436  0.0603  0.1329  0.0018
  328loPI   C1B 5245  11.543   9.913  10.545  0.1882 -0.1424  0.1982
  328loPI   C2B 5246  11.498  10.008  10.155 -0.1763 -0.1918 -0.2292
  328loPI   C3B 5247  11.627  10.003   9.686  0.0594  0.3370 -0.0228
  328loPI   C4B 5248  11.571   9.987   9.264  0.1810  0.2031 -0.1350
  329loPI    C1 5249  13.803   9.724  11.700  0.1068  0.1065  0.1232
  329loPI    C2 5250  13.517   9.514  11.885  0.0560 -0.0857 -0.1681
  329loPI    C3 5251  13.824   9.661  12.095 -0.1894  0.0153  0.1270
  329loPI   PO4 5252  13.830   9.703  11.487 -0.0262  0.2172  0.0143
  329loPI   GL1 5253  14.072   9.517  11.260  0.3092 -0.0534 -0.0796
  329loPI   GL2 5254  14.330   9.819  11.171  0.0079  0.3425  0.0524
  329loPI   C1A 5255  14.200   9.506  10.831 -0.0042  0.0650  0.1172
  329loPI   C2A 5256  14.263   9.537  10.431  0.1596  0.4007 -0.2662
  329loPI   C3A 5257  14.182   9.541   9.998 -0.2120  0.1969  0.2301
  329loPI   C4A 5258  14.131   9.427   9.588 -0.2621  0.1259 -0.0902
  329loPI   C5A 5259  14.071   9.404   9.050  0.2091  0.1412  0.0373
  329loPI   C6A 5260  13.760   9.506   8.715 -0.0874 -0.0582  0.1810
  329loPI   C1B 5261  14.440   9.936  10.734 -0.4991 -0.0263 -0.1147
  329loPI   C2B 5262  14.479  10.061  10.327 -0.1172  0.0563 -0.4011
  329loPI   C3B 5263  14.398  10.021   9.903  0.0467  0.3718  0.1449
  329loPI   C4B 5264  14.323   9.878   9.511 -0.0907  0.0180  0.0357
  330loPI    C1 5265   8.118   3.888  11.529 -0.1038  0.0637  0.0401
  330loPI    C2 5266   7.813   3.749  11.748 -0.0969  0.0687  0.0528
  330loPI    C3 5267   8.130   3.914  11.928 -0.0985  0.0876  0.0384
  330loPI   PO4 5268   8.204   3.804  11.348 -0.2624 -0.0399 -0.1230
  330loPI   GL1 5269   8.410   4.020  11.043  0.0096 -0.0872 -0.1650
  330loPI   GL2 5270   8.656   4.066  10.861 -0.2020  0.0998 -0.0033
  330loPI   C1A 5271   8.209   4.074  10.601  0.0913 -0.0544 -0.1398
  330loPI   C2A 5272   8.246   4.080  10.233 -0.0621  0.1745  0.0788
  330loPI   C3A 5273   8.306   4.071   9.805 -0.2173  0.0772 -0.0246
  330loPI   C4A 5274   8.580   4.106   9.529 -0.0908  0.1759  0.2046
  330loPI   C5A 5275   8.604   4.110   9.068  0.0475  0.2467 -0.0004
  330loPI   C6A 5276   8.846   3.930   8.782  0.1454  0.4508 -0.1847
  330loPI   C1B 5277   8.671   4.131  10.416 -0.3224 -0.1187  0.0727
  330loPI   C2B 5278   8.769   4.076   9.979  0.0025  0.6248 -0.0562
  330loPI   C3B 5279   9.073   4.090   9.635  0.2810  0.0208 -0.2110
  330loPI   C4B 5280   9.128   4.084   9.270  0.2772  0.0278 -0.0354
  331loPI    C1 5281   0.627   3.201  11.787 -0.1024  0.2234 -0.1351
  331loPI    C2 5282   0.673   3.518  12.026  0.1893 -0.1358  0.3018
  331loPI    C3 5283   0.348   3.286  12.060 -0.0642  0.1508 -0.0732
  331loPI   PO4 5284   0.653   3.285  11.552 -0.0662  0.3285 -0.0685
  331loPI   GL1 5285   0.441   3.086  11.211  0.0786 -0.1793 -0.0342
  331loPI   GL2 5286   0.082   3.205  11.093 -0.1561  0.2371  0.0059
  331loPI   C1A 5287   0.459   2.879  10.894  0.1776 -0.2956 -0.0277
  331loPI   C2A 5288   0.416   2.785  10.502  0.0575  0.0840 -0.0851
  331loPI   C3A 5289   0.480   2.880  10.049 -0.0246  0.2178  0.3966
  331loPI   C4A 5290   0.390   2.745   9.668 -0.0947 -0.0176  0.0503
  331loPI   C5A 5291   0.463   2.910   9.343 -0.1085  0.0595 -0.1091
  331loPI   C6A 5292   0.792   3.003   9.012  0.0821  0.2661 -0.0622
  331loPI   C1B 5293   0.169   3.228  10.676 -0.1706 -0.2985  0.2365
  331loPI   C2B 5294   0.115   3.159  10.313  0.1423 -0.2330  0.1566
  331loPI   C3B 5295   0.137   3.184   9.902 -0.1943  0.2468 -0.1065
  331loPI   C4B 5296   0.091   3.241   9.524 -0.0322  0.0747 -0.0825
  332loPI    C1 5297   6.344   2.084  11.631  0.0234 -0.1196 -0.1029
  332loPI    C2 5298   6.696   2.162  11.805 -0.1189 -0.0488  0.1574
  332loPI    C3 5299   6.385   2.407  11.864 -0.2176 -0.1208 -0.0567
  332loPI   PO4 5300   6.410   2.064  11.342  0.0770 -0.0159 -0.0022
  332loPI   GL1 5301   6.552   2.075  10.928 -0.0666  0.0200 -0.1865
  332loPI   GL2 5302   6.531   2.382  10.894 -0.0296  0.0972 -0.2928
  332loPI   C1A 5303   6.489   1.945  10.527 -0.1241  0.0495 -0.1768
  332loPI   C2A 5304   6.482   1.879  10.108 -0.1574  0.0417  0.2524
  332loPI   C3A 5305   6.403   1.914   9.708 -0.2224 -0.2232 -0.1397
  332loPI   C4A 5306   6.424   1.927   9.272 -0.0864 -0.1064 -0.0676
  332loPI   C5A 5307   6.688   1.597   8.933  0.1214  0.2370 -0.0571
  332loPI   C6A 5308   6.945   1.242   9.077  0.3324  0.1260  0.3174
  332loPI   C1B 5309   6.670   2.430  10.424  0.0029 -0.1323  0.0221
  332loPI   C2B 5310   6.621   2.413   9.990  0.0574 -0.1655  0.2509
  332loPI   C3B 5311   6.639   2.382   9.539 -0.2189  0.1827 -0.0364
  332loPI   C4B 5312   6.639   2.498   9.096  0.2413 -0.1140  0.1044
  333loPI    C1 5313   0.446   2.762  12.102 -0.3611  0.1659 -0.0879
  333loPI    C2 5314   0.841   2.826  12.087 -0.3776  0.2514 -0.1694
  333loPI    C3 5315   0.623   2.991  12.379 -0.3231  0.0361 -0.0037
  333loPI   PO4 5316   0.384   2.762  11.810 -0.0915 -0.1934  0.1998
  333loPI   GL1 5317   0.210   2.582  11.448  0.1459 -0.3705  0.1930
  333loPI   GL2 5318  -0.066   2.600  11.540  0.0086 -0.0579  0.2402
  333loPI   C1A 5319   0.348   2.436  11.049 -0.0864  0.0971  0.0652
  333loPI   C2A 5320   0.327   2.270  10.725  0.0161  0.3512 -0.0943
  333loPI   C3A 5321   0.367   2.390  10.240  0.0254  0.1575 -0.0554
  333loPI   C4A 5322   0.215   2.312   9.887 -0.1526  0.0798  0.0305
  333loPI   C5A 5323   0.201   2.336   9.489 -0.0714  0.1127  0.2459
  333loPI   C6A 5324   0.262   2.467   9.119  0.1869 -0.0897  0.0147
  333loPI   C1B 5325  -0.105   2.665  11.079 -0.3251  0.1314  0.2516
  333loPI   C2B 5326  -0.030   2.637  10.633 -0.0303 -0.0189 -0.2344
  333loPI   C3B 5327  -0.022   2.690  10.119  0.2298  0.0653 -0.2884
  333loPI   C4B 5328  -0.089   2.742   9.699  0.0589  0.0416 -0.3220
  334loPI    C1 5329  10.694   1.823  11.839 -0.1137  0.0627 -0.0359
  334loPI    C2 5330  10.986   1.748  12.102 -0.1475  0.1689  0.0326
  334loPI    C3 5331  10.603   1.720  12.215 -0.1615  0.2908  0.0163
  334loPI   PO4 5332  10.753   1.697  11.506  0.3110 -0.1128  0.0818
  334loPI   GL1 5333  10.686   1.855  11.070 -0.0657  0.1152 -0.0502
  334loPI   GL2 5334  10.446   2.062  10.878  0.3179  0.2123  0.0174
  334loPI   C1A 5335  10.677   1.735  10.592 -0.1578 -0.0811  0.0610
  334loPI   C2A 5336  10.769   1.691  10.279 -0.0130  0.0572 -0.2423
  334loPI   C3A 5337  10.714   1.621   9.840 -0.1627  0.0866 -0.0042
  334loPI   C4A 5338  10.720   1.619   9.516 -0.1012  0.0481  0.0923
  334loPI   C5A 5339  10.762   1.452   9.095  0.3447  0.2346  0.1669
  334loPI   C6A 5340  10.422   1.207   8.959 -0.3408  0.0685 -0.0986
  334loPI   C1B 5341  10.400   2.149  10.417 -0.2957  0.0696 -0.2767
  334loPI   C2B 5342  10.457   2.116   9.955  0.0744 -0.1908  0.2892
  334loPI   C3B 5343  10.381   1.973   9.508  0.0996  0.1175  0.0435
  334loPI   C4B 5344  10.450   1.988   9.072  0.0613 -0.0822 -0.0198
  335loPI    C1 5345  15.051  14.953  11.932 -0.0876  0.0157  0.2269
  335loPI    C2 5346  15.155  15.317  11.801  0.0058 -0.1191 -0.0835
  335loPI    C3 5347  14.916  15.280  12.120 -0.1028  0.2149 -0.1219
  335loPI   PO4 5348  15.047  14.839  11.756  0.1807  0.4351  0.2871
  335loPI   GL1 5349  15.171  14.671  11.419  0.2254  0.1317 -0.2059
  335loPI   GL2 5350  14.935  14.382  11.219 -0.0993 -0.3274 -0.3103
  335loPI   C1A 5351  15.205  14.794  10.979  0.1015 -0.1148  0.0344
  335loPI   C2A 5352  15.300  14.781  10.534 -0.0381  0.2062  0.0145
  335loPI   C3A 5353  15.405  14.714  10.125 -0.1560 -0.1640 -0.0929
  335loPI   C4A 5354  15.381  14.781   9.763 -0.0696  0.0268 -0.0111
  335loPI   C5A 5355  15.228  14.629   9.382 -0.0979 -0.3235  0.4172
  335loPI   C6A 5356  14.801  14.739   9.178 -0.1665 -0.0090  0.3764
  335loPI   C1B 5357  15.054  14.327  10.777 -0.0859 -0.1004  0.2535
  335loPI   C2B 5358  15.121  14.254  10.332 -0.0658 -0.1334 -0.1301
  335loPI   C3B 5359  15.153  14.267   9.983 -0.0363  0.0094  0.0043
  335loPI   C4B 5360  15.225  14.193   9.603 -0.0847 -0.0810 -0.0509
  336loPI    C1 5361   8.742   5.299  11.878  0.0542 -0.1054  0.0677
  336loPI    C2 5362   8.375   5.164  11.964  0.0444 -0.1328 -0.0171
  336loPI    C3 5363   8.673   4.906  11.897  0.0714 -0.1108  0.0183
  336loPI   PO4 5364   8.682   5.480  11.712 -0.1824 -0.4721 -0.0280
  336loPI   GL1 5365   8.685   5.607  11.246  0.1724  0.2345 -0.0389
  336loPI   GL2 5366   8.374   5.831  11.097  0.2594  0.1996 -0.1451
  336loPI   C1A 5367   8.752   5.539  10.828  0.0466 -0.3039  0.2034
  336loPI   C2A 5368   8.735   5.527  10.358 -0.3853  0.1427  0.5749
  336loPI   C3A 5369   8.743   5.454  10.031  0.3268  0.1575 -0.0160
  336loPI   C4A 5370   8.794   5.503   9.607 -0.0618  0.1723  0.1180
  336loPI   C5A 5371   8.930   5.459   9.284  0.0484 -0.1160  0.2689
  336loPI   C6A 5372   8.616   5.547   8.920  0.2499  0.2824  0.0772
  336loPI   C1B 5373   8.444   5.936  10.688  0.1003  0.1066 -0.2195
  336loPI   C2B 5374   8.426   5.921  10.195  0.0379 -0.3282 -0.0324
  336loPI   C3B 5375   8.380   5.886   9.805 -0.0344 -0.2332  0.1675
  336loPI   C4B 5376   8.512   5.825   9.343  0.0315 -0.0322 -0.0409
  337loPI    C1 5377   4.517   5.298  11.884  0.1309  0.0125  0.0291
  337loPI    C2 5378   4.148   5.380  12.014  0.0229 -0.1001 -0.2008
  337loPI    C3 5379   4.343   5.060  12.154 -0.0255 -0.1248 -0.1896
  337loPI   PO4 5380   4.503   5.522  11.616  0.3150  0.2834  0.0155
  337loPI   GL1 5381   4.549   5.550  11.163 -0.1643 -0.0286  0.2000
  337loPI   GL2 5382   4.257   5.687  11.099 -0.2234  0.2160  0.1668
  337loPI   C1A 5383   4.545   5.703  10.690 -0.1869  0.0170 -0.2442
  337loPI   C2A 5384   4.514   5.704  10.241 -0.1140 -0.0748 -0.2440
  337loPI   C3A 5385   4.581   5.738   9.768  0.1312  0.0547  0.5143
  337loPI   C4A 5386   4.679   5.743   9.324  0.0326  0.1912  0.2619
  337loPI   C5A 5387   4.795   5.755   8.852 -0.2562  0.0549 -0.2657
  337loPI   C6A 5388   4.652   5.790   8.391  0.1498 -0.1601  0.1994
  337loPI   C1B 5389   4.060   5.660  10.700 -0.2555  0.0269  0.1351
  337loPI   C2B 5390   3.983   5.641  10.176 -0.1861 -0.4985  0.0056
  337loPI   C3B 5391   3.994   5.655   9.787  0.1074  0.0711 -0.0179
  337loPI   C4B 5392   3.898   5.653   9.379 -0.0443 -0.2941 -0.1770
  338loPI    C1 5393   6.733   3.694  11.651 -0.1621  0.1514 -0.0298
  338loPI    C2 5394   6.978   3.396  11.757  0.0375  0.2504 -0.2057
  338loPI    C3 5395   6.636   3.454  11.956 -0.0028 -0.0936 -0.1682
  338loPI   PO4 5396   6.748   3.702  11.416  0.2307 -0.2148 -0.1183
  338loPI   GL1 5397   6.693   3.947  11.047  0.2623  0.0726 -0.2807
  338loPI   GL2 5398   7.083   3.770  10.974 -0.0298  0.2457  0.0397
  338loPI   C1A 5399   6.729   3.835  10.631  0.2793 -0.0924  0.0186
  338loPI   C2A 5400   6.724   3.752  10.185 -0.0353  0.2275 -0.3678
  338loPI   C3A 5401   6.697   3.819   9.722  0.0057 -0.3226  0.3162
  338loPI   C4A 5402   6.775   3.792   9.334 -0.1910  0.2192  0.1427
  338loPI   C5A 5403   6.597   3.878   8.950 -0.0476 -0.0175 -0.0634
  338loPI   C6A 5404   6.184   3.879   8.780 -0.1401 -0.1670  0.0993
  338loPI   C1B 5405   7.251   3.845  10.541 -0.2727  0.0116 -0.0102
  338loPI   C2B 5406   7.235   3.934  10.083  0.1723  0.0911  0.3263
  338loPI   C3B 5407   7.195   3.946   9.653  0.2275  0.1733 -0.1137
  338loPI   C4B 5408   7.253   3.917   9.193 -0.0870 -0.0052 -0.1407
  339loPI    C1 5409  12.859   0.312  11.626  0.1845  0.1020 -0.0094
  339loPI    C2 5410  12.913   0.535  11.953 -0.3326 -0.0846  0.2146
  339loPI    C3 5411  12.945   0.137  11.975  0.0873 -0.0733 -0.0717
  339loPI   PO4 5412  13.009   0.481  11.466 -0.0331 -0.2173  0.0603
  339loPI   GL1 5413  12.905   0.690  11.033 -0.2066 -0.1043 -0.2608
  339loPI   GL2 5414  13.182   0.712  10.946 -0.1577 -0.1714  0.2588
  339loPI   C1A 5415  12.720   0.576  10.591 -0.2176  0.0506 -0.3140
  339loPI   C2A 5416  12.675   0.631  10.195  0.1823  0.0776 -0.1078
  339loPI   C3A 5417  12.742   0.524   9.829  0.0355  0.0652  0.1062
  339loPI   C4A 5418  12.801   0.484   9.443  0.2468 -0.3143  0.0806
  339loPI   C5A 5419  12.801   0.325   8.996  0.1422  0.0519 -0.1354
  339loPI   C6A 5420  13.038   0.180   8.626 -0.0173  0.3020  0.1236
  339loPI   C1B 5421  13.218   0.734  10.567  0.1856  0.2372  0.2247
  339loPI   C2B 5422  13.223   0.702  10.121 -0.2978 -0.0406  0.0253
  339loPI   C3B 5423  13.311   0.581   9.725 -0.1099  0.1570 -0.1319
  339loPI   C4B 5424  13.433   0.704   9.278 -0.1130 -0.4016 -0.3067
  340loPI    C1 5425   1.073  11.955  11.870  0.1918  0.0861 -0.0687
  340loPI    C2 5426   1.385  11.746  12.007  0.2141  0.1236 -0.0619
  340loPI    C3 5427   1.065  11.555  11.862  0.2675  0.0856 -0.1305
  340loPI   PO4 5428   1.115  12.164  11.722 -0.1787  0.3268  0.1612
  340loPI   GL1 5429   1.171  12.272  11.288  0.1120 -0.2794 -0.1241
  340loPI   GL2 5430   1.393  12.452  11.091 -0.1385  0.0187  0.0615
  340loPI   C1A 5431   1.242  12.027  10.863  0.1208 -0.0383 -0.0944
  340loPI   C2A 5432   1.212  12.054  10.355  0.0993  0.0286  0.2181
  340loPI   C3A 5433   1.302  12.128   9.943  0.0536  0.1832 -0.0614
  340loPI   C4A 5434   1.176  12.225   9.494  0.0176  0.0069  0.1645
  340loPI   C5A 5435   0.971  12.541   9.152  0.1155 -0.1653 -0.1609
  340loPI   C6A 5436   0.609  12.619   8.875  0.2763  0.0468 -0.0752
  340loPI   C1B 5437   1.422  12.519  10.726 -0.0682  0.0411  0.3634
  340loPI   C2B 5438   1.439  12.521  10.274  0.1490 -0.2104  0.0953
  340loPI   C3B 5439   1.444  12.579   9.804 -0.1381 -0.2043  0.0682
  340loPI   C4B 5440   1.411  12.748   9.422 -0.0758 -0.1454 -0.0653
  341loPI    C1 5441   6.513  15.360  11.643  0.2252  0.1294  0.0971
  341loPI    C2 5442   6.592  15.747  11.580  0.2368  0.0914 -0.1306
  341loPI    C3 5443   6.256  15.585  11.436  0.1498  0.0547  0.1092
  341loPI   PO4 5444   6.840  15.286  11.592  0.1142  0.3704  0.0032
  341loPI   GL1 5445   6.839  15.332  11.145  0.1591  0.5231  0.0704
  341loPI   GL2 5446   6.659  15.577  11.103 -0.0140 -0.1184 -0.2936
  341loPI   C1A 5447   6.927  15.301  10.679  0.0894 -0.1236  0.1141
  341loPI   C2A 5448   6.840  15.351  10.200 -0.1878 -0.1145 -0.4723
  341loPI   C3A 5449   6.885  15.258   9.739  0.0948  0.0926 -0.1864
  341loPI   C4A 5450   6.819  15.404   9.231  0.2068  0.1328  0.0924
  341loPI   C5A 5451   6.757  15.581   8.773  0.1847  0.1075 -0.3150
  341loPI   C6A 5452   6.329  15.576   8.750  0.0232 -0.1456 -0.1255
  341loPI   C1B 5453   6.560  15.728  10.690  0.3587  0.0481 -0.3127
  341loPI   C2B 5454   6.427  15.839  10.308  0.2108  0.1842  0.0349
  341loPI   C3B 5455   6.474  15.673   9.881 -0.1567  0.0927  0.1334
  341loPI   C4B 5456   6.402  15.680   9.390 -0.2111  0.1741 -0.2557
  342loPI    C1 5457  15.408   6.430  11.556  0.2551  0.1016  0.1303
  342loPI    C2 5458  15.426   6.245  11.910  0.0419 -0.0522  0.0623
  342loPI    C3 5459  15.071   6.325  11.744  0.1411  0.0143 -0.1197
  342loPI   PO4 5460  15.555   6.302  11.327 -0.1434  0.0308 -0.1590
  342loPI   GL1 5461  15.381   6.098  10.927  0.0124  0.2247  0.2441
  342loPI   GL2 5462  15.402   6.434  10.836  0.1943 -0.1654 -0.1213
  342loPI   C1A 5463  15.239   6.042  10.564  0.0545 -0.0093 -0.1109
  342loPI   C2A 5464  15.236   6.024  10.173  0.0286  0.0140  0.1093
  342loPI   C3A 5465  15.241   6.027   9.683 -0.0234  0.2106  0.1301
  342loPI   C4A 5466  15.415   5.966   9.292 -0.0154 -0.1209  0.0461
  342loPI   C5A 5467  15.464   6.191   8.879 -0.0451  0.2543 -0.2452
  342loPI   C6A 5468  15.774   6.481   8.715  0.0274  0.0320 -0.2086
  342loPI   C1B 5469  15.440   6.539  10.449  0.0793  0.0480  0.0761
  342loPI   C2B 5470  15.413   6.571  10.043 -0.1123 -0.2010  0.2215
  342loPI   C3B 5471  15.484   6.505   9.516  0.0496  0.0006  0.0425
  342loPI   C4B 5472  15.481   6.694   9.116  0.1370 -0.1922  0.1470
  343loPI    C1 5473  16.341   3.643  11.554 -0.0941 -0.1683  0.1146
  343loPI    C2 5474  16.210   3.749  11.916  0.0348 -0.2476  0.1852
  343loPI    C3 5475  16.570   3.869  11.791 -0.2418  0.2712 -0.1498
  343loPI   PO4 5476  16.197   3.657  11.393 -0.1469  0.1132 -0.1747
  343loPI   GL1 5477  15.861   3.958  11.179 -0.0426 -0.0785 -0.1393
  343loPI   GL2 5478  15.807   4.340  11.301  0.0318  0.2773  0.0620
  343loPI   C1A 5479  15.868   3.903  10.649 -0.0544  0.0893 -0.1580
  343loPI   C2A 5480  15.787   3.893  10.246 -0.2747  0.0491  0.0098
  343loPI   C3A 5481  15.720   3.819   9.811  0.4262  0.0342  0.0389
  343loPI   C4A 5482  15.869   3.938   9.379  0.0992  0.1065 -0.0893
  343loPI   C5A 5483  15.648   3.880   9.009  0.0319 -0.2863  0.1610
  343loPI   C6A 5484  15.634   3.577   8.767  0.1457  0.0027  0.1188
  343loPI   C1B 5485  16.000   4.277  10.885  0.2455  0.1008  0.2719
  343loPI   C2B 5486  16.064   4.292  10.411  0.1266  0.1131 -0.0977
  343loPI   C3B 5487  16.034   4.350   9.981 -0.1855 -0.0699 -0.0678
  343loPI   C4B 5488  15.851   4.381   9.553 -0.0900  0.1378  0.2884
  344loPI    C1 5489  10.874   1.348  11.890 -0.2069  0.2631  0.0740
  344loPI    C2 5490  10.588   1.217  12.137  0.1311 -0.1943  0.2359
  344loPI    C3 5491  10.972   1.199  12.248  0.2387  0.2909 -0.0311
  344loPI   PO4 5492  10.800   1.227  11.659 -0.0058 -0.1447  0.1525
  344loPI   GL1 5493  10.884   1.333  11.190  0.1119 -0.0121  0.0595
  344loPI   GL2 5494  10.541   1.318  10.946 -0.1000  0.0978  0.1595
  344loPI   C1A 5495  11.031   1.268  10.745  0.0160  0.3614 -0.1585
  344loPI   C2A 5496  11.101   1.309  10.240 -0.0182  0.2006 -0.0419
  344loPI   C3A 5497  11.022   1.244   9.765  0.1043  0.1317 -0.2342
  344loPI   C4A 5498  11.120   1.176   9.401  0.0916 -0.0916 -0.0893
  344loPI   C5A 5499  11.065   0.941   9.053  0.1400  0.0152  0.1840
  344loPI   C6A 5500  11.144   0.595   8.894  0.1883  0.0185  0.1158
  344loPI   C1B 5501  10.489   1.147  10.553  0.1683 -0.0141 -0.2516
  344loPI   C2B 5502  10.626   1.168  10.118 -0.1884  0.1815  0.0902
  344loPI   C3B 5503  10.494   1.129   9.795  0.3236 -0.0500  0.1487
  344loPI   C4B 5504  10.617   1.099   9.414  0.1164 -0.0971 -0.0242
  345loPI    C1 5505   0.267   3.644  11.758  0.1676 -0.1045 -0.0563
  345loPI    C2 5506  -0.069   3.503  11.925  0.0823 -0.0159 -0.1516
  345loPI    C3 5507   0.173   3.742  12.135 -0.0205  0.0885 -0.1509
  345loPI   PO4 5508   0.235   3.589  11.515  0.2411 -0.0777  0.0287
  345loPI   GL1 5509   0.468   3.557  11.071  0.2170 -0.0046  0.0423
  345loPI   GL2 5510   0.405   3.831  10.962 -0.2629  0.1255 -0.0489
  345loPI   C1A 5511   0.674   3.323  10.747 -0.2764  0.1664 -0.1051
  345loPI   C2A 5512   0.689   3.319  10.339 -0.1287 -0.2405  0.3156
  345loPI   C3A 5513   0.629   3.309   9.903  0.2262 -0.0479  0.0306
  345loPI   C4A 5514   0.739   3.360   9.463 -0.1081 -0.0854 -0.3691
  345loPI   C5A 5515   0.460   3.325   9.081 -0.1170 -0.0317 -0.1410
  345loPI   C6A 5516   0.158   3.274   8.847  0.3010  0.0433  0.1203
  345loPI   C1B 5517   0.449   3.745  10.534 -0.1889  0.3477  0.1296
  345loPI   C2B 5518   0.295   3.668  10.175 -0.0901  0.1391  0.0888
  345loPI   C3B 5519   0.266   3.676   9.720  0.1026  0.0884  0.1041
  345loPI   C4B 5520   0.355   3.716   9.309 -0.4406 -0.1675  0.2308
  346loPI    C1 5521   7.614   9.532  11.507 -0.1832  0.0747 -0.1658
  346loPI    C2 5522   7.353   9.315  11.718  0.0250 -0.1360 -0.1214
  346loPI    C3 5523   7.275   9.698  11.638 -0.2850 -0.1899 -0.0872
  346loPI   PO4 5524   7.708   9.361  11.358 -0.1284 -0.1333  0.0579
  346loPI   GL1 5525   7.876   9.537  10.912 -0.0166 -0.0004 -0.0598
  346loPI   GL2 5526   7.548   9.620  10.971 -0.0045  0.1703  0.0658
  346loPI   C1A 5527   7.996   9.392  10.586  0.0817  0.1496  0.0759
  346loPI   C2A 5528   8.102   9.442  10.187 -0.1777 -0.2326 -0.1418
  346loPI   C3A 5529   7.983   9.538   9.789  0.1774  0.3274  0.0433
  346loPI   C4A 5530   8.010   9.518   9.274  0.2640 -0.4223 -0.3697
  346loPI   C5A 5531   8.119   9.584   8.921 -0.1451  0.2812 -0.1723
  346loPI   C6A 5532   7.964   9.387   8.576 -0.0218 -0.0034  0.2648
  346loPI   C1B 5533   7.562   9.716  10.542 -0.2602  0.0178  0.0377
  346loPI   C2B 5534   7.708   9.709  10.144  0.2590 -0.1988  0.0299
  346loPI   C3B 5535   7.649   9.860   9.804 -0.1329 -0.2164  0.0329
  346loPI   C4B 5536   7.670   9.909   9.284 -0.0789 -0.2859  0.1784
  347loPI    C1 5537   5.834  12.081  11.404  0.0176 -0.0114 -0.0461
  347loPI    C2 5538   5.807  12.324  11.721 -0.2436 -0.0597 -0.0285
  347loPI    C3 5539   5.672  11.949  11.745 -0.2031 -0.0846 -0.1772
  347loPI   PO4 5540   5.736  12.177  11.221 -0.1738 -0.3255  0.2023
  347loPI   GL1 5541   5.640  12.435  10.983  0.0562  0.0266 -0.1662
  347loPI   GL2 5542   5.364  12.308  10.979 -0.0130 -0.2336  0.1481
  347loPI   C1A 5543   5.775  12.434  10.574 -0.0697  0.1608  0.0738
  347loPI   C2A 5544   5.769  12.339  10.179  0.1773 -0.0621 -0.2368
  347loPI   C3A 5545   5.694  12.363   9.819 -0.2141 -0.2828  0.1230
  347loPI   C4A 5546   5.639  12.311   9.378  0.0435  0.1915  0.0181
  347loPI   C5A 5547   5.495  12.435   9.007  0.2258  0.2894 -0.0524
  347loPI   C6A 5548   5.098  12.560   8.792 -0.0065  0.2377  0.0372
  347loPI   C1B 5549   5.183  12.324  10.538  0.1565  0.0675 -0.0557
  347loPI   C2B 5550   5.048  12.240  10.112 -0.2364 -0.1745 -0.2111
  347loPI   C3B 5551   5.126  12.327   9.771  0.0185 -0.0862  0.2246
  347loPI   C4B 5552   5.147  12.288   9.328 -0.1524  0.0424 -0.1247
  348loPI    C1 5553   8.554   6.306  12.009 -0.0122 -0.1098  0.2838
  348loPI    C2 5554   8.929   6.192  11.928 -0.1060 -0.2012 -0.0357
  348loPI    C3 5555   8.821   6.271  12.305  0.2122 -0.2508  0.0689
  348loPI   PO4 5556   8.496   6.508  11.750  0.0240  0.2142 -0.2565
  348loPI   GL1 5557   8.518   6.557  11.266  0.0215  0.1816 -0.0294
  348loPI   GL2 5558   8.410   6.293  11.275  0.0717 -0.4123 -0.1376
  348loPI   C1A 5559   8.658   6.435  10.827 -0.1627  0.2486 -0.2301
  348loPI   C2A 5560   8.569   6.397  10.408 -0.0202  0.4890  0.1540
  348loPI   C3A 5561   8.675   6.409   9.985 -0.4447 -0.2746  0.1466
  348loPI   C4A 5562   8.638   6.408   9.590 -0.2232  0.5099  0.3066
  348loPI   C5A 5563   8.605   6.329   9.179  0.2851  0.0240 -0.0870
  348loPI   C6A 5564   8.643   6.169   8.855 -0.0881  0.1378 -0.0684
  348loPI   C1B 5565   8.163   6.351  10.801  0.1877  0.1101 -0.1796
  348loPI   C2B 5566   8.059   6.408  10.326  0.1300 -0.1483 -0.1813
  348loPI   C3B 5567   8.184   6.344   9.964  0.1172  0.1176  0.0419
  348loPI   C4B 5568   8.164   6.258   9.471  0.0639  0.3511  0.0590
  349loPI    C1 5569  13.899   1.950  11.840 -0.1535 -0.1639  0.1201
  349loPI    C2 5570  13.673   1.760  11.569 -0.0329 -0.0500 -0.0628
  349loPI    C3 5571  13.708   1.613  11.940 -0.2648 -0.1631 -0.0842
  349loPI   PO4 5572  14.104   2.058  11.645 -0.2638  0.1893 -0.1946
  349loPI   GL1 5573  13.984   2.152  11.270 -0.2878  0.0807 -0.2937
  349loPI   GL2 5574  14.356   2.174  11.244  0.1879  0.0525 -0.1940
  349loPI   C1A 5575  13.811   2.161  10.851  0.0079 -0.0204 -0.1283
  349loPI   C2A 5576  13.767   2.177  10.358  0.2074  0.2320 -0.2314
  349loPI   C3A 5577  13.797   2.091   9.853 -0.0466 -0.0493 -0.0502
  349loPI   C4A 5578  13.756   2.118   9.443 -0.0383  0.4954 -0.1017
  349loPI   C5A 5579  13.902   2.250   9.058  0.1108 -0.0031  0.0284
  349loPI   C6A 5580  13.735   2.535   8.856  0.3094 -0.3231 -0.1299
  349loPI   C1B 5581  14.321   2.218  10.825 -0.1406  0.2471  0.0957
  349loPI   C2B 5582  14.375   2.288  10.335 -0.0604  0.0713 -0.0540
  349loPI   C3B 5583  14.303   2.184   9.929 -0.1749 -0.1273 -0.1624
  349loPI   C4B 5584  14.241   2.197   9.526  0.1465  0.1571 -0.0705
  350loPI    C1 5585   6.203   0.478  11.687 -0.0206  0.0646 -0.1121
  350loPI    C2 5586   6.502   0.405  11.943 -0.0198 -0.0379 -0.1416
  350loPI    C3 5587   6.236   0.118  11.859 -0.2446  0.1132  0.0374
  350loPI   PO4 5588   6.266   0.566  11.467 -0.1147 -0.0450  0.3334
  350loPI   GL1 5589   6.434   0.487  11.176 -0.0083 -0.4459  0.1528
  350loPI   GL2 5590   6.123   0.364  11.036 -0.0602 -0.1305  0.1170
  350loPI   C1A 5591   6.574   0.503  10.832 -0.2948  0.1956 -0.1877
  350loPI   C2A 5592   6.535   0.498  10.407 -0.1318  0.0868  0.0215
  350loPI   C3A 5593   6.477   0.544  10.028  0.0879  0.0059  0.1404
  350loPI   C4A 5594   6.395   0.510   9.659  0.0930 -0.1468 -0.0741
  350loPI   C5A 5595   6.302   0.461   9.295  0.1716 -0.0382  0.0258
  350loPI   C6A 5596   6.421   0.594   8.895 -0.1409 -0.1050 -0.0317
  350loPI   C1B 5597   6.137   0.242  10.658  0.0840  0.0785  0.4368
  350loPI   C2B 5598   6.221   0.182  10.239  0.0313 -0.0125  0.3022
  350loPI   C3B 5599   6.191   0.004   9.910 -0.2829  0.2553 -0.1781
  350loPI   C4B 5600   6.345  -0.029   9.506 -0.0799  0.0938 -0.0492
  351loPI    C1 5601  10.371   8.110  11.605  0.0150  0.1309  0.0932
  351loPI    C2 5602  10.021   8.018  11.775 -0.0770  0.1800 -0.0678
  351loPI    C3 5603  10.254   8.300  11.937 -0.1606  0.2216 -0.0195
  351loPI   PO4 5604  10.330   7.933  11.350 -0.2864  0.1908 -0.1636
  351loPI   GL1 5605  10.408   8.008  10.968  0.1137  0.1208  0.1473
  351loPI   GL2 5606  10.208   7.703  10.889 -0.3210  0.2676 -0.0814
  351loPI   C1A 5607  10.336   7.989  10.520  0.1021  0.0605  0.2838
  351loPI   C2A 5608  10.263   7.980  10.019  0.0136  0.2321 -0.0528
  351loPI   C3A 5609  10.232   8.094   9.561  0.2032  0.0374 -0.1265
  351loPI   C4A 5610  10.271   8.045   9.174  0.2466  0.2161  0.2339
  351loPI   C5A 5611   9.992   8.045   8.876 -0.1681  0.1081  0.1646
  351loPI   C6A 5612   9.602   8.320   8.853 -0.0087  0.0918 -0.0808
  351loPI   C1B 5613  10.139   7.447  10.493  0.0127 -0.0188  0.0524
  351loPI   C2B 5614  10.092   7.471  10.061  0.0783  0.0414 -0.1971
  351loPI   C3B 5615  10.142   7.452   9.581 -0.2211  0.0713 -0.1410
  351loPI   C4B 5616  10.075   7.574   9.208 -0.1637  0.0473  0.0483
  352loPI    C1 5617   2.027  13.707  11.985  0.1217  0.1707  0.1576
  352loPI    C2 5618   1.706  13.585  12.190  0.0822 -0.0980 -0.0584
  352loPI    C3 5619   2.072  13.471  12.305  0.0660 -0.1808 -0.0880
  352loPI   PO4 5620   1.994  13.686  11.759 -0.2524  0.0477 -0.1187
  352loPI   GL1 5621   1.924  13.814  11.364  0.0235  0.3211 -0.0884
  352loPI   GL2 5622   2.180  13.914  11.269 -0.0780  0.2626 -0.1702
  352loPI   C1A 5623   1.768  13.537  10.973 -0.1062 -0.0867 -0.0937
  352loPI   C2A 5624   1.787  13.588  10.595 -0.0608  0.2886 -0.2052
  352loPI   C3A 5625   1.740  13.609  10.236 -0.1402  0.4153 -0.1860
  352loPI   C4A 5626   1.804  13.579   9.850 -0.0792  0.0597 -0.2745
  352loPI   C5A 5627   1.889  13.617   9.390  0.3915 -0.0803  0.4318
  352loPI   C6A 5628   2.204  13.701   9.143 -0.1589  0.0238  0.4295
  352loPI   C1B 5629   1.985  14.028  10.851 -0.0041 -0.0094 -0.1315
  352loPI   C2B 5630   1.904  14.083  10.468 -0.0651  0.0582  0.0833
  352loPI   C3B 5631   1.967  14.086   9.967 -0.1602  0.1433 -0.0168
  352loPI   C4B 5632   2.045  14.049   9.470 -0.2428 -0.1405 -0.3544
  353loPI    C1 5633   9.185  14.517  11.559 -0.1136  0.0008 -0.3939
  353loPI    C2 5634   9.336  14.205  11.758 -0.2953 -0.0346 -0.3100
  353loPI    C3 5635   9.576  14.504  11.643 -0.1904 -0.0063 -0.0247
  353loPI   PO4 5636   9.008  14.482  11.461 -0.0887  0.4142 -0.4454
  353loPI   GL1 5637   8.894  14.601  11.042  0.0487 -0.0128 -0.0520
  353loPI   GL2 5638   8.594  14.514  11.101 -0.1215  0.0709 -0.0600
  353loPI   C1A 5639   9.027  14.662  10.675 -0.1770 -0.1447  0.0515
  353loPI   C2A 5640   9.143  14.760  10.197 -0.1238 -0.2155 -0.0497
  353loPI   C3A 5641   8.989  14.656   9.802  0.0282 -0.0344  0.0674
  353loPI   C4A 5642   8.933  14.615   9.381  0.0856  0.1237 -0.2028
  353loPI   C5A 5643   8.865  14.243   9.059 -0.3047 -0.0187 -0.1351
  353loPI   C6A 5644   9.013  14.326   8.580 -0.1592  0.0713 -0.2189
  353loPI   C1B 5645   8.535  14.595  10.601 -0.0192  0.0363  0.3501
  353loPI   C2B 5646   8.552  14.655  10.135 -0.2328 -0.1814 -0.1194
  353loPI   C3B 5647   8.375  14.554   9.729 -0.0997 -0.0060  0.3031
  353loPI   C4B 5648   8.425  14.506   9.279  0.2325  0.1678 -0.1828
  354loPI    C1 5649  14.420  10.199  11.716 -0.0916 -0.0600 -0.1255
  354loPI    C2 5650  14.494  10.096  12.095 -0.0963 -0.0115 -0.1114
  354loPI    C3 5651  14.125  10.059  11.947 -0.0984 -0.0130 -0.1057
  354loPI   PO4 5652  14.563  10.117  11.500 -0.0714 -0.1346 -0.0592
  354loPI   GL1 5653  14.641  10.217  11.139 -0.2304 -0.1687 -0.1211
  354loPI   GL2 5654  14.949  10.199  11.133  0.0118  0.4562 -0.3551
  354loPI   C1A 5655  14.614  10.488  10.774  0.0571  0.1823 -0.2214
  354loPI   C2A 5656  14.666  10.524  10.364 -0.0588  0.1443  0.0502
  354loPI   C3A 5657  14.611  10.503   9.927 -0.1106 -0.0618  0.0429
  354loPI   C4A 5658  14.606  10.613   9.525  0.0522 -0.2267 -0.0980
  354loPI   C5A 5659  14.439  10.284   9.230 -0.0179 -0.0289 -0.1762
  354loPI   C6A 5660  14.346   9.825   9.014 -0.4187  0.0202  0.1690
  354loPI   C1B 5661  14.946  10.111  10.693 -0.0464  0.1134  0.1280
  354loPI   C2B 5662  14.953  10.156  10.199 -0.1163 -0.2414 -0.1140
  354loPI   C3B 5663  14.914  10.101   9.763 -0.1596 -0.1995  0.1023
  354loPI   C4B 5664  14.817  10.004   9.375  0.1776 -0.1612 -0.0487
  355loPI    C1 5665   0.077   1.382  12.141  0.0555  0.0513 -0.0399
  355loPI    C2 5666   0.419   1.409  12.346 -0.0610  0.0061  0.1639
  355loPI    C3 5667   0.107   1.214  12.503 -0.0461 -0.3230 -0.2000
  355loPI   PO4 5668   0.241   1.297  11.806  0.1292  0.3815 -0.1955
  355loPI   GL1 5669   0.162   1.111  11.372  0.1251  0.1292 -0.1052
  355loPI   GL2 5670  -0.129   1.341  11.375 -0.4197 -0.1258  0.1267
  355loPI   C1A 5671   0.221   0.940  10.905 -0.0103  0.4007 -0.1421
  355loPI   C2A 5672   0.234   0.949  10.522 -0.3860  0.3319  0.1075
  355loPI   C3A 5673   0.295   0.940  10.097  0.2450 -0.2519  0.4794
  355loPI   C4A 5674   0.148   0.836   9.586 -0.2662 -0.1387  0.1588
  355loPI   C5A 5675   0.103   0.938   9.044  0.0318 -0.1828 -0.4183
  355loPI   C6A 5676  -0.271   0.738   8.829  0.3371  0.3623  0.0474
  355loPI   C1B 5677  -0.079   1.343  10.995  0.1301  0.0649  0.2214
  355loPI   C2B 5678   0.008   1.356  10.513  0.1713 -0.0875 -0.1595
  355loPI   C3B 5679  -0.030   1.408  10.145  0.1306 -0.2145 -0.0320
  355loPI   C4B 5680  -0.094   1.325   9.654 -0.1597 -0.0088  0.1457
  356loPI    C1 5681  14.581   1.939  12.062 -0.2803 -0.1415 -0.1866
  356loPI    C2 5682  14.281   2.190  12.144 -0.1960 -0.1212  0.0671
  356loPI    C3 5683  14.463   1.993  12.440 -0.1268 -0.3279 -0.1107
  356loPI   PO4 5684  14.485   1.809  11.839  0.1964 -0.2184  0.1300
  356loPI   GL1 5685  14.663   1.765  11.463  0.1304  0.3446  0.0615
  356loPI   GL2 5686  14.341   1.678  11.276  0.0597 -0.0774  0.2249
  356loPI   C1A 5687  14.680   1.868  10.990  0.0423 -0.3024  0.1846
  356loPI   C2A 5688  14.572   1.790  10.624  0.0651  0.0883 -0.0655
  356loPI   C3A 5689  14.654   1.877  10.216  0.0607  0.0332 -0.1287
  356loPI   C4A 5690  14.615   1.835   9.787  0.0956  0.3746 -0.0252
  356loPI   C5A 5691  14.609   1.861   9.358  0.1423 -0.0201  0.1887
  356loPI   C6A 5692  14.379   2.122   9.055 -0.3564  0.1659  0.2715
  356loPI   C1B 5693  14.192   1.756  10.926  0.1543 -0.0865 -0.0424
  356loPI   C2B 5694  14.117   1.736  10.550  0.1946 -0.0046 -0.0004
  356loPI   C3B 5695  14.028   1.773  10.159  0.1047  0.0108  0.4421
  356loPI   C4B 5696  14.126   1.705   9.661 -0.0483  0.0023 -0.4692
  357loPI    C1 5697   4.901   7.058  11.888 -0.1777  0.0357 -0.0425
  357loPI    C2 5698   4.764   6.682  11.886 -0.1381  0.0214 -0.1957
  357loPI    C3 5699   5.137   6.758  12.010 -0.1199  0.0002 -0.2371
  357loPI   PO4 5700   4.853   7.152  11.720 -0.1573  0.0849  0.0275
  357loPI   GL1 5701   5.020   7.282  11.306  0.0880  0.0786  0.2706
  357loPI   GL2 5702   4.746   7.064  11.253  0.1506  0.0179  0.1746
  357loPI   C1A 5703   5.038   7.257  10.834  0.0113 -0.0418 -0.0166
  357loPI   C2A 5704   5.042   7.329  10.396 -0.1316 -0.1475 -0.0865
  357loPI   C3A 5705   5.091   7.251   9.927  0.1528 -0.1609 -0.1725
  357loPI   C4A 5706   5.092   7.286   9.395  0.5751  0.3387 -0.3207
  357loPI   C5A 5707   5.312   7.197   9.068  0.0140  0.2417  0.0051
  357loPI   C6A 5708   5.554   7.402   8.835 -0.2724  0.2155 -0.2679
  357loPI   C1B 5709   4.554   7.120  10.785 -0.1040  0.0609 -0.0257
  357loPI   C2B 5710   4.471   7.221  10.333 -0.1059  0.3177  0.0304
  357loPI   C3B 5711   4.563   7.191   9.889  0.0301 -0.0336 -0.2950
  357loPI   C4B 5712   4.564   7.051   9.475 -0.1110 -0.0179  0.1090
  358loPI    C1 5713  12.948  15.659  11.656 -0.0221 -0.0349 -0.0182
  358loPI    C2 5714  12.728  15.410  11.878  0.0111 -0.1407 -0.1032
  358loPI    C3 5715  12.776  15.790  11.992 -0.1943 -0.1235 -0.0707
  358loPI   PO4 5716  12.955  15.472  11.424  0.0937 -0.0270  0.1048
  358loPI   GL1 5717  13.121  15.411  11.007  0.0234 -0.1837  0.1344
  358loPI   GL2 5718  13.461  15.442  10.933 -0.0937  0.0877 -0.0684
  358loPI   C1A 5719  13.117  15.283  10.632 -0.0080  0.0435  0.2068
  358loPI   C2A 5720  13.212  15.294  10.119  0.2739  0.0487 -0.4023
  358loPI   C3A 5721  13.213  15.202   9.754  0.0254  0.1906  0.2287
  358loPI   C4A 5722  13.277  15.257   9.351  0.0138 -0.0181  0.0553
  358loPI   C5A 5723  13.253  15.481   8.945  0.0020 -0.0273 -0.1191
  358loPI   C6A 5724  13.355  15.434   8.477  0.0761 -0.3372 -0.1765
  358loPI   C1B 5725  13.607  15.448  10.532 -0.1536  0.1720  0.4190
  358loPI   C2B 5726  13.764  15.412  10.131 -0.1970  0.0517 -0.1799
  358loPI   C3B 5727  13.672  15.385   9.741  0.0789  0.0758 -0.2479
  358loPI   C4B 5728  13.797  15.302   9.253 -0.1348 -0.3303 -0.0326
  359loPI    C1 5729   3.043   8.248  11.695 -0.2520  0.0142  0.3138
  359loPI    C2 5730   3.025   8.214  12.093 -0.0634 -0.0163  0.3203
  359loPI    C3 5731   3.080   8.573  11.926  0.3732 -0.0662  0.3436
  359loPI   PO4 5732   3.149   7.994  11.554  0.4783 -0.3578  0.1887
  359loPI   GL1 5733   3.303   7.966  11.146  0.0645 -0.2365 -0.0350
  359loPI   GL2 5734   3.479   8.273  11.155 -0.2949 -0.0609 -0.0452
  359loPI   C1A 5735   3.347   7.755  10.943  0.2511  0.1369  0.0164
  359loPI   C2A 5736   3.386   7.811  10.526  0.2609 -0.0313 -0.1092
  359loPI   C3A 5737   3.403   7.817  10.180  0.1625 -0.3031  0.0251
  359loPI   C4A 5738   3.442   7.962   9.782  0.1964 -0.1360  0.2677
  359loPI   C5A 5739   3.276   8.055   9.325 -0.0211 -0.2986 -0.2615
  359loPI   C6A 5740   3.164   7.943   9.042 -0.1480  0.1815 -0.0258
  359loPI   C1B 5741   3.513   8.222  10.756 -0.1605 -0.0329 -0.1740
  359loPI   C2B 5742   3.668   8.439  10.465 -0.1302  0.0082  0.1218
  359loPI   C3B 5743   3.578   8.412  10.085  0.0284  0.3555  0.1420
  359loPI   C4B 5744   3.639   8.473   9.636 -0.0337 -0.0561 -0.1750
  360loPI    C1 5745   3.558   1.187  11.598 -0.2274 -0.1177  0.1033
  360loPI    C2 5746   3.749   1.244  11.945 -0.2187 -0.0530  0.0881
  360loPI    C3 5747   3.415   1.023  11.933 -0.0228 -0.3544  0.0779
  360loPI   PO4 5748   3.726   1.145  11.428 -0.0351 -0.0336 -0.0784
  360loPI   GL1 5749   3.669   1.044  11.046  0.2229 -0.0985  0.1316
  360loPI   GL2 5750   3.324   0.913  11.103  0.0198 -0.1829 -0.2935
  360loPI   C1A 5751   3.668   1.060  10.610 -0.0435  0.0750 -0.0155
  360loPI   C2A 5752   3.653   1.134  10.176  0.3960 -0.2870 -0.2243
  360loPI   C3A 5753   3.730   1.097   9.767  0.2332  0.1101 -0.0837
  360loPI   C4A 5754   3.737   1.105   9.279 -0.2210 -0.2671 -0.0829
  360loPI   C5A 5755   3.422   0.891   9.021 -0.3288 -0.1263 -0.1015
  360loPI   C6A 5756   3.459   0.787   8.708 -0.2236 -0.1774  0.1542
  360loPI   C1B 5757   3.217   0.884  10.702  0.0047 -0.3010 -0.0395
  360loPI   C2B 5758   3.139   0.987  10.313 -0.1350 -0.0071 -0.0492
  360loPI   C3B 5759   3.216   0.908   9.902 -0.0592 -0.1755  0.2756
  360loPI   C4B 5760   3.273   1.049   9.478  0.0197 -0.0268 -0.2292
  361loPI    C1 5761  14.840   6.028  11.439 -0.0549  0.0406  0.0516
  361loPI    C2 5762  14.855   5.628  11.454 -0.2671  0.0405  0.3135
  361loPI    C3 5763  14.977   5.845  11.768  0.1362  0.1929  0.0589
  361loPI   PO4 5764  15.018   6.137  11.262 -0.0478 -0.2566 -0.1163
  361loPI   GL1 5765  14.924   6.250  10.952  0.1335 -0.0392  0.1111
  361loPI   GL2 5766  14.767   5.945  10.857  0.1110 -0.1526  0.1551
  361loPI   C1A 5767  14.945   6.464  10.519  0.1438  0.1769  0.1777
  361loPI   C2A 5768  14.947   6.417  10.093 -0.3336 -0.1624 -0.1690
  361loPI   C3A 5769  14.973   6.464   9.704 -0.1214  0.1976 -0.0823
  361loPI   C4A 5770  15.011   6.273   9.232  0.0442 -0.0901 -0.0996
  361loPI   C5A 5771  14.990   5.983   8.936 -0.2819 -0.0227 -0.2498
  361loPI   C6A 5772  14.882   5.964   8.582  0.1110 -0.0131  0.0245
  361loPI   C1B 5773  14.712   5.957  10.432 -0.3122  0.0343 -0.3389
  361loPI   C2B 5774  14.720   5.945   9.954  0.0153 -0.1363  0.3343
  361loPI   C3B 5775  14.771   5.969   9.551  0.2923  0.1456  0.0126
  361loPI   C4B 5776  14.422   5.912   9.159 -0.0312 -0.4151 -0.0790
  362loPI    C1 5777  10.523  10.753  11.745  0.1043  0.0548 -0.2174
  362loPI    C2 5778  10.671  10.699  11.378  0.5331  0.1751 -0.0685
  362loPI    C3 5779  10.839  10.514  11.690  0.0171 -0.1253  0.0434
  362loPI   PO4 5780  10.216  10.803  11.712 -0.2124  0.3983  0.3708
  362loPI   GL1 5781  10.126  10.729  11.295 -0.2560 -0.1080 -0.1332
  362loPI   GL2 5782   9.978  10.476  11.083  0.1385 -0.1283 -0.1268
  362loPI   C1A 5783  10.437  10.720  10.928 -0.4838 -0.1769  0.1543
  362loPI   C2A 5784  10.430  10.776  10.443 -0.1273  0.0613  0.1483
  362loPI   C3A 5785  10.428  10.756  10.004  0.2257  0.2886  0.3320
  362loPI   C4A 5786  10.319  10.755   9.534 -0.1303  0.0253  0.1868
  362loPI   C5A 5787  10.328  10.799   9.044  0.0106  0.0419 -0.1677
  362loPI   C6A 5788  10.365  10.617   8.659 -0.1196 -0.4773  0.4329
  362loPI   C1B 5789   9.928  10.646  10.640 -0.3343 -0.0317  0.0235
  362loPI   C2B 5790   9.817  10.742  10.165  0.0767 -0.1659  0.0434
  362loPI   C3B 5791   9.873  10.725   9.705  0.1822  0.1835 -0.0054
  362loPI   C4B 5792   9.859  10.660   9.250  0.3210  0.0865 -0.0914
  363loPI    C1 5793   4.775   3.480  11.769  0.0867  0.0675 -0.0882
  363loPI    C2 5794   4.975   3.137  11.822 -0.2458 -0.0876  0.2050
  363loPI    C3 5795   5.131   3.482  11.952 -0.0113 -0.1564  0.1111
  363loPI   PO4 5796   4.682   3.363  11.493 -0.1374 -0.0075  0.0429
  363loPI   GL1 5797   4.429   3.385  11.073 -0.2925  0.1419 -0.3371
  363loPI   GL2 5798   4.150   3.338  11.214 -0.0988  0.1177  0.1870
  363loPI   C1A 5799   4.469   3.475  10.652 -0.1941  0.1119  0.0951
  363loPI   C2A 5800   4.495   3.532  10.230 -0.0664  0.1369 -0.0108
  363loPI   C3A 5801   4.621   3.477   9.815 -0.4205  0.4686 -0.0875
  363loPI   C4A 5802   4.615   3.508   9.400  0.0734 -0.1157 -0.0817
  363loPI   C5A 5803   4.810   3.330   9.044 -0.2392 -0.1612 -0.0683
  363loPI   C6A 5804   5.245   3.119   9.057  0.2090  0.1479  0.1342
  363loPI   C1B 5805   4.009   3.401  10.782  0.0163  0.0745 -0.2392
  363loPI   C2B 5806   4.007   3.437  10.345 -0.0598  0.1308  0.4492
  363loPI   C3B 5807   4.134   3.439   9.880  0.2371 -0.0761 -0.2180
  363loPI   C4B 5808   4.080   3.431   9.433 -0.1113 -0.2628 -0.1144
  364loPI    C1 5809  15.321  14.439  11.812  0.3010 -0.2510  0.2138
  364loPI    C2 5810  15.437  14.603  12.158 -0.2613 -0.0000  0.2938
  364loPI    C3 5811  15.070  14.449  12.123 -0.1261 -0.2437 -0.1227
  364loPI   PO4 5812  15.634  14.425  11.710 -0.2851  0.1114  0.2954
  364loPI   GL1 5813  15.790  14.766  11.394 -0.0841  0.0742 -0.2558
  364loPI   GL2 5814  15.974  15.071  11.435  0.0566 -0.2582  0.4307
  364loPI   C1A 5815  15.662  14.878  11.000 -0.5893  0.2039 -0.2251
  364loPI   C2A 5816  15.824  14.834  10.725 -0.2938  0.0757 -0.0508
  364loPI   C3A 5817  15.876  14.766  10.363 -0.0816 -0.0368  0.0524
  364loPI   C4A 5818  15.858  14.832   9.885 -0.0755  0.0257  0.0883
  364loPI   C5A 5819  15.912  14.969   9.460  0.1659 -0.1665  0.1737
  364loPI   C6A 5820  16.066  15.093   9.041 -0.1359  0.1204 -0.3676
  364loPI   C1B 5821  15.931  15.311  11.100 -0.1279  0.3130 -0.2666
  364loPI   C2B 5822  15.965  15.313  10.728  0.0348  0.2820  0.1172
  364loPI   C3B 5823  16.033  15.290  10.294 -0.2416 -0.0021 -0.0638
  364loPI   C4B 5824  16.082  15.446   9.848 -0.2173  0.1620 -0.0556
  365loPI    C1 5825   7.732   8.706  11.834 -0.2216 -0.0449  0.1566
  365loPI    C2 5826   8.130   8.684  11.803 -0.2596 -0.1870 -0.3143
  365loPI    C3 5827   7.951   8.593  12.149  0.1293  0.1222 -0.0221
  365loPI   PO4 5828   7.561   8.883  11.703  0.1047 -0.1518 -0.0041
  365loPI   GL1 5829   7.426   8.947  11.259 -0.0823  0.2012  0.3135
  365loPI   GL2 5830   7.587   8.619  11.067 -0.2558  0.2650 -0.1210
  365loPI   C1A 5831   7.385   9.226  10.749  0.0230 -0.2866 -0.2820
  365loPI   C2A 5832   7.341   9.297  10.241  0.0180  0.2262 -0.0834
  365loPI   C3A 5833   7.478   9.383   9.892  0.0384  0.2754 -0.0007
  365loPI   C4A 5834   7.371   9.469   9.470  0.1020  0.4156 -0.3279
  365loPI   C5A 5835   6.996   9.643   9.197  0.1514 -0.2530  0.2607
  365loPI   C6A 5836   6.626   9.807   8.971  0.1945 -0.1206  0.1972
  365loPI   C1B 5837   7.454   8.575  10.647 -0.3089  0.3032 -0.1001
  365loPI   C2B 5838   7.541   8.495  10.273 -0.0227 -0.1222  0.3810
  365loPI   C3B 5839   7.552   8.540   9.699  0.2108 -0.1978  0.0647
  365loPI   C4B 5840   7.614   8.579   9.264 -0.1446  0.2150 -0.2893
  366loPI    C1 5841  15.459  16.273  11.800 -0.2738 -0.1649  0.0384
  366loPI    C2 5842  15.770  16.395  12.020 -0.0597 -0.1982 -0.2410
  366loPI    C3 5843  15.418  16.322  12.195  0.0499 -0.0268  0.0577
  366loPI   PO4 5844  15.561  16.239  11.599 -0.1836 -0.0939 -0.0958
  366loPI   GL1 5845  15.686  15.807  11.396  0.2604 -0.2864  0.3333
  366loPI   GL2 5846  15.965  15.684  11.435 -0.0904  0.0328 -0.1113
  366loPI   C1A 5847  15.664  15.714  10.917  0.0923  0.0105 -0.0966
  366loPI   C2A 5848  15.654  15.666  10.436 -0.0984  0.0966  0.0921
  366loPI   C3A 5849  15.764  15.841   9.958 -0.1697 -0.0698  0.0567
  366loPI   C4A 5850  15.759  15.728   9.566  0.2510 -0.0099 -0.3752
  366loPI   C5A 5851  15.945  15.457   9.362 -0.0206 -0.1609  0.0791
  366loPI   C6A 5852  15.994  15.635   8.855 -0.3582  0.0540  0.1007
  366loPI   C1B 5853  16.186  15.813  10.981 -0.0232 -0.1051  0.3599
  366loPI   C2B 5854  16.192  15.818  10.527 -0.1886  0.1009 -0.2039
  366loPI   C3B 5855  16.311  15.831  10.153 -0.0292  0.0243  0.0423
  366loPI   C4B 5856  16.248  15.949   9.763 -0.2942  0.2683  0.0291
  367loPI    C1 5857  14.876   7.037  11.349 -0.1139 -0.2059 -0.0636
  367loPI    C2 5858  14.791   7.139  11.726 -0.0552 -0.0580 -0.0896
  367loPI    C3 5859  15.039   6.835  11.653 -0.0630 -0.0839 -0.0089
  367loPI   PO4 5860  14.716   6.981  11.222 -0.1416 -0.0301 -0.2203
  367loPI   GL1 5861  14.723   6.706  10.934 -0.0422  0.2162  0.3374
  367loPI   GL2 5862  14.690   6.893  10.644 -0.1203  0.3565 -0.1940
  367loPI   C1A 5863  14.446   6.407  10.733 -0.0068 -0.0121 -0.1172
  367loPI   C2A 5864  14.482   6.337  10.216  0.0353  0.0055  0.0269
  367loPI   C3A 5865  14.505   6.391   9.764 -0.0238 -0.0264  0.1616
  367loPI   C4A 5866  14.482   6.427   9.315  0.3266  0.2676  0.2284
  367loPI   C5A 5867  14.596   6.412   8.841 -0.0268 -0.1492  0.1406
  367loPI   C6A 5868  15.106   6.525   8.655 -0.1086  0.3271 -0.0042
  367loPI   C1B 5869  14.608   6.801  10.270 -0.1103  0.0411 -0.0119
  367loPI   C2B 5870  14.673   6.905   9.819  0.1069  0.0857  0.0664
  367loPI   C3B 5871  14.611   6.829   9.468 -0.3501  0.0467  0.0656
  367loPI   C4B 5872  14.470   6.973   8.982  0.2888 -0.1838  0.0674
  368loPI    C1 5873   4.123   3.056  11.662  0.1833  0.1057 -0.1778
  368loPI    C2 5874   4.419   3.134  11.920  0.0870 -0.0616 -0.0141
  368loPI    C3 5875   4.046   3.254  12.001  0.1048  0.1373 -0.2137
  368loPI   PO4 5876   4.282   2.934  11.482 -0.3202 -0.1258  0.2816
  368loPI   GL1 5877   4.438   2.846  11.100 -0.1437  0.3021  0.2930
  368loPI   GL2 5878   4.173   2.594  11.076 -0.0814 -0.1129 -0.5756
  368loPI   C1A 5879   4.347   2.955  10.761 -0.1470 -0.0838 -0.5274
  368loPI   C2A 5880   4.354   3.078  10.423  0.1640 -0.0230 -0.0363
  368loPI   C3A 5881   4.451   3.010   9.975  0.0536  0.0964  0.2331
  368loPI   C4A 5882   4.482   3.051   9.554 -0.0222  0.0028 -0.1825
  368loPI   C5A 5883   4.406   3.032   9.196 -0.0398  0.1566 -0.0785
  368loPI   C6A 5884   4.400   2.745   8.858 -0.1695  0.3749  0.0432
  368loPI   C1B 5885   4.238   2.504  10.604 -0.1301 -0.0228  0.2286
  368loPI   C2B 5886   4.245   2.577  10.149  0.1405  0.1148 -0.3101
  368loPI   C3B 5887   4.284   2.624   9.686  0.3282  0.3297 -0.0534
  368loPI   C4B 5888   4.194   2.576   9.291  0.2767  0.1442  0.1350
  369loPI    C1 5889  12.137   2.563  11.730  0.0213  0.2116 -0.2116
  369loPI    C2 5890  11.922   2.486  12.058 -0.0593  0.0916 -0.2916
  369loPI    C3 5891  12.000   2.864  11.954 -0.0178  0.1297 -0.1245
  369loPI   PO4 5892  12.043   2.461  11.490 -0.2927 -0.2030  0.0749
  369loPI   GL1 5893  12.193   2.470  11.033  0.0805  0.0186 -0.1470
  369loPI   GL2 5894  12.539   2.454  10.964  0.2331  0.0418 -0.0680
  369loPI   C1A 5895  11.988   2.306  10.707  0.0145  0.1102 -0.2636
  369loPI   C2A 5896  11.969   2.264  10.353 -0.0853 -0.2462 -0.3869
  369loPI   C3A 5897  11.931   2.320   9.912 -0.0733 -0.0693  0.0261
  369loPI   C4A 5898  11.932   2.160   9.475  0.0852 -0.1665  0.0466
  369loPI   C5A 5899  11.977   2.093   8.981 -0.1149  0.1727 -0.0248
  369loPI   C6A 5900  12.194   1.939   8.631  0.4200  0.1249  0.0334
  369loPI   C1B 5901  12.457   2.366  10.495  0.2646 -0.0044  0.0602
  369loPI   C2B 5902  12.439   2.339  10.015 -0.0189  0.2026 -0.2812
  369loPI   C3B 5903  12.401   2.298   9.668  0.1284 -0.0515 -0.1975
  369loPI   C4B 5904  12.443   2.249   9.298 -0.0385 -0.1011 -0.0452
  370loPI    C1 5905   1.264   6.902  11.786  0.1518  0.0530 -0.0675
  370loPI    C2 5906   1.458   6.606  11.972 -0.1820 -0.0161  0.1810
  370loPI    C3 5907   1.620   6.971  11.955  0.1323 -0.1573  0.0642
  370loPI   PO4 5908   1.179   6.758  11.497 -0.1668  0.1588 -0.3596
  370loPI   GL1 5909   1.313   6.806  11.051  0.2607  0.0747  0.1405
  370loPI   GL2 5910   1.559   6.500  11.011  0.0353 -0.3207 -0.1535
  370loPI   C1A 5911   1.183   7.051  10.653  0.0209 -0.4339 -0.0156
  370loPI   C2A 5912   1.075   7.052  10.265  0.0431  0.0311  0.2961
  370loPI   C3A 5913   1.124   6.983   9.859 -0.2256 -0.3263  0.2097
  370loPI   C4A 5914   1.134   7.217   9.427 -0.0160  0.1269  0.2516
  370loPI   C5A 5915   0.789   7.244   9.126 -0.3458  0.1803 -0.2056
  370loPI   C6A 5916   0.619   7.558   8.911  0.2494 -0.0129  0.0070
  370loPI   C1B 5917   1.405   6.613  10.606 -0.0582 -0.2615 -0.3705
  370loPI   C2B 5918   1.445   6.615  10.127  0.0386 -0.3076  0.2738
  370loPI   C3B 5919   1.482   6.651   9.725  0.1296  0.3959 -0.2195
  370loPI   C4B 5920   1.432   6.841   9.428  0.2517 -0.0927 -0.0742
  371loPI    C1 5921  16.940   2.338  12.009 -0.1234  0.0860 -0.0663
  371loPI    C2 5922  17.143   2.260  12.345 -0.0000 -0.0194 -0.1651
  371loPI    C3 5923  16.753   2.342  12.363  0.0332  0.1027  0.0172
  371loPI   PO4 5924  17.106   2.167  11.806  0.3418 -0.0251 -0.3497
  371loPI   GL1 5925  17.193   2.134  11.346 -0.2861  0.2918  0.2687
  371loPI   GL2 5926  17.452   2.013  11.188 -0.0609  0.1307  0.0783
  371loPI   C1A 5927  17.234   2.236  10.849  0.0596  0.1018  0.3240
  371loPI   C2A 5928  17.239   2.151  10.370 -0.1943  0.1486  0.2748
  371loPI   C3A 5929  17.136   2.247   9.938  0.1689 -0.0433  0.1866
  371loPI   C4A 5930  17.122   2.315   9.573  0.5229 -0.0449 -0.0046
  371loPI   C5A 5931  17.139   2.475   9.263  0.2166  0.2357 -0.1915
  371loPI   C6A 5932  17.031   2.489   8.929 -0.0742  0.0542  0.1150
  371loPI   C1B 5933  17.511   1.792  10.728  0.0009  0.0996  0.1628
  371loPI   C2B 5934  17.614   1.822  10.317  0.1930 -0.1247  0.1416
  371loPI   C3B 5935  17.550   1.865   9.960  0.0970 -0.0414 -0.1624
  371loPI   C4B 5936  17.606   1.818   9.505  0.1013  0.2920 -0.0687
  372loPI    C1 5937  10.723  14.521  11.579 -0.1905  0.1391  0.2635
  372loPI    C2 5938  10.597  14.301  11.888 -0.0335 -0.3154  0.0130
  372loPI    C3 5939  10.928  14.196  11.690 -0.1015  0.0009 -0.2776
  372loPI   PO4 5940  10.577  14.591  11.430  0.1791 -0.2445  0.0769
  372loPI   GL1 5941  10.418  14.426  11.075 -0.1997 -0.1840 -0.0855
  372loPI   GL2 5942  10.200  14.197  10.996  0.0123  0.1647 -0.0221
  372loPI   C1A 5943  10.340  14.471  10.638  0.1993  0.0336 -0.1593
  372loPI   C2A 5944  10.419  14.395  10.225  0.0917 -0.1748  0.4099
  372loPI   C3A 5945  10.410  14.442   9.865 -0.1733  0.3728 -0.4422
  372loPI   C4A 5946  10.384  14.365   9.459 -0.0273 -0.4876 -0.0634
  372loPI   C5A 5947  10.217  14.414   8.990  0.3339 -0.2561 -0.0090
  372loPI   C6A 5948  10.289  14.467   8.544  0.1050 -0.1300  0.3686
  372loPI   C1B 5949  10.169  13.944  10.670 -0.0025 -0.3856 -0.2014
  372loPI   C2B 5950  10.215  13.831  10.229  0.0175  0.1577 -0.2899
  372loPI   C3B 5951  10.215  13.942   9.843 -0.2549 -0.1332  0.0510
  372loPI   C4B 5952  10.188  13.932   9.372  0.0655  0.0058 -0.0276
  373loPI    C1 5953   0.921  14.808  11.931  0.0043 -0.0404  0.0494
  373loPI    C2 5954   1.212  15.064  12.031  0.1039 -0.1488  0.0389
  373loPI    C3 5955   1.106  14.772  12.283  0.1447 -0.2346 -0.0425
  373loPI   PO4 5956   0.985  14.669  11.706  0.0567 -0.1449 -0.2438
  373loPI   GL1 5957   0.970  14.817  11.248  0.0225 -0.0411 -0.1391
  373loPI   GL2 5958   0.624  14.853  11.225  0.3036 -0.0645 -0.1709
  373loPI   C1A 5959   0.774  14.753  10.799 -0.1672 -0.1086 -0.0215
  373loPI   C2A 5960   0.753  14.719  10.325  0.0935 -0.2225 -0.1152
  373loPI   C3A 5961   0.818  14.696   9.944 -0.2616 -0.0448 -0.0150
  373loPI   C4A 5962   0.774  14.664   9.462 -0.2269 -0.1014  0.1272
  373loPI   C5A 5963   0.589  14.483   9.189  0.4251  0.0883 -0.3972
  373loPI   C6A 5964   0.391  14.510   8.842  0.0158  0.0292 -0.0234
  373loPI   C1B 5965   0.412  15.056  10.933  0.1911  0.1331 -0.1099
  373loPI   C2B 5966   0.468  15.121  10.477 -0.0873 -0.0078 -0.1932
  373loPI   C3B 5967   0.443  15.163  10.114 -0.1863 -0.1501  0.0908
  373loPI   C4B 5968   0.501  15.069   9.721 -0.0367 -0.2434  0.2533
  374loPI    C1 5969   8.706   4.754  11.458  0.2350 -0.0796  0.0594
  374loPI    C2 5970   9.059   4.749  11.271  0.2576 -0.2651  0.1054
  374loPI    C3 5971   9.025   4.597  11.640  0.1123 -0.3241  0.0684
  374loPI   PO4 5972   8.652   4.981  11.432  0.0010  0.5329 -0.0889
  374loPI   GL1 5973   8.756   5.115  11.098  0.3615  0.2099  0.0897
  374loPI   GL2 5974   9.020   5.186  11.002 -0.3114 -0.2090 -0.1920
  374loPI   C1A 5975   8.542   4.991  10.684  0.0412  0.1839 -0.0427
  374loPI   C2A 5976   8.569   5.030  10.272 -0.2293 -0.0851 -0.2429
  374loPI   C3A 5977   8.599   5.035   9.849 -0.0442  0.2542  0.2860
  374loPI   C4A 5978   8.669   4.924   9.406  0.0925  0.1050  0.1954
  374loPI   C5A 5979   8.780   5.075   8.939  0.2711 -0.2210 -0.0974
  374loPI   C6A 5980   8.563   5.116   8.566  0.4168 -0.5282 -0.0675
  374loPI   C1B 5981   9.048   5.072  10.565 -0.0598  0.1857  0.1951
  374loPI   C2B 5982   9.102   5.112  10.157 -0.1379 -0.1478  0.0909
  374loPI   C3B 5983   9.063   4.976   9.748  0.1113 -0.1003  0.0906
  374loPI   C4B 5984   9.207   5.035   9.361  0.0729 -0.3190  0.0556
  375loPI    C1 5985   1.856  16.133  11.892 -0.1781 -0.0186  0.1749
  375loPI    C2 5986   2.225  15.993  11.823 -0.2055  0.0492 -0.1239
  375loPI    C3 5987   2.155  16.225  12.142  0.0260  0.0979 -0.1063
  375loPI   PO4 5988   1.765  16.140  11.694  0.1529  0.0502  0.3640
  375loPI   GL1 5989   1.805  16.277  11.236 -0.2979 -0.0370 -0.0418
  375loPI   GL2 5990   1.659  15.964  11.123 -0.3127  0.1595 -0.1477
  375loPI   C1A 5991   1.935  16.387  10.837 -0.1185 -0.1429 -0.0566
  375loPI   C2A 5992   1.883  16.346  10.439  0.0742 -0.1131  0.1013
  375loPI   C3A 5993   1.828  16.308  10.011  0.0139 -0.0456  0.1654
  375loPI   C4A 5994   1.977  16.246   9.608 -0.1475 -0.0826  0.1687
  375loPI   C5A 5995   1.697  16.316   9.221  0.1222 -0.0238 -0.1304
  375loPI   C6A 5996   1.309  16.263   9.071  0.2771 -0.0238 -0.1341
  375loPI   C1B 5997   1.711  15.898  10.634  0.1358  0.0458 -0.1641
  375loPI   C2B 5998   1.717  15.907  10.220  0.1144  0.1730 -0.3666
  375loPI   C3B 5999   1.770  15.749   9.854  0.2867  0.1977  0.1008
  375loPI   C4B 6000   1.853  15.784   9.349  0.5471 -0.1909  0.2575
  376loPI    C1 6001  14.890  11.752  11.775  0.3043 -0.0527 -0.0802
  376loPI    C2 6002  14.724  11.602  12.107  0.0107  0.0821 -0.1622
  376loPI    C3 6003  15.004  11.886  12.134  0.2082 -0.1220 -0.0230
  376loPI   PO4 6004  14.739  11.796  11.611  0.1935  0.0658  0.0103
  376loPI   GL1 6005  14.445  11.757  11.304 -0.2149  0.1926  0.3002
  376loPI   GL2 6006  14.474  11.422  11.328  0.0231 -0.0989  0.0457
  376loPI   C1A 6007  14.246  12.116  11.161  0.3901 -0.2756  0.1778
  376loPI   C2A 6008  14.275  12.390  10.783  0.2440  0.1612 -0.0591
  376loPI   C3A 6009  14.131  12.583  10.374 -0.1815  0.0954 -0.1761
  376loPI   C4A 6010  14.091  12.668   9.974 -0.1837  0.4313  0.0630
  376loPI   C5A 6011  14.033  12.731   9.498  0.0860 -0.1249  0.1273
  376loPI   C6A 6012  13.756  13.066   9.296 -0.1690  0.1507 -0.0705
  376loPI   C1B 6013  14.449  11.452  10.910  0.1086  0.0732 -0.0274
  376loPI   C2B 6014  14.411  11.442  10.456 -0.1262  0.0770  0.0258
  376loPI   C3B 6015  14.515  11.408   9.994  0.0205  0.2943  0.0403
  376loPI   C4B 6016  14.547  11.345   9.521  0.3721 -0.5385 -0.3798
  377loPI    C1 6017  12.343   0.066  11.591 -0.0814 -0.4415  0.0793
  377loPI    C2 6018  12.415   0.359  11.853  0.0230 -0.1563 -0.2610
  377loPI    C3 6019  12.477  -0.022  11.957  0.3049 -0.0313  0.0439
  377loPI   PO4 6020  12.456   0.159  11.367 -0.2265  0.0255 -0.1617
  377loPI   GL1 6021  12.382   0.082  10.920  0.1561  0.0395  0.0837
  377loPI   GL2 6022  12.428   0.413  10.906  0.0196  0.1065  0.0133
  377loPI   C1A 6023  12.474   0.084  10.475 -0.0990 -0.1467  0.1785
  377loPI   C2A 6024  12.482   0.128  10.094  0.1541 -0.2308  0.2889
  377loPI   C3A 6025  12.661   0.027   9.683  0.1154 -0.3740 -0.1551
  377loPI   C4A 6026  12.543  -0.075   9.262 -0.0561 -0.3352 -0.2508
  377loPI   C5A 6027  12.393   0.085   8.869 -0.1377  0.1010 -0.0869
  377loPI   C6A 6028  12.473   0.541   8.582  0.2134 -0.0381  0.1166
  377loPI   C1B 6029  12.186   0.498  10.564  0.1572  0.1134 -0.1843
  377loPI   C2B 6030  12.201   0.591  10.105 -0.0751 -0.0116  0.0664
  377loPI   C3B 6031  12.261   0.482   9.764  0.1406  0.0411 -0.0334
  377loPI   C4B 6032  12.292   0.370   9.369 -0.1508  0.3242  0.2205
  378loPI    C1 6033  12.478   1.288  11.617 -0.0679 -0.1949  0.1162
  378loPI    C2 6034  12.157   1.242  11.851 -0.0282 -0.1649  0.1770
  378loPI    C3 6035  12.442   1.504  11.952 -0.0833 -0.0410  0.0165
  378loPI   PO4 6036  12.392   1.229  11.365  0.1567 -0.4225 -0.0281
  378loPI   GL1 6037  12.456   1.059  11.054 -0.1752  0.0658 -0.0684
  378loPI   GL2 6038  12.181   0.901  11.001  0.1027  0.0013 -0.2873
  378loPI   C1A 6039  12.515   1.020  10.640  0.1710  0.0789 -0.0090
  378loPI   C2A 6040  12.385   1.037  10.254  0.2356 -0.1221 -0.0269
  378loPI   C3A 6041  12.430   1.046   9.825  0.2309 -0.2939 -0.0014
  378loPI   C4A 6042  12.474   0.876   9.515 -0.0997  0.0837  0.0295
  378loPI   C5A 6043  12.521   0.839   9.091  0.0584  0.0489  0.0116
  378loPI   C6A 6044  12.468   0.951   8.787  0.0722 -0.1720 -0.0256
  378loPI   C1B 6045  11.928   0.994  10.661 -0.0613  0.5207  0.0099
  378loPI   C2B 6046  11.888   0.968  10.222  0.3709  0.2216 -0.2289
  378loPI   C3B 6047  11.874   0.861   9.771  0.3584 -0.2311  0.2626
  378loPI   C4B 6048  11.943   0.746   9.343  0.0513  0.0317  0.0174
  379loPI    C1 6049  11.999   4.543  11.768  0.0891  0.2688 -0.0515
  379loPI    C2 6050  12.266   4.392  12.025  0.0005  0.1385 -0.0352
  379loPI    C3 6051  12.169   4.780  12.042 -0.0404  0.1208  0.1594
  379loPI   PO4 6052  12.018   4.490  11.566  0.1683  0.0482  0.0846
  379loPI   GL1 6053  11.935   4.346  11.129 -0.4050 -0.1489 -0.1658
  379loPI   GL2 6054  11.819   4.632  11.074 -0.0100  0.1994 -0.0384
  379loPI   C1A 6055  12.180   4.163  10.831  0.0347 -0.0832 -0.1938
  379loPI   C2A 6056  12.184   4.128  10.453  0.0475 -0.4832  0.2395
  379loPI   C3A 6057  12.256   4.178  10.041 -0.1031  0.1184  0.0943
  379loPI   C4A 6058  12.166   4.171   9.615  0.0748  0.2273  0.0423
  379loPI   C5A 6059  12.122   4.023   9.218  0.1023 -0.1239 -0.2178
  379loPI   C6A 6060  11.907   4.253   8.879  0.0724  0.0122  0.0114
  379loPI   C1B 6061  11.821   4.582  10.672 -0.0496  0.2099 -0.0588
  379loPI   C2B 6062  11.904   4.595  10.183  0.3278 -0.0632  0.0482
  379loPI   C3B 6063  11.892   4.565   9.685 -0.2304 -0.1129 -0.2063
  379loPI   C4B 6064  11.679   4.458   9.327 -0.3411 -0.4476  0.0748
  380loPI    C1 6065   1.286   8.557  11.522 -0.3377  0.2526 -0.0295
  380loPI    C2 6066   1.620   8.619  11.733 -0.3350  0.0955  0.0136
  380loPI    C3 6067   1.376   8.317  11.829 -0.4126  0.1173 -0.1124
  380loPI   PO4 6068   1.258   8.646  11.217 -0.0764 -0.0266 -0.0288
  380loPI   GL1 6069   1.579   8.544  10.894 -0.0775  0.0757  0.2586
  380loPI   GL2 6070   1.332   8.611  10.733 -0.0770  0.4202 -0.1388
  380loPI   C1A 6071   1.775   8.549  10.547  0.1969 -0.1116 -0.1079
  380loPI   C2A 6072   1.780   8.597  10.085 -0.0838 -0.1047 -0.0071
  380loPI   C3A 6073   1.795   8.626   9.644  0.0953  0.2226 -0.0856
  380loPI   C4A 6074   1.943   8.661   9.228  0.0425 -0.0651 -0.0735
  380loPI   C5A 6075   1.734   8.488   8.916 -0.1333 -0.0653  0.1507
  380loPI   C6A 6076   1.398   8.543   8.702 -0.0947  0.1960 -0.1145
  380loPI   C1B 6077   1.263   8.473  10.410 -0.1232 -0.0314  0.0975
  380loPI   C2B 6078   1.223   8.442  10.053 -0.1709 -0.1203 -0.5544
  380loPI   C3B 6079   1.053   8.727   9.853 -0.1186 -0.3973  0.5145
  380loPI   C4B 6080   0.854   8.754   9.446 -0.1356  0.2866  0.1290
  381loPI    C1 6081  10.599   6.657  11.560 -0.1063  0.0327 -0.0315
  381loPI    C2 6082  10.934   6.754  11.757  0.0064 -0.1249 -0.1428
  381loPI    C3 6083  10.616   6.617  11.958  0.0089  0.0217 -0.0372
  381loPI   PO4 6084  10.631   6.434  11.396  0.0922 -0.0397 -0.0412
  381loPI   GL1 6085  10.773   6.442  11.051 -0.1034 -0.2008 -0.1652
  381loPI   GL2 6086  10.832   6.645  10.899  0.2269 -0.4010 -0.2036
  381loPI   C1A 6087  11.053   6.324  10.624  0.1375  0.0256 -0.1740
  381loPI   C2A 6088  11.121   6.298  10.228 -0.1042 -0.0549  0.0293
  381loPI   C3A 6089  10.900   6.260   9.808  0.0245 -0.0672 -0.0595
  381loPI   C4A 6090  11.060   6.127   9.354  0.4020  0.0136 -0.0498
  381loPI   C5A 6091  11.362   6.013   9.006  0.0900 -0.3494 -0.2091
  381loPI   C6A 6092  11.734   5.675   8.931  0.1288  0.1295  0.1161
  381loPI   C1B 6093  10.756   6.725  10.476  0.1176 -0.1201 -0.0030
  381loPI   C2B 6094  10.704   6.686  10.077 -0.0111  0.1180  0.0248
  381loPI   C3B 6095  10.627   6.654   9.642  0.0383  0.0550 -0.0546
  381loPI   C4B 6096  10.715   6.749   9.140  0.2402 -0.0754 -0.1714
  382loPI    C1 6097  16.254   8.707  11.934  0.1835  0.1130 -0.0982
  382loPI    C2 6098  16.237   8.312  11.869 -0.0293  0.0853  0.1102
  382loPI    C3 6099  16.471   8.458  12.160 -0.1361  0.0911  0.1937
  382loPI   PO4 6100  16.389   8.738  11.629  0.4558  0.0988  0.0105
  382loPI   GL1 6101  16.298   8.937  11.283 -0.2105  0.2921 -0.0743
  382loPI   GL2 6102  16.414   8.639  11.029 -0.1347  0.2990  0.0223
  382loPI   C1A 6103  16.044   8.937  10.918 -0.0835  0.0142 -0.1688
  382loPI   C2A 6104  15.856   8.965  10.557  0.1818  0.0347 -0.2831
  382loPI   C3A 6105  15.909   8.989  10.097  0.0358 -0.3204 -0.1442
  382loPI   C4A 6106  15.865   8.925   9.624 -0.3112  0.1244  0.1328
  382loPI   C5A 6107  15.965   8.956   9.134 -0.2354  0.0455 -0.2000
  382loPI   C6A 6108  16.093   9.146   8.867  0.2010 -0.3766  0.1511
  382loPI   C1B 6109  16.278   8.562  10.585  0.1102  0.0687  0.1618
  382loPI   C2B 6110  16.231   8.602  10.162 -0.4053  0.0833 -0.1012
  382loPI   C3B 6111  16.221   8.548   9.677  0.1358 -0.4339 -0.1218
  382loPI   C4B 6112  16.187   8.528   9.304  0.0333  0.2486  0.1905
  383loPI    C1 6113  11.249   4.114  11.717  0.2026 -0.3743 -0.3194
  383loPI    C2 6114  11.115   3.849  11.985  0.0661  0.0260  0.0193
  383loPI    C3 6115  11.445   4.062  12.062  0.0403  0.1264 -0.1436
  383loPI   PO4 6116  11.156   4.017  11.427  0.0119  0.0062 -0.4332
  383loPI   GL1 6117  11.524   4.019  11.213  0.4048  0.0361 -0.2179
  383loPI   GL2 6118  11.396   3.651  11.125  0.0307 -0.2139  0.1602
  383loPI   C1A 6119  11.648   4.077  10.856 -0.3723 -0.0603 -0.1537
  383loPI   C2A 6120  11.711   4.176  10.466  0.1950  0.3175  0.1160
  383loPI   C3A 6121  11.727   4.122  10.066  0.3269 -0.1158  0.1545
  383loPI   C4A 6122  11.612   4.084   9.690  0.1232 -0.1964  0.0459
  383loPI   C5A 6123  11.606   3.995   9.274 -0.0131 -0.2891  0.2895
  383loPI   C6A 6124  11.636   3.810   8.827 -0.1424  0.0331 -0.1922
  383loPI   C1B 6125  11.439   3.654  10.636  0.1270  0.0922 -0.0683
  383loPI   C2B 6126  11.424   3.637  10.206  0.1854  0.1457  0.0150
  383loPI   C3B 6127  11.411   3.677   9.742 -0.1834  0.2829 -0.3032
  383loPI   C4B 6128  11.440   3.550   9.406 -0.1966  0.0086  0.1926
  384loPI    C1 6129   2.796   3.030  11.556  0.2422  0.0140 -0.0004
  384loPI    C2 6130   2.737   2.750  11.835 -0.2200 -0.0414 -0.1446
  384loPI    C3 6131   2.670   3.135  11.921  0.1805  0.0052 -0.0190
  384loPI   PO4 6132   2.627   3.044  11.373 -0.0076  0.3075 -0.1446
  384loPI   GL1 6133   2.519   2.818  11.001 -0.2437  0.2366 -0.3195
  384loPI   GL2 6134   2.180   2.839  11.169  0.1882  0.0829 -0.0421
  384loPI   C1A 6135   2.240   2.645  10.629  0.1697 -0.0503 -0.1430
  384loPI   C2A 6136   2.315   2.767  10.228  0.0933  0.0772 -0.1190
  384loPI   C3A 6137   2.373   2.719   9.789  0.1814 -0.0802 -0.2643
  384loPI   C4A 6138   2.204   2.701   9.296  0.2476 -0.0877 -0.0767
  384loPI   C5A 6139   2.345   2.906   8.909  0.0545 -0.0267 -0.0958
  384loPI   C6A 6140   2.777   3.011   8.772  0.1968  0.1110  0.1375
  384loPI   C1B 6141   2.003   3.030  10.827  0.1736 -0.0058 -0.1906
  384loPI   C2B 6142   2.013   3.095  10.402 -0.1333  0.1797 -0.0834
  384loPI   C3B 6143   1.955   3.164   9.981 -0.2064 -0.0347 -0.6381
  384loPI   C4B 6144   1.991   3.135   9.418 -0.1146  0.0539  0.0045
  385loPI    C1 6145  12.766  14.383  11.507 -0.1069  0.2283 -0.0156
  385loPI    C2 6146  13.093  14.593  11.603 -0.0740  0.1382  0.0703
  385loPI    C3 6147  12.743  14.677  11.778 -0.0101 -0.0378  0.2869
  385loPI   PO4 6148  12.719  14.457  11.258 -0.1307 -0.0838  0.0481
  385loPI   GL1 6149  12.715  14.327  10.838 -0.0180  0.3907 -0.0510
  385loPI   GL2 6150  12.391  14.316  10.845 -0.3772 -0.1246 -0.1163
  385loPI   C1A 6151  12.766  14.306  10.397 -0.0055  0.2384 -0.2846
  385loPI   C2A 6152  12.869  14.236   9.841  0.0624 -0.1452  0.1305
  385loPI   C3A 6153  12.707  14.207   9.427 -0.1677 -0.2322  0.0020
  385loPI   C4A 6154  12.614  13.912   9.098 -0.1039 -0.1534 -0.4473
  385loPI   C5A 6155  12.486  13.599   8.746  0.0093  0.1486 -0.2435
  385loPI   C6A 6156  12.200  13.319   8.718  0.0419 -0.2670  0.1633
  385loPI   C1B 6157  12.254  14.265  10.505 -0.2522  0.1085 -0.3341
  385loPI   C2B 6158  12.249  14.274  10.081 -0.0828 -0.1929 -0.0684
  385loPI   C3B 6159  12.233  14.135   9.683  0.1023  0.3054  0.0951
  385loPI   C4B 6160  12.118  14.185   9.294 -0.2853 -0.2244  0.1897
  386loPI    C1 6161   3.936   7.035  11.826 -0.0450 -0.0945  0.0519
  386loPI    C2 6162   3.851   6.697  12.022  0.0463 -0.0551  0.1601
  386loPI    C3 6163   3.708   7.046  12.154  0.1266 -0.0257  0.1701
  386loPI   PO4 6164   3.886   7.023  11.593  0.1299  0.1218  0.1082
  386loPI   GL1 6165   3.990   6.823  11.282 -0.0465  0.0095  0.0629
  386loPI   GL2 6166   4.145   7.058  11.113 -0.4242  0.2963  0.0437
  386loPI   C1A 6167   3.968   6.607  10.908  0.1144 -0.4576  0.1372
  386loPI   C2A 6168   3.839   6.505  10.440 -0.1506 -0.0023 -0.1513
  386loPI   C3A 6169   3.858   6.599  10.016 -0.0207 -0.3284 -0.0687
  386loPI   C4A 6170   3.800   6.620   9.547 -0.0430  0.1246  0.4543
  386loPI   C5A 6171   3.791   6.645   9.050  0.1070  0.1261  0.0025
  386loPI   C6A 6172   3.866   6.909   8.724 -0.0609  0.2243  0.0535
  386loPI   C1B 6173   4.085   7.013  10.596  0.4228 -0.1130 -0.3127
  386loPI   C2B 6174   4.038   7.044  10.152  0.0474 -0.2056  0.0259
  386loPI   C3B 6175   4.086   7.027   9.755  0.2783  0.1286  0.2835
  386loPI   C4B 6176   4.082   6.956   9.329 -0.0487 -0.3746 -0.1466
  387loPI    C1 6177   7.804  13.059  11.395 -0.0886 -0.2458  0.0919
  387loPI    C2 6178   7.845  12.951  11.778 -0.0919 -0.1974  0.1060
  387loPI    C3 6179   8.110  12.827  11.505 -0.0029 -0.1057  0.1506
  387loPI   PO4 6180   7.622  13.012  11.331 -0.0685  0.1163  0.2692
  387loPI   GL1 6181   7.506  12.935  10.946  0.0538  0.0272 -0.1357
  387loPI   GL2 6182   7.326  13.195  10.982  0.2290 -0.0597 -0.1763
  387loPI   C1A 6183   7.479  12.991  10.491  0.0849  0.1714 -0.3425
  387loPI   C2A 6184   7.447  13.084  10.086  0.0607 -0.1149  0.0967
  387loPI   C3A 6185   7.460  13.080   9.676  0.2190  0.0059 -0.0002
  387loPI   C4A 6186   7.397  13.051   9.218  0.0386  0.1194  0.0473
  387loPI   C5A 6187   7.747  13.055   8.893 -0.0922  0.1027  0.0659
  387loPI   C6A 6188   8.168  13.274   8.823  0.0188  0.0951  0.0739
  387loPI   C1B 6189   7.174  13.465  10.656 -0.0079  0.0756  0.0565
  387loPI   C2B 6190   7.142  13.527  10.258  0.2979  0.1516 -0.2740
  387loPI   C3B 6191   7.023  13.477   9.847 -0.0977 -0.1454  0.4590
  387loPI   C4B 6192   7.039  13.411   9.388 -0.1820 -0.0104 -0.1462
  388loPI    C1 6193  14.141   7.361  11.804  0.0474 -0.2663 -0.0198
  388loPI    C2 6194  14.445   7.615  11.858 -0.3904  0.2656  0.0359
  388loPI    C3 6195  14.433   7.272  12.063  0.2681  0.1338 -0.1219
  388loPI   PO4 6196  14.018   7.378  11.497  0.1061  0.5417  0.2303
  388loPI   GL1 6197  14.060   7.232  11.005 -0.2622  0.1514 -0.3912
  388loPI   GL2 6198  14.437   7.254  10.969 -0.0323 -0.1144  0.0587
  388loPI   C1A 6199  13.825   7.143  10.612  0.0889  0.1248  0.0330
  388loPI   C2A 6200  13.829   7.095  10.193  0.1152 -0.1231  0.4229
  388loPI   C3A 6201  13.804   7.194   9.719  0.0731 -0.0570 -0.1238
  388loPI   C4A 6202  13.718   7.094   9.311 -0.1317 -0.2042  0.0824
  388loPI   C5A 6203  13.982   7.138   8.872 -0.2555 -0.2195 -0.0359
  388loPI   C6A 6204  14.327   7.424   8.737 -0.3029  0.0009 -0.1117
  388loPI   C1B 6205  14.304   7.279  10.579  0.0861  0.1326  0.0486
  388loPI   C2B 6206  14.322   7.281  10.135  0.3943  0.0292 -0.3177
  388loPI   C3B 6207  14.331   7.293   9.771  0.1329 -0.0030  0.2618
  388loPI   C4B 6208  14.227   7.217   9.361 -0.0315  0.0633 -0.1606
  389loPI    C1 6209  15.744   5.252  11.472  0.1997  0.0810 -0.0454
  389loPI    C2 6210  15.775   5.235  11.870 -0.0140 -0.1391 -0.0359
  389loPI    C3 6211  15.801   5.587  11.683 -0.1392 -0.0055  0.1932
  389loPI   PO4 6212  15.771   4.929  11.472 -0.1570  0.1188 -0.1328
  389loPI   GL1 6213  15.773   4.812  11.070  0.2418 -0.3327 -0.2683
  389loPI   GL2 6214  15.946   5.122  11.018 -0.0005  0.1354  0.2348
  389loPI   C1A 6215  15.767   4.699  10.608 -0.3296 -0.0974  0.1303
  389loPI   C2A 6216  15.672   4.799  10.196 -0.1124 -0.1324 -0.2048
  389loPI   C3A 6217  15.672   4.795   9.726 -0.1941 -0.4391 -0.1176
  389loPI   C4A 6218  15.746   4.809   9.312  0.2287 -0.1495 -0.1390
  389loPI   C5A 6219  15.604   4.924   8.878  0.2633 -0.3477  0.0433
  389loPI   C6A 6220  15.473   5.216   8.622  0.1905  0.2052  0.0452
  389loPI   C1B 6221  15.962   5.204  10.549  0.0851  0.0162 -0.0694
  389loPI   C2B 6222  15.917   5.228  10.087 -0.1199  0.1655 -0.0459
  389loPI   C3B 6223  15.938   5.264   9.676  0.0759  0.1032  0.2104
  389loPI   C4B 6224  15.983   5.241   9.252  0.0654  0.1402 -0.1065
  390loPI    C1 6225   9.415   2.096  11.494  0.0755  0.0267  0.0110
  390loPI    C2 6226   9.374   1.768  11.719  0.0110  0.0270 -0.0002
  390loPI    C3 6227   9.208   2.113  11.836  0.0700  0.0533  0.0064
  390loPI   PO4 6228   9.305   2.032  11.279 -0.0734  0.1405 -0.1528
  390loPI   GL1 6229   9.430   1.901  10.906  0.1243  0.0162 -0.1002
  390loPI   GL2 6230   9.760   1.949  10.939  0.0798 -0.1336 -0.2807
  390loPI   C1A 6231   9.286   1.789  10.450  0.0882 -0.1790 -0.1970
  390loPI   C2A 6232   9.287   1.872  10.063  0.0522  0.0813  0.1279
  390loPI   C3A 6233   9.319   1.791   9.663 -0.2749  0.0570 -0.1364
  390loPI   C4A 6234   9.361   1.760   9.271 -0.0510  0.1853 -0.0251
  390loPI   C5A 6235   9.474   1.735   8.857  0.1263 -0.0738 -0.0524
  390loPI   C6A 6236   9.608   2.086   8.564 -0.1490  0.0927  0.2403
  390loPI   C1B 6237   9.810   1.957  10.510  0.0089  0.2595 -0.1028
  390loPI   C2B 6238   9.764   1.972  10.049 -0.1856 -0.0309 -0.0549
  390loPI   C3B 6239   9.867   1.924   9.552  0.1416  0.0412  0.1024
  390loPI   C4B 6240   9.869   1.903   9.172 -0.1026 -0.1313  0.1683
  391loPI    C1 6241   5.911   3.018  11.453  0.3510 -0.0974  0.0664
  391loPI    C2 6242   5.741   2.671  11.350  0.1093  0.0267  0.0406
  391loPI    C3 6243   5.907   2.712  11.711 -0.1899 -0.0003  0.1835
  391loPI   PO4 6244   6.059   3.083  11.238  0.0877  0.0692  0.2291
  391loPI   GL1 6245   5.859   2.984  10.868  0.0378  0.0690  0.0734
  391loPI   GL2 6246   5.876   3.279  10.681 -0.4875  0.0934 -0.1141
  391loPI   C1A 6247   5.822   2.706  10.458  0.0871  0.1313  0.0587
  391loPI   C2A 6248   5.800   2.704  10.035 -0.0105 -0.0146 -0.0977
  391loPI   C3A 6249   5.831   2.746   9.632  0.0197 -0.0063 -0.2172
  391loPI   C4A 6250   5.893   2.806   9.231  0.0388 -0.0917  0.0254
  391loPI   C5A 6251   5.800   3.040   8.906 -0.0686 -0.0528 -0.1661
  391loPI   C6A 6252   6.034   3.204   8.536 -0.3116  0.1287 -0.0613
  391loPI   C1B 6253   5.977   3.183  10.322  0.2707 -0.1081  0.0483
  391loPI   C2B 6254   6.004   3.220   9.916  0.1475  0.1041 -0.0658
  391loPI   C3B 6255   5.995   3.258   9.461 -0.1882 -0.0295  0.0344
  391loPI   C4B 6256   6.171   3.373   8.957 -0.1463  0.0016  0.3811
  392loPI    C1 6257  14.906   2.626  11.933 -0.0729  0.0933  0.0493
  392loPI    C2 6258  14.728   2.944  11.768 -0.2166 -0.0517 -0.0790
  392loPI    C3 6259  14.514   2.685  11.985 -0.1042 -0.0730  0.0072
  392loPI   PO4 6260  15.047   2.482  11.659  0.2787 -0.0346  0.2737
  392loPI   GL1 6261  14.889   2.439  11.275  0.0896  0.0877  0.1143
  392loPI   GL2 6262  15.011   2.109  11.371 -0.1337  0.0261 -0.0458
  392loPI   C1A 6263  14.855   2.343  10.779 -0.0783  0.0997  0.0983
  392loPI   C2A 6264  14.921   2.412  10.394 -0.1253  0.0858  0.0575
  392loPI   C3A 6265  14.763   2.318   9.891  0.0103 -0.2153 -0.0824
  392loPI   C4A 6266  14.720   2.419   9.407 -0.0568 -0.0652  0.1613
  392loPI   C5A 6267  14.673   2.544   8.929  0.1575  0.0376  0.2553
  392loPI   C6A 6268  14.705   2.996   8.829  0.1273 -0.0488 -0.1232
  392loPI   C1B 6269  15.148   1.963  10.931 -0.1943  0.0612  0.3697
  392loPI   C2B 6270  15.161   1.889  10.429  0.0627 -0.1168 -0.0172
  392loPI   C3B 6271  15.142   1.894  10.025 -0.2132 -0.0083 -0.0303
  392loPI   C4B 6272  15.042   1.986   9.616  0.1270 -0.2146 -0.1982
  393loPI    C1 6273  11.370  13.504  11.691 -0.1455 -0.0346 -0.0623
  393loPI    C2 6274  11.360  13.501  12.091 -0.1215  0.0007 -0.0615
  393loPI    C3 6275  11.239  13.825  11.890  0.1731  0.1061 -0.0742
  393loPI   PO4 6276  11.328  13.323  11.629  0.2025  0.1029 -0.0180
  393loPI   GL1 6277  11.327  13.172  11.245 -0.2580  0.2089  0.3395
  393loPI   GL2 6278  11.463  12.881  11.271 -0.0711 -0.0335 -0.1156
  393loPI   C1A 6279  11.320  13.193  10.834  0.2056  0.2913 -0.6621
  393loPI   C2A 6280  11.345  13.164  10.380  0.1769 -0.2482  0.1118
  393loPI   C3A 6281  11.295  13.116   9.929 -0.1050  0.0725 -0.0969
  393loPI   C4A 6282  11.293  13.224   9.571  0.0209  0.2177  0.1768
  393loPI   C5A 6283  11.403  13.165   9.172  0.3015  0.1518 -0.1207
  393loPI   C6A 6284  11.435  13.118   8.647  0.1314  0.0364 -0.0510
  393loPI   C1B 6285  11.684  12.748  10.837  0.0586 -0.3338  0.0800
  393loPI   C2B 6286  11.658  12.737  10.441 -0.2576 -0.0401  0.1609
  393loPI   C3B 6287  11.598  12.742   9.973 -0.0171 -0.1791 -0.1870
  393loPI   C4B 6288  11.619  12.760   9.509  0.1146  0.3097  0.3166
  394loPI    C1 6289   8.588  12.495  11.860  0.1245  0.0802  0.0355
  394loPI    C2 6290   8.498  12.106  11.833  0.1857  0.0819 -0.2262
  394loPI    C3 6291   8.766  12.232  12.103  0.4023 -0.1007 -0.3525
  394loPI   PO4 6292   8.604  12.534  11.561  0.1016  0.0765  0.0658
  394loPI   GL1 6293   8.609  12.133  11.340 -0.3661  0.1998 -0.2946
  394loPI   GL2 6294   8.898  12.142  11.226  0.1631  0.0060  0.0008
  394loPI   C1A 6295   8.526  12.160  10.872 -0.0327 -0.0850 -0.0510
  394loPI   C2A 6296   8.674  12.288  10.533 -0.0306  0.4853  0.0983
  394loPI   C3A 6297   8.643  12.305  10.080 -0.0062  0.1219  0.2820
  394loPI   C4A 6298   8.459  12.309   9.640  0.0176 -0.1899  0.1017
  394loPI   C5A 6299   8.479  12.354   9.239  0.1457  0.0252 -0.1109
  394loPI   C6A 6300   8.384  12.321   8.860  0.2409  0.0255  0.0543
  394loPI   C1B 6301   9.047  12.300  10.892 -0.0963 -0.0204  0.0642
  394loPI   C2B 6302   9.132  12.352  10.475  0.3745 -0.2715 -0.2140
  394loPI   C3B 6303   9.143  12.437  10.060  0.1814 -0.2085 -0.0509
  394loPI   C4B 6304   8.970  12.414   9.532 -0.1759 -0.0990 -0.2079
  395loPI    C1 6305  10.163  12.243  11.437  0.2021  0.0386 -0.0488
  395loPI    C2 6306  10.011  12.000  11.716  0.1628 -0.2034 -0.2772
  395loPI    C3 6307  10.400  12.094  11.723  0.1343 -0.0946 -0.0612
  395loPI   PO4 6308  10.017  12.114  11.204  0.2483 -0.0992  0.2991
  395loPI   GL1 6309  10.240  12.192  10.919  0.0846 -0.0790  0.0399
  395loPI   GL2 6310  10.551  12.091  10.846  0.1024  0.1496 -0.0207
  395loPI   C1A 6311   9.928  12.031  10.600  0.0933  0.3979 -0.0168
  395loPI   C2A 6312   9.969  12.008  10.193 -0.0146  0.1881  0.2228
  395loPI   C3A 6313   9.845  12.051   9.808 -0.1580  0.1351 -0.1408
  395loPI   C4A 6314   9.925  12.115   9.401  0.0851  0.1989  0.0420
  395loPI   C5A 6315   9.885  12.021   8.937  0.0148  0.0909 -0.2938
  395loPI   C6A 6316   9.911  11.946   8.511 -0.1555 -0.0619 -0.1402
  395loPI   C1B 6317  10.449  12.118  10.408 -0.0332  0.2389 -0.4091
  395loPI   C2B 6318  10.389  12.088   9.934 -0.4404 -0.2718 -0.5060
  395loPI   C3B 6319  10.443  12.105   9.540 -0.0852  0.0852  0.2528
  395loPI   C4B 6320  10.335  12.034   9.139 -0.2922  0.0890 -0.1224
  396loPI    C1 6321  11.343   9.244  11.665 -0.1188  0.0803 -0.1264
  396loPI    C2 6322  11.536   9.376  11.989 -0.0725 -0.2026 -0.0356
  396loPI    C3 6323  11.219   9.137  12.030 -0.3254  0.0990 -0.1899
  396loPI   PO4 6324  11.413   9.428  11.468 -0.2675 -0.0938 -0.0362
  396loPI   GL1 6325  11.392   9.384  11.050  0.2081 -0.2563 -0.0753
  396loPI   GL2 6326  11.320   9.702  11.029 -0.1084  0.3441  0.1391
  396loPI   C1A 6327  11.357   9.447  10.576  0.0169  0.5604 -0.2434
  396loPI   C2A 6328  11.405   9.383  10.180  0.1985 -0.0524  0.0246
  396loPI   C3A 6329  11.392   9.463   9.741  0.2028  0.4429  0.1479
  396loPI   C4A 6330  11.391   9.488   9.355  0.3064 -0.0204 -0.1892
  396loPI   C5A 6331  11.107   9.756   9.007 -0.0300  0.1364  0.2269
  396loPI   C6A 6332  11.182   9.795   8.560 -0.4988  0.0127  0.1838
  396loPI   C1B 6333  11.061   9.944  10.689  0.0605 -0.0135  0.1786
  396loPI   C2B 6334  11.014   9.970  10.250 -0.0381 -0.1280 -0.0860
  396loPI   C3B 6335  10.934   9.878   9.853  0.1815 -0.0529  0.0941
  396loPI   C4B 6336  11.102   9.890   9.517 -0.0580 -0.0120 -0.1532
  397loPI    C1 6337   8.797   2.342  11.681  0.1986 -0.0243  0.0153
  397loPI    C2 6338   8.715   2.011  11.890 -0.0936  0.1536  0.1897
  397loPI    C3 6339   8.638   2.371  12.047 -0.0561  0.2979 -0.1160
  397loPI   PO4 6340   8.776   2.245  11.416 -0.3279  0.1107 -0.3779
  397loPI   GL1 6341   8.740   2.199  11.081 -0.0262  0.1075 -0.0344
  397loPI   GL2 6342   9.060   2.296  10.972 -0.0523 -0.0474 -0.0170
  397loPI   C1A 6343   8.533   2.121  10.761  0.3153 -0.0138  0.1231
  397loPI   C2A 6344   8.506   2.146  10.274  0.0801  0.0916  0.4559
  397loPI   C3A 6345   8.425   2.240   9.777  0.3419  0.0676 -0.1900
  397loPI   C4A 6346   8.491   2.263   9.302 -0.1419  0.1240 -0.1167
  397loPI   C5A 6347   8.584   1.989   8.969 -0.0571  0.0545  0.0914
  397loPI   C6A 6348   8.886   1.694   8.819  0.0699  0.2631 -0.0056
  397loPI   C1B 6349   9.006   2.262  10.498  0.0500  0.0962  0.1572
  397loPI   C2B 6350   8.972   2.316  10.042 -0.1117 -0.2062 -0.1774
  397loPI   C3B 6351   8.922   2.298   9.668 -0.1226 -0.0772 -0.2312
  397loPI   C4B 6352   8.960   2.161   9.227 -0.1817  0.0767 -0.1313
  398loPI    C1 6353  10.483   2.796  11.764 -0.0145  0.0085 -0.0878
  398loPI    C2 6354  10.472   3.146  11.571  0.0775  0.0689  0.0150
  398loPI    C3 6355  10.178   3.048  11.824  0.0448  0.0658 -0.0241
  398loPI   PO4 6356  10.590   2.689  11.549 -0.1996 -0.1145  0.2934
  398loPI   GL1 6357  10.407   2.541  11.145 -0.1900  0.1898 -0.2470
  398loPI   GL2 6358  10.076   2.340  10.998 -0.2683  0.1311 -0.1324
  398loPI   C1A 6359  10.550   2.596  10.674  0.2643 -0.1105  0.1515
  398loPI   C2A 6360  10.628   2.549  10.174 -0.0777  0.0917  0.1174
  398loPI   C3A 6361  10.560   2.494   9.661 -0.0102  0.0438  0.2749
  398loPI   C4A 6362  10.577   2.510   9.283  0.2773  0.3767  0.2775
  398loPI   C5A 6363  10.719   2.729   9.054 -0.0511  0.1520 -0.5047
  398loPI   C6A 6364  10.768   3.132   8.954  0.3630 -0.1157  0.2589
  398loPI   C1B 6365   9.964   2.402  10.544 -0.0286 -0.1540 -0.2629
  398loPI   C2B 6366   9.956   2.416  10.121 -0.0153  0.4612  0.2074
  398loPI   C3B 6367   9.948   2.390   9.736  0.1998 -0.2019  0.1020
  398loPI   C4B 6368  10.072   2.355   9.345 -0.1516 -0.0472 -0.2203
  399loPI    C1 6369   2.981  12.625  11.729 -0.1133 -0.0647 -0.0127
  399loPI    C2 6370   3.139  12.981  11.821  0.0065 -0.1891  0.2758
  399loPI    C3 6371   2.865  12.816  12.061 -0.1734 -0.2165  0.0546
  399loPI   PO4 6372   3.124  12.574  11.514 -0.1116  0.0798 -0.1228
  399loPI   GL1 6373   3.128  12.648  11.060  0.1915  0.2660 -0.2384
  399loPI   GL2 6374   3.349  12.412  11.053 -0.0364  0.1614  0.1278
  399loPI   C1A 6375   3.418  12.933  10.822 -0.2348 -0.2596 -0.1128
  399loPI   C2A 6376   3.359  12.974  10.321 -0.1114  0.0753  0.0733
  399loPI   C3A 6377   3.433  12.919   9.893 -0.2430  0.0915  0.2569
  399loPI   C4A 6378   3.457  12.954   9.411 -0.2802  0.0777 -0.2597
  399loPI   C5A 6379   3.623  13.005   9.057 -0.2177  0.1118 -0.1655
  399loPI   C6A 6380   3.593  12.771   8.733  0.0136 -0.0975  0.1940
  399loPI   C1B 6381   3.381  12.444  10.546  0.2880 -0.2160  0.2238
  399loPI   C2B 6382   3.282  12.492  10.088  0.0561 -0.0591  0.0512
  399loPI   C3B 6383   3.300  12.444   9.645 -0.2129  0.3112  0.1285
  399loPI   C4B 6384   3.307  12.470   9.159  0.2675 -0.0026  0.1997
  400loPI    C1 6385   0.874   7.155  11.958 -0.2001  0.1533  0.0023
  400loPI    C2 6386   0.522   6.990  12.054 -0.1343  0.0697  0.1024
  400loPI    C3 6387   0.862   6.808  12.158 -0.0594  0.3261  0.3165
  400loPI   PO4 6388   0.857   7.195  11.701 -0.0436 -0.0685  0.1316
  400loPI   GL1 6389   0.758   7.212  11.277  0.1337  0.2243 -0.0673
  400loPI   GL2 6390   0.707   6.931  11.136 -0.2663  0.0499  0.0427
  400loPI   C1A 6391   0.820   7.455  10.956  0.1040 -0.0858 -0.1263
  400loPI   C2A 6392   0.858   7.496  10.493 -0.1564 -0.5417 -0.0031
  400loPI   C3A 6393   0.834   7.457  10.007  0.0360 -0.0241  0.1361
  400loPI   C4A 6394   0.864   7.571   9.552 -0.1580 -0.0854  0.0911
  400loPI   C5A 6395   0.991   7.899   9.186 -0.1255  0.0775 -0.0701
  400loPI   C6A 6396   1.314   8.023   9.016  0.1161 -0.2679  0.0506
  400loPI   C1B 6397   0.666   6.973  10.723 -0.3035 -0.0425  0.2006
  400loPI   C2B 6398   0.596   7.097  10.310 -0.1308 -0.0334 -0.0327
  400loPI   C3B 6399   0.666   6.899  10.004  0.0464  0.1488 -0.1283
  400loPI   C4B 6400   0.667   7.027   9.618  0.4510 -0.0858  0.3245
  401loPI    C1 6401   5.174   9.962  11.935  0.0128  0.0719  0.1316
  401loPI    C2 6402   5.360  10.293  12.060  0.0825 -0.0400  0.3284
  401loPI    C3 6403   5.518   9.934  12.137  0.1371 -0.1136 -0.1009
  401loPI   PO4 6404   5.095  10.065  11.613 -0.1047  0.2055  0.0297
  401loPI   GL1 6405   5.067   9.857  11.254  0.0658 -0.0746  0.0528
  401loPI   GL2 6406   5.085   9.604  11.186  0.0696  0.2624 -0.1942
  401loPI   C1A 6407   5.174  10.071  10.937  0.2100  0.0311  0.2553
  401loPI   C2A 6408   5.282   9.977  10.586  0.0685 -0.1989 -0.1948
  401loPI   C3A 6409   5.208   9.999  10.165  0.1956 -0.2578  0.1328
  401loPI   C4A 6410   5.275  10.060   9.753  0.1106  0.0135  0.1029
  401loPI   C5A 6411   5.349  10.073   9.321 -0.0711  0.0087 -0.2459
  401loPI   C6A 6412   5.416   9.905   8.989 -0.3111  0.3998 -0.2231
  401loPI   C1B 6413   5.081   9.545  10.747 -0.1120 -0.0566 -0.2345
  401loPI   C2B 6414   4.981   9.467  10.371 -0.2878  0.1275  0.1987
  401loPI   C3B 6415   5.092   9.560   9.915  0.1830  0.2280 -0.1296
  401loPI   C4B 6416   5.157   9.635   9.427  0.0787  0.0717  0.5175
  402loPI    C1 6417  12.891   1.037  11.728 -0.0920 -0.0400 -0.0295
  402loPI    C2 6418  12.544   0.864  11.825 -0.0706  0.0139  0.1460
  402loPI    C3 6419  12.748   1.071  12.100  0.0378  0.0902  0.0093
  402loPI   PO4 6420  12.869   1.000  11.415  0.3794 -0.0477 -0.2172
  402loPI   GL1 6421  12.937   1.211  11.102 -0.1963 -0.2616 -0.0510
  402loPI   GL2 6422  13.307   1.206  11.131  0.0225  0.3013 -0.2476
  402loPI   C1A 6423  12.971   1.118  10.710 -0.0378 -0.1118 -0.0888
  402loPI   C2A 6424  12.913   1.143  10.255  0.1917 -0.1164 -0.1038
  402loPI   C3A 6425  12.936   1.061   9.862 -0.1499 -0.2423  0.1356
  402loPI   C4A 6426  12.978   0.973   9.454 -0.3161  0.0549  0.1537
  402loPI   C5A 6427  13.016   0.820   9.005 -0.0243 -0.1640  0.0230
  402loPI   C6A 6428  12.989   0.735   8.522 -0.2608 -0.2320 -0.1600
  402loPI   C1B 6429  13.404   1.336  10.795  0.0653  0.0230  0.1175
  402loPI   C2B 6430  13.390   1.250  10.453  0.0634 -0.1454 -0.0293
  402loPI   C3B 6431  13.382   1.140  10.058 -0.1299  0.1342  0.0003
  402loPI   C4B 6432  13.426   1.077   9.690 -0.0634 -0.0277 -0.1268
  403loPI    C1 6433   7.683   4.727  11.752 -0.1599  0.3432  0.0353
  403loPI    C2 6434   7.958   4.736  12.042 -0.0625 -0.0838 -0.0369
  403loPI    C3 6435   7.592   4.885  12.108  0.0286  0.0285  0.2279
  403loPI   PO4 6436   7.796   4.652  11.441  0.0977 -0.2636 -0.3039
  403loPI   GL1 6437   8.011   4.335  11.182 -0.0315 -0.2041 -0.0481
  403loPI   GL2 6438   7.924   4.027  11.048  0.3334 -0.0104  0.1008
  403loPI   C1A 6439   7.957   4.508  10.821  0.1429 -0.1590  0.3049
  403loPI   C2A 6440   7.918   4.430  10.413 -0.1405 -0.2902  0.1902
  403loPI   C3A 6441   7.913   4.403  10.027  0.0934  0.0159 -0.0828
  403loPI   C4A 6442   7.898   4.405   9.545  0.0655 -0.0354 -0.4948
  403loPI   C5A 6443   7.832   4.448   9.194 -0.3039  0.1797  0.1169
  403loPI   C6A 6444   8.087   4.352   8.806 -0.2422  0.1408 -0.1352
  403loPI   C1B 6445   7.717   4.053  10.671  0.0575  0.0102 -0.1582
  403loPI   C2B 6446   7.762   3.851  10.261  0.3215  0.1820 -0.1195
  403loPI   C3B 6447   7.731   3.959   9.898 -0.1704 -0.2031  0.0536
  403loPI   C4B 6448   7.679   3.982   9.533  0.1303 -0.0570  0.2735
  404loPI    C1 6449   9.980   5.550  11.808  0.2393  0.0920 -0.0508
  404loPI    C2 6450  10.356   5.573  11.942  0.2162 -0.0518  0.0413
  404loPI    C3 6451  10.051   5.628  12.194  0.1742 -0.0625 -0.0070
  404loPI   PO4 6452   9.975   5.636  11.614  0.2439 -0.0214 -0.3308
  404loPI   GL1 6453  10.116   5.691  11.226  0.2613  0.3846  0.0342
  404loPI   GL2 6454   9.835   5.748  11.098 -0.1653 -0.1037 -0.2603
  404loPI   C1A 6455  10.389   5.738  10.872 -0.0507 -0.0040 -0.2082
  404loPI   C2A 6456  10.357   5.774  10.390 -0.3259 -0.0727 -0.2002
  404loPI   C3A 6457  10.371   5.686   9.966 -0.1078 -0.0250 -0.3311
  404loPI   C4A 6458  10.259   5.766   9.534  0.3117  0.2597 -0.0149
  404loPI   C5A 6459  10.214   5.645   9.122  0.0925  0.2564  0.0825
  404loPI   C6A 6460  10.157   5.823   8.686  0.0281 -0.1469 -0.0655
  404loPI   C1B 6461   9.918   5.705  10.756 -0.0850  0.0921  0.1149
  404loPI   C2B 6462   9.891   5.663  10.340 -0.4465  0.0387 -0.1103
  404loPI   C3B 6463   9.777   5.660   9.907  0.3091 -0.0538  0.2146
  404loPI   C4B 6464   9.799   5.621   9.427 -0.1730  0.1922  0.1298
  405loPI    C1 6465   1.195   3.512  11.815 -0.5608  0.0515  0.0835
  405loPI    C2 6466   1.164   3.189  12.049 -0.0264 -0.0681  0.0020
  405loPI    C3 6467   1.422   3.480  12.142 -0.1207  0.0863 -0.2102
  405loPI   PO4 6468   1.157   3.427  11.621 -0.2295  0.0302 -0.1296
  405loPI   GL1 6469   1.299   3.538  11.208 -0.0445  0.1667 -0.2500
  405loPI   GL2 6470   0.992   3.559  11.133 -0.1244 -0.1514  0.0725
  405loPI   C1A 6471   1.318   3.331  10.838  0.0938  0.1171 -0.0857
  405loPI   C2A 6472   1.226   3.451  10.469  0.0501 -0.1672  0.0149
  405loPI   C3A 6473   1.127   3.439  10.056  0.1389 -0.2395 -0.1317
  405loPI   C4A 6474   1.256   3.465   9.667  0.2398 -0.0845  0.1583
  405loPI   C5A 6475   1.131   3.520   9.262 -0.3089 -0.0897 -0.2035
  405loPI   C6A 6476   1.280   3.861   8.961 -0.2026 -0.2919 -0.2225
  405loPI   C1B 6477   0.910   3.786  10.779 -0.2849 -0.1521 -0.1555
  405loPI   C2B 6478   0.883   3.819  10.324 -0.0678 -0.0403  0.0475
  405loPI   C3B 6479   0.753   3.775   9.874  0.0743  0.2706 -0.2050
  405loPI   C4B 6480   0.791   3.874   9.469  0.0473 -0.5138  0.3858
  406loPI    C1 6481  17.075   2.830  11.870  0.1231  0.2918 -0.2122
  406loPI    C2 6482  17.349   2.996  12.110  0.1146  0.1809 -0.1248
  406loPI    C3 6483  17.345   2.599  12.055 -0.2474  0.1398  0.1574
  406loPI   PO4 6484  16.998   2.991  11.716  0.1423 -0.0570  0.2788
  406loPI   GL1 6485  17.007   2.921  11.302  0.1029 -0.2157 -0.3107
  406loPI   GL2 6486  16.742   2.795  11.101 -0.2073  0.0377  0.1342
  406loPI   C1A 6487  17.029   3.188  10.902 -0.0577  0.2357  0.0143
  406loPI   C2A 6488  17.068   3.046  10.494 -0.0789 -0.2115 -0.3488
  406loPI   C3A 6489  17.020   3.109  10.125 -0.4392  0.0996  0.0048
  406loPI   C4A 6490  16.967   3.113   9.725  0.0209  0.1301  0.0187
  406loPI   C5A 6491  16.893   3.132   9.335  0.0123 -0.1520 -0.1588
  406loPI   C6A 6492  17.036   3.142   8.978  0.1847 -0.2217 -0.1446
  406loPI   C1B 6493  16.881   2.629  10.683 -0.2644  0.2388 -0.0404
  406loPI   C2B 6494  16.919   2.554  10.308  0.2554 -0.1139 -0.1730
  406loPI   C3B 6495  16.789   2.685   9.892 -0.1416 -0.0652  0.2801
  406loPI   C4B 6496  16.694   2.623   9.425  0.2808  0.2559 -0.0187
  407loPI    C1 6497   3.389   5.211  11.828  0.0467  0.0404 -0.2522
  407loPI    C2 6498   3.615   5.385  12.108  0.2088 -0.1433 -0.2663
  407loPI    C3 6499   3.330   5.126  12.215 -0.0149  0.1068 -0.2470
  407loPI   PO4 6500   3.311   5.445  11.668 -0.3476  0.0567 -0.0409
  407loPI   GL1 6501   3.301   5.403  11.130 -0.0838 -0.1355  0.0761
  407loPI   GL2 6502   2.994   5.457  10.997 -0.1457 -0.2501 -0.0141
  407loPI   C1A 6503   3.467   5.590  10.770  0.0883  0.0849  0.2261
  407loPI   C2A 6504   3.533   5.530  10.322 -0.1756 -0.0626 -0.3000
  407loPI   C3A 6505   3.497   5.619   9.852  0.1864  0.2621 -0.1941
  407loPI   C4A 6506   3.399   5.629   9.363 -0.0299 -0.1926  0.2583
  407loPI   C5A 6507   3.159   5.394   9.114  0.1613 -0.3768  0.0279
  407loPI   C6A 6508   2.967   5.375   8.741  0.0097 -0.0999  0.2546
  407loPI   C1B 6509   3.013   5.453  10.514  0.0493 -0.1490 -0.0494
  407loPI   C2B 6510   3.049   5.518  10.174 -0.1644 -0.1141  0.2457
  407loPI   C3B 6511   3.021   5.526   9.779  0.1206  0.0420  0.3139
  407loPI   C4B 6512   2.832   5.640   9.382  0.0465  0.0562 -0.0599
  408loPI    C1 6513   3.029  16.943  11.521 -0.0676  0.1273 -0.0384
  408loPI    C2 6514   2.901  16.837  11.884  0.2858  0.0419  0.0653
  408loPI    C3 6515   2.870  17.217  11.765  0.1603  0.0687  0.1802
  408loPI   PO4 6516   3.321  16.743  11.545 -0.0124 -0.2335 -0.0050
  408loPI   GL1 6517   3.372  16.468  11.166 -0.0048  0.2635 -0.2199
  408loPI   GL2 6518   3.225  16.748  11.077 -0.0141 -0.1818 -0.0041
  408loPI   C1A 6519   3.501  16.584  10.711 -0.2526 -0.2579  0.0586
  408loPI   C2A 6520   3.489  16.593  10.275  0.1851  0.0450 -0.1160
  408loPI   C3A 6521   3.423  16.567   9.841  0.2714 -0.0334  0.1168
  408loPI   C4A 6522   3.453  16.739   9.420  0.2195 -0.0734  0.2987
  408loPI   C5A 6523   3.601  16.697   9.044 -0.1449 -0.2552  0.1751
  408loPI   C6A 6524   3.763  16.785   8.704 -0.2205  0.0927  0.1029
  408loPI   C1B 6525   3.131  16.975  10.667 -0.2047  0.2170  0.0919
  408loPI   C2B 6526   3.125  17.039  10.279  0.0153  0.0361 -0.0705
  408loPI   C3B 6527   3.094  16.943   9.786  0.1405  0.1642  0.0851
  408loPI   C4B 6528   3.082  17.061   9.410  0.2208 -0.1252  0.2457
  409loPI    C1 6529  14.116   6.357  11.771  0.1449 -0.0013 -0.1351
  409loPI    C2 6530  14.494   6.227  11.780  0.1237 -0.0546 -0.0083
  409loPI    C3 6531  14.315   6.347  12.117 -0.0057 -0.1260 -0.0508
  409loPI   PO4 6532  14.106   6.480  11.530 -0.1125  0.1140  0.3869
  409loPI   GL1 6533  14.010   6.316  11.215  0.0297 -0.1964 -0.1082
  409loPI   GL2 6534  14.360   6.136  11.265  0.0170  0.1596 -0.0663
  409loPI   C1A 6535  13.893   6.245  10.797 -0.0584  0.1511 -0.0791
  409loPI   C2A 6536  13.945   6.288  10.292 -0.0022  0.0032  0.4565
  409loPI   C3A 6537  13.917   6.270   9.785  0.3703  0.1397 -0.2850
  409loPI   C4A 6538  13.945   6.304   9.331  0.1204  0.0442 -0.1440
  409loPI   C5A 6539  14.032   6.104   8.933  0.0796 -0.1811  0.1414
  409loPI   C6A 6540  14.370   5.983   8.624  0.2319  0.1952  0.0252
  409loPI   C1B 6541  14.271   5.950  10.891 -0.1405 -0.0285  0.1242
  409loPI   C2B 6542  14.196   5.906  10.483  0.0894  0.1339 -0.1494
  409loPI   C3B 6543  14.225   5.840  10.049  0.0193 -0.2044  0.0870
  409loPI   C4B 6544  14.206   5.797   9.662 -0.2012  0.0744  0.1792
  410loPI    C1 6545   3.560   9.528  11.596  0.0737  0.1605  0.0586
  410loPI    C2 6546   3.885   9.741  11.502 -0.0784  0.3370 -0.0738
  410loPI    C3 6547   3.718   9.781  11.863  0.2096  0.0354  0.0978
  410loPI   PO4 6548   3.669   9.309  11.417  0.2415  0.0107 -0.0832
  410loPI   GL1 6549   3.782   9.362  11.052  0.1395 -0.1777 -0.2929
  410loPI   GL2 6550   3.461   9.271  10.849 -0.2936 -0.1038 -0.0018
  410loPI   C1A 6551   3.984   9.369  10.723 -0.0486  0.0137  0.0929
  410loPI   C2A 6552   3.967   9.413  10.246  0.0307 -0.1529 -0.1034
  410loPI   C3A 6553   4.037   9.351   9.849 -0.1299  0.1332  0.4060
  410loPI   C4A 6554   4.043   9.347   9.386 -0.0266  0.0719 -0.0558
  410loPI   C5A 6555   3.713   9.491   9.061  0.0140  0.2102 -0.1713
  410loPI   C6A 6556   3.241   9.678   8.918  0.0245 -0.0189  0.0104
  410loPI   C1B 6557   3.520   9.226  10.410  0.1656  0.2213 -0.2502
  410loPI   C2B 6558   3.482   9.363  10.006 -0.0663 -0.2428 -0.0802
  410loPI   C3B 6559   3.580   9.346   9.560 -0.1154  0.0571  0.0818
  410loPI   C4B 6560   3.317   9.198   9.169 -0.3884  0.2344  0.0524
  411loPI    C1 6561   1.355   9.051  11.523 -0.1778 -0.1844  0.3245
  411loPI    C2 6562   1.372   8.988  11.918  0.1793  0.0501  0.3512
  411loPI    C3 6563   1.477   9.343  11.767  0.2117 -0.0920  0.0293
  411loPI   PO4 6564   1.014   9.105  11.334 -0.2825  0.0347 -0.0557
  411loPI   GL1 6565   0.879   8.921  10.931  0.2301  0.3216 -0.0060
  411loPI   GL2 6566   0.596   8.971  10.759 -0.3178 -0.1532 -0.0050
  411loPI   C1A 6567   1.108   9.010  10.525  0.0665  0.1448  0.2692
  411loPI   C2A 6568   1.371   8.912  10.157 -0.1476 -0.2000 -0.4002
  411loPI   C3A 6569   1.510   9.015   9.891 -0.1955 -0.1770  0.0475
  411loPI   C4A 6570   1.525   8.985   9.430 -0.0034 -0.1386 -0.2478
  411loPI   C5A 6571   1.302   8.782   9.209  0.0920  0.1959  0.0509
  411loPI   C6A 6572   1.027   8.431   9.032 -0.1727 -0.1885  0.1671
  411loPI   C1B 6573   0.412   8.919  10.331  0.1442  0.1239 -0.0533
  411loPI   C2B 6574   0.353   8.783   9.908  0.2064 -0.2171  0.1623
  411loPI   C3B 6575   0.373   8.695   9.460  0.0251 -0.2633 -0.1294
  411loPI   C4B 6576   0.348   8.515   9.069  0.0774 -0.1105  0.1255
  412loPI    C1 6577  16.221  13.492  11.929 -0.1237 -0.0364  0.0829
  412loPI    C2 6578  15.887  13.511  11.710 -0.1107  0.1002  0.0739
  412loPI    C3 6579  16.001  13.163  11.872 -0.2008  0.0309 -0.0102
  412loPI   PO4 6580  16.411  13.659  11.697 -0.1253 -0.1569 -0.0923
  412loPI   GL1 6581  16.152  13.900  11.421  0.0175  0.2985 -0.1885
  412loPI   GL2 6582  15.934  13.793  11.306  0.3868  0.0903 -0.1048
  412loPI   C1A 6583  16.437  13.975  11.048 -0.0342 -0.0985  0.3376
  412loPI   C2A 6584  16.491  13.982  10.583  0.1980 -0.1109  0.0522
  412loPI   C3A 6585  16.489  14.038  10.140 -0.3728  0.1307  0.0834
  412loPI   C4A 6586  16.475  14.143   9.652  0.0378  0.0798  0.1245
  412loPI   C5A 6587  16.591  13.951   9.258 -0.1248  0.0430  0.0566
  412loPI   C6A 6588  16.738  13.590   9.110  0.3102 -0.1962  0.0036
  412loPI   C1B 6589  15.951  14.001  10.784 -0.2017  0.0609  0.0993
  412loPI   C2B 6590  16.044  13.989  10.325  0.3687 -0.3055 -0.2552
  412loPI   C3B 6591  16.015  13.896   9.896  0.0504 -0.1619  0.2702
  412loPI   C4B 6592  15.926  13.925   9.425 -0.2100  0.1992 -0.0899
  413loPI    C1 6593   5.723   0.131  11.768  0.0168 -0.1349 -0.0630
  413loPI    C2 6594   5.652   0.458  11.988 -0.0223 -0.0797 -0.1569
  413loPI    C3 6595   5.421   0.134  12.030  0.1335 -0.1632  0.0729
  413loPI   PO4 6596   5.805   0.215  11.561  0.1974  0.0917 -0.2273
  413loPI   GL1 6597   5.682   0.320  11.288  0.0400  0.1216  0.0278
  413loPI   GL2 6598   5.737   0.001  11.051 -0.1252 -0.0627 -0.0732
  413loPI   C1A 6599   5.704   0.532  10.841  0.0348 -0.2084 -0.0811
  413loPI   C2A 6600   5.735   0.458  10.399 -0.0201 -0.1054  0.0320
  413loPI   C3A 6601   5.824   0.472  10.012 -0.0042  0.1212  0.3754
  413loPI   C4A 6602   5.927   0.317   9.568  0.0073  0.3016 -0.2547
  413loPI   C5A 6603   5.863   0.476   9.181 -0.0467  0.0726  0.0742
  413loPI   C6A 6604   5.940   0.208   8.714  0.0290 -0.0789 -0.1325
  413loPI   C1B 6605   5.657   0.038  10.641  0.3636 -0.1445 -0.1430
  413loPI   C2B 6606   5.657   0.001  10.163  0.1295  0.3572  0.1508
  413loPI   C3B 6607   5.601  -0.031   9.736 -0.1410 -0.0161 -0.1081
  413loPI   C4B 6608   5.741  -0.035   9.243  0.1282 -0.2367 -0.0256
  414loPI    C1 6609  15.314  12.577  11.875 -0.0616  0.0089  0.0721
  414loPI    C2 6610  15.425  12.229  12.039  0.0758 -0.0070 -0.0520
  414loPI    C3 6611  15.051  12.363  12.088  0.0199 -0.1756 -0.0097
  414loPI   PO4 6612  15.326  12.635  11.608 -0.0273 -0.0053  0.0077
  414loPI   GL1 6613  15.361  12.496  11.273  0.2966 -0.4973 -0.0542
  414loPI   GL2 6614  15.653  12.658  11.278  0.0179 -0.2868  0.0879
  414loPI   C1A 6615  15.301  12.530  10.855  0.1779 -0.1377  0.3742
  414loPI   C2A 6616  15.384  12.600  10.466  0.1020  0.1515  0.1307
  414loPI   C3A 6617  15.503  12.513  10.084 -0.0157  0.0576  0.0060
  414loPI   C4A 6618  15.320  12.312   9.726 -0.0329  0.3854  0.3015
  414loPI   C5A 6619  15.212  12.183   9.242 -0.0805 -0.0996 -0.0524
  414loPI   C6A 6620  15.298  11.952   8.912 -0.0086  0.1353 -0.0811
  414loPI   C1B 6621  15.885  12.644  10.930 -0.2289  0.2463  0.0294
  414loPI   C2B 6622  15.897  12.659  10.469  0.1344 -0.0053 -0.0583
  414loPI   C3B 6623  15.966  12.585  10.004 -0.2392  0.0576  0.2378
  414loPI   C4B 6624  15.818  12.545   9.587  0.0626 -0.0231  0.0032
  415loPI    C1 6625   8.341  13.753  11.533  0.0645 -0.0463 -0.0398
  415loPI    C2 6626   8.507  13.500  11.795 -0.0733 -0.1409 -0.0425
  415loPI    C3 6627   8.457  13.885  11.892 -0.2749 -0.2100  0.1354
  415loPI   PO4 6628   8.513  13.721  11.350 -0.1851 -0.2548 -0.2532
  415loPI   GL1 6629   8.510  13.459  11.021 -0.0051 -0.1794  0.0506
  415loPI   GL2 6630   8.300  13.539  10.894  0.1719  0.2531  0.1568
  415loPI   C1A 6631   8.735  13.619  10.598 -0.2065  0.0559  0.1670
  415loPI   C2A 6632   8.666  13.683  10.200  0.1428  0.1313 -0.1859
  415loPI   C3A 6633   8.618  13.622   9.786 -0.0322 -0.3046  0.0496
  415loPI   C4A 6634   8.543  13.730   9.375  0.1055  0.4888 -0.0797
  415loPI   C5A 6635   8.430  13.879   9.045 -0.0964  0.0053 -0.0083
  415loPI   C6A 6636   8.550  14.177   8.672  0.0746 -0.1570 -0.0300
  415loPI   C1B 6637   8.208  13.575  10.477 -0.0766 -0.1592  0.0566
  415loPI   C2B 6638   8.129  13.612  10.055  0.2538 -0.0395  0.0667
  415loPI   C3B 6639   8.103  13.667   9.601  0.1459 -0.0686 -0.0503
  415loPI   C4B 6640   8.024  13.523   9.233  0.0859  0.1618  0.1149
  416loPI    C1 6641  11.763  16.138  11.571  0.3131  0.1772  0.2394
  416loPI    C2 6642  11.720  16.097  11.967 -0.1308 -0.0491  0.1744
  416loPI    C3 6643  11.532  16.393  11.775 -0.0935 -0.0712  0.1030
  416loPI   PO4 6644  12.023  16.073  11.467 -0.1937 -0.0927 -0.1063
  416loPI   GL1 6645  12.393  16.205  11.245 -0.0858 -0.3998  0.1595
  416loPI   GL2 6646  12.513  16.448  11.143  0.1417  0.2717  0.1193
  416loPI   C1A 6647  12.372  16.074  10.847 -0.3362 -0.0563  0.2300
  416loPI   C2A 6648  12.409  16.022  10.425 -0.2843  0.1018 -0.0018
  416loPI   C3A 6649  12.510  16.078   9.984 -0.1933 -0.3199 -0.2473
  416loPI   C4A 6650  12.632  16.011   9.542  0.1522 -0.2368  0.0030
  416loPI   C5A 6651  12.593  16.031   9.074 -0.0443 -0.0207  0.0879
  416loPI   C6A 6652  12.508  16.030   8.581  0.2774 -0.0919  0.1668
  416loPI   C1B 6653  12.650  16.611  10.674 -0.1313 -0.0523  0.0703
  416loPI   C2B 6654  12.697  16.608  10.174 -0.1031  0.2215  0.2402
  416loPI   C3B 6655  12.720  16.570   9.747  0.1905 -0.0360  0.2533
  416loPI   C4B 6656  12.771  16.420   9.366 -0.0915 -0.2614  0.1250
  417loPI    C1 6657   5.422  16.650  11.907 -0.1683  0.1730  0.1757
  417loPI    C2 6658   5.821  16.623  11.922 -0.1671  0.1599  0.1235
  417loPI    C3 6659   5.606  16.591  12.258 -0.1284  0.1009  0.1429
  417loPI   PO4 6660   5.442  16.772  11.582  0.0447  0.1690 -0.1813
  417loPI   GL1 6661   5.345  16.927  11.130  0.3256 -0.1456 -0.2663
  417loPI   GL2 6662   5.651  16.669  11.104  0.1205 -0.7115  0.1001
  417loPI   C1A 6663   4.953  16.904  10.934  0.0492  0.2487 -0.0698
  417loPI   C2A 6664   4.933  16.908  10.430 -0.0831  0.2660 -0.2829
  417loPI   C3A 6665   4.873  16.868  10.067  0.0197 -0.0613 -0.0660
  417loPI   C4A 6666   4.937  16.836   9.629  0.1119 -0.0263  0.2984
  417loPI   C5A 6667   4.809  16.706   9.194 -0.4989  0.0075  0.1165
  417loPI   C6A 6668   4.862  16.490   8.833 -0.1287 -0.0982 -0.1251
  417loPI   C1B 6669   5.571  16.889  10.727  0.2954  0.1741  0.2605
  417loPI   C2B 6670   5.431  16.963  10.334  0.0906  0.2111 -0.2208
  417loPI   C3B 6671   5.492  16.926   9.901  0.1064  0.1624 -0.1600
  417loPI   C4B 6672   5.569  16.958   9.505  0.0384 -0.1606  0.2879
  418loPI    C1 6673   8.367   7.534  11.907  0.0472  0.0319  0.3360
  418loPI    C2 6674   8.094   7.257  11.999 -0.0335 -0.0383 -0.0921
  418loPI    C3 6675   8.065   7.625  12.152 -0.0274 -0.2101  0.3368
  418loPI   PO4 6676   8.323   7.488  11.605 -0.1782 -0.2632  0.3655
  418loPI   GL1 6677   8.286   7.331  11.205 -0.2903 -0.1669 -0.0710
  418loPI   GL2 6678   8.076   7.689  11.230  0.1631 -0.4499  0.2551
  418loPI   C1A 6679   8.493   7.228  10.749  0.2720 -0.0831  0.5596
  418loPI   C2A 6680   8.497   7.318  10.300 -0.0639  0.2821  0.2649
  418loPI   C3A 6681   8.573   7.321   9.861  0.2390  0.3076 -0.2954
  418loPI   C4A 6682   8.420   7.284   9.386  0.0369 -0.0091  0.0975
  418loPI   C5A 6683   8.524   7.595   9.086  0.0566 -0.2704  0.1566
  418loPI   C6A 6684   8.720   7.960   9.027  0.1280  0.0958  0.1324
  418loPI   C1B 6685   8.193   7.638  10.784 -0.2309  0.0302  0.2114
  418loPI   C2B 6686   8.208   7.721  10.319  0.1725  0.1040 -0.2235
  418loPI   C3B 6687   8.187   7.686   9.928  0.1233  0.0503 -0.0643
  418loPI   C4B 6688   8.187   7.718   9.419 -0.1866  0.2476 -0.2182
  419loPI    C1 6689  16.230  16.676  12.102 -0.0788 -0.1632  0.0915
  419loPI    C2 6690  16.582  16.684  12.293 -0.1301  0.1968  0.1782
  419loPI    C3 6691  16.277  16.474  12.444  0.0651 -0.1764  0.0645
  419loPI   PO4 6692  16.167  16.612  11.846 -0.2548  0.0668  0.3783
  419loPI   GL1 6693  16.300  16.680  11.452  0.2512  0.1579 -0.1854
  419loPI   GL2 6694  16.447  16.836  11.257 -0.1472  0.0022  0.0917
  419loPI   C1A 6695  16.049  16.703  11.014 -0.0836 -0.3641 -0.1282
  419loPI   C2A 6696  16.060  16.747  10.575 -0.1260  0.3223 -0.3322
  419loPI   C3A 6697  16.083  16.716  10.193  0.0479 -0.0501  0.0350
  419loPI   C4A 6698  16.108  16.769   9.782 -0.1069  0.2035  0.1434
  419loPI   C5A 6699  16.083  16.736   9.349 -0.0948 -0.2050  0.1212
  419loPI   C6A 6700  15.785  16.508   9.095  0.5410 -0.0328  0.0324
  419loPI   C1B 6701  16.596  16.749  10.811 -0.2157  0.0711  0.0215
  419loPI   C2B 6702  16.506  16.820  10.346  0.2866 -0.2863  0.2353
  419loPI   C3B 6703  16.618  16.785   9.988 -0.3344  0.2170 -0.1737
  419loPI   C4B 6704  16.572  16.859   9.528  0.2907  0.2638 -0.0716
  420loPI    C1 6705   7.317   6.886  11.626 -0.0960 -0.1104 -0.1517
  420loPI    C2 6706   7.070   6.988  11.923  0.1272 -0.3307  0.1154
  420loPI    C3 6707   7.353   6.712  11.984  0.3659 -0.1671 -0.2191
  420loPI   PO4 6708   7.176   6.849  11.417  0.0348  0.1724  0.1087
  420loPI   GL1 6709   7.221   6.741  11.013  0.2050 -0.0868 -0.0300
  420loPI   GL2 6710   7.424   6.420  11.052  0.2344 -0.0894  0.1522
  420loPI   C1A 6711   7.290   6.727  10.608 -0.0368  0.2497  0.0993
  420loPI   C2A 6712   7.337   6.716  10.192 -0.0016  0.4154  0.2148
  420loPI   C3A 6713   7.363   6.726   9.802 -0.2248  0.2483 -0.0540
  420loPI   C4A 6714   7.392   6.612   9.431  0.0904  0.0157  0.0282
  420loPI   C5A 6715   7.597   6.605   9.048 -0.4280 -0.3258 -0.1670
  420loPI   C6A 6716   7.474   6.643   8.625  0.0123  0.1256 -0.0508
  420loPI   C1B 6717   7.556   6.263  10.660 -0.0170 -0.0911 -0.1124
  420loPI   C2B 6718   7.557   6.268  10.215 -0.1579 -0.1920  0.1335
  420loPI   C3B 6719   7.669   6.352   9.763 -0.3700  0.2297  0.0304
  420loPI   C4B 6720   7.652   6.199   9.293 -0.0319 -0.1046  0.0527
  421loPI    C1 6721  13.220  16.087  11.653 -0.1032  0.2350  0.0806
  421loPI    C2 6722  13.206  16.038  12.050 -0.0281 -0.0057  0.0547
  421loPI    C3 6723  13.195  16.406  11.894  0.2104  0.1049  0.2914
  421loPI   PO4 6724  13.419  15.974  11.533  0.0060  0.0240  0.1093
  421loPI   GL1 6725  13.579  15.899  11.108 -0.1468 -0.0340 -0.1772
  421loPI   GL2 6726  13.481  16.197  11.114 -0.0236  0.1021  0.0795
  421loPI   C1A 6727  13.725  15.905  10.712  0.0601 -0.3275 -0.1050
  421loPI   C2A 6728  13.831  15.925  10.342 -0.1665  0.1833 -0.0726
  421loPI   C3A 6729  13.925  15.822  10.010 -0.1926  0.0449  0.0830
  421loPI   C4A 6730  13.947  15.871   9.575  0.1242 -0.1288 -0.2617
  421loPI   C5A 6731  13.939  15.857   9.131  0.1997  0.2331 -0.1026
  421loPI   C6A 6732  13.841  15.687   8.679  0.2188  0.0305  0.2679
  421loPI   C1B 6733  13.431  16.327  10.715  0.1886 -0.3566 -0.1248
  421loPI   C2B 6734  13.514  16.335  10.282  0.0473  0.1951 -0.3181
  421loPI   C3B 6735  13.600  16.176   9.824  0.1214  0.1353 -0.0199
  421loPI   C4B 6736  13.620  16.245   9.340  0.4032 -0.0632 -0.0151
  422loPI    C1 6737   1.107   5.900  11.617 -0.1106  0.1055  0.0375
  422loPI    C2 6738   1.196   5.634  11.901 -0.0308 -0.0650 -0.1446
  422loPI    C3 6739   0.847   5.829  11.912 -0.1450 -0.2692 -0.0781
  422loPI   PO4 6740   1.330   5.836  11.494  0.0708 -0.1090  0.0380
  422loPI   GL1 6741   1.133   5.838  11.060 -0.1512 -0.1487  0.1549
  422loPI   GL2 6742   0.982   5.585  10.968  0.0911  0.3292 -0.0241
  422loPI   C1A 6743   1.285   6.103  10.798  0.0641 -0.1400  0.2635
  422loPI   C2A 6744   1.227   6.150  10.285  0.0929 -0.1311  0.1155
  422loPI   C3A 6745   1.264   6.146   9.880 -0.3062  0.0814  0.0367
  422loPI   C4A 6746   1.322   6.218   9.484  0.3004  0.3935 -0.1595
  422loPI   C5A 6747   1.015   6.287   9.123  0.0743  0.0469  0.1480
  422loPI   C6A 6748   1.158   6.610   8.713  0.2513  0.0905 -0.2008
  422loPI   C1B 6749   1.011   5.714  10.522  0.1049  0.0645 -0.0779
  422loPI   C2B 6750   0.997   5.726  10.071  0.1295  0.1834 -0.0075
  422loPI   C3B 6751   1.132   5.626   9.701  0.1607 -0.0224 -0.1169
  422loPI   C4B 6752   1.056   5.700   9.246  0.0387 -0.1885  0.2156
  423loPI    C1 6753   2.512   3.993  11.554  0.1853  0.1295 -0.0299
  423loPI    C2 6754   2.246   4.258  11.693  0.0291  0.0123 -0.1016
  423loPI    C3 6755   2.460   4.035  11.948  0.0245  0.0732 -0.0444
  423loPI   PO4 6756   2.598   4.049  11.398 -0.0510 -0.0833  0.3061
  423loPI   GL1 6757   2.791   3.990  11.031  0.1181  0.1569  0.1016
  423loPI   GL2 6758   2.513   4.047  10.829  0.0632  0.1023 -0.1601
  423loPI   C1A 6759   2.929   4.125  10.598  0.1883 -0.3377 -0.3127
  423loPI   C2A 6760   2.874   4.083  10.176  0.0538 -0.0296  0.2103
  423loPI   C3A 6761   2.883   4.174   9.682  0.0584 -0.1342  0.0776
  423loPI   C4A 6762   2.798   4.203   9.259  0.2746 -0.2793 -0.1862
  423loPI   C5A 6763   2.954   4.420   8.870 -0.1253 -0.1020  0.0385
  423loPI   C6A 6764   2.887   4.778   8.568  0.3263  0.1158  0.0099
  423loPI   C1B 6765   2.367   4.061  10.353 -0.0214  0.3750 -0.0567
  423loPI   C2B 6766   2.439   3.979   9.990  0.0073  0.5042  0.0265
  423loPI   C3B 6767   2.317   4.140   9.590  0.2722 -0.3812 -0.2199
  423loPI   C4B 6768   2.239   4.034   9.112  0.2320 -0.1591  0.0022
  424loPI    C1 6769  15.264   8.165  11.812 -0.0740  0.1130  0.0245
  424loPI    C2 6770  15.295   8.519  11.994  0.3088 -0.0593  0.3095
  424loPI    C3 6771  15.234   8.188  12.210  0.2642 -0.2069  0.0740
  424loPI   PO4 6772  15.388   8.180  11.611  0.0947 -0.1404 -0.0534
  424loPI   GL1 6773  15.394   8.305  11.151  0.1336 -0.0546  0.1952
  424loPI   GL2 6774  15.615   8.029  11.157 -0.3668  0.2944  0.1612
  424loPI   C1A 6775  15.224   8.455  10.683  0.0675  0.0212 -0.2488
  424loPI   C2A 6776  15.200   8.240  10.388 -0.0114 -0.1319  0.1933
  424loPI   C3A 6777  15.132   8.344   9.917  0.0708  0.1763  0.2911
  424loPI   C4A 6778  15.215   8.356   9.470 -0.0648 -0.0078  0.0817
  424loPI   C5A 6779  15.226   8.512   9.007 -0.0437 -0.2435 -0.4881
  424loPI   C6A 6780  15.249   8.731   8.644 -0.1239  0.0004  0.0537
  424loPI   C1B 6781  15.591   8.049  10.658 -0.0484  0.0037  0.0912
  424loPI   C2B 6782  15.623   8.039  10.185 -0.0148 -0.1442 -0.0876
  424loPI   C3B 6783  15.521   7.993   9.738  0.1536  0.2787 -0.0577
  424loPI   C4B 6784  15.528   7.999   9.327  0.0814  0.1803 -0.1013
  425loPI    C1 6785   1.892  12.399  11.825 -0.0176  0.1279  0.1066
  425loPI    C2 6786   1.626  12.127  11.702  0.1620  0.0460 -0.1065
  425loPI    C3 6787   1.590  12.508  11.586 -0.0192  0.0908  0.0916
  425loPI   PO4 6788   2.171  12.303  11.784  0.0416 -0.0131 -0.1346
  425loPI   GL1 6789   2.231  12.207  11.407  0.1146 -0.0054 -0.3652
  425loPI   GL2 6790   2.106  12.527  11.334 -0.2166  0.0304  0.0968
  425loPI   C1A 6791   2.311  12.238  10.952  0.5073  0.0632  0.0114
  425loPI   C2A 6792   2.337  12.289  10.492 -0.2139  0.0978 -0.3091
  425loPI   C3A 6793   2.297  12.314  10.071  0.2061 -0.0412 -0.1507
  425loPI   C4A 6794   2.233  12.293   9.674  0.0651 -0.2105 -0.1363
  425loPI   C5A 6795   2.239  12.294   9.252 -0.0655 -0.5006  0.3063
  425loPI   C6A 6796   1.916  12.053   8.890 -0.1603  0.1070  0.1305
  425loPI   C1B 6797   1.972  12.583  11.050  0.3122  0.0829  0.0096
  425loPI   C2B 6798   1.985  12.670  10.610 -0.0241  0.0355  0.3656
  425loPI   C3B 6799   1.857  12.754  10.260 -0.0925 -0.4653  0.0012
  425loPI   C4B 6800   1.974  12.681   9.809 -0.2828 -0.0854  0.4587
  426loPI    C1 6801  17.138  16.434  11.805  0.0648 -0.1202 -0.1586
  426loPI    C2 6802  17.061  16.098  12.007  0.0966 -0.0271  0.0102
  426loPI    C3 6803  17.009  16.453  12.183 -0.1402  0.0639 -0.2358
  426loPI   PO4 6804  17.248  16.308  11.578 -0.1625 -0.0011  0.0455
  426loPI   GL1 6805  17.497  16.533  11.227 -0.0343  0.1149  0.3017
  426loPI   GL2 6806  17.788  16.379  11.225 -0.1098 -0.1540 -0.0213
  426loPI   C1A 6807  17.497  16.515  10.744  0.1403 -0.1756 -0.0363
  426loPI   C2A 6808  17.491  16.581  10.354 -0.0335 -0.0767 -0.0907
  426loPI   C3A 6809  17.429  16.494   9.917  0.0719 -0.3630 -0.0083
  426loPI   C4A 6810  17.456  16.320   9.520 -0.3052 -0.2719  0.3776
  426loPI   C5A 6811  17.366  16.523   9.101 -0.0037  0.1295  0.1206
  426loPI   C6A 6812  17.132  16.533   8.698  0.0554 -0.2622  0.0376
  426loPI   C1B 6813  18.015  16.563  10.844 -0.1683  0.1119 -0.2401
  426loPI   C2B 6814  17.990  16.523  10.415  0.0760 -0.0302 -0.1550
  426loPI   C3B 6815  17.921  16.618   9.981 -0.2570  0.3394  0.1282
  426loPI   C4B 6816  18.034  16.574   9.558 -0.1472 -0.1171 -0.2907
  427loPI    C1 6817  16.756   5.296  11.828  0.0024  0.1107  0.2298
  427loPI    C2 6818  16.678   4.926  11.958  0.1958  0.0099  0.0639
  427loPI    C3 6819  16.631   5.238  12.204 -0.3870 -0.0776  0.0767
  427loPI   PO4 6820  16.660   5.346  11.531 -0.1349  0.2079  0.2388
  427loPI   GL1 6821  16.562   5.116  11.067 -0.0240 -0.1986  0.1358
  427loPI   GL2 6822  16.730   4.869  10.973  0.0375 -0.0076  0.0045
  427loPI   C1A 6823  16.424   5.327  10.747 -0.1133 -0.0463 -0.1488
  427loPI   C2A 6824  16.442   5.360  10.332 -0.1464 -0.3013  0.0532
  427loPI   C3A 6825  16.419   5.222   9.951  0.1157  0.1014 -0.0156
  427loPI   C4A 6826  16.524   5.327   9.504 -0.1089  0.0202 -0.0847
  427loPI   C5A 6827  16.905   5.430   9.201  0.0348 -0.1445 -0.1742
  427loPI   C6A 6828  17.303   5.231   9.051 -0.0025  0.0512  0.1145
  427loPI   C1B 6829  16.759   4.983  10.599 -0.2140  0.2260 -0.0923
  427loPI   C2B 6830  16.760   4.916  10.187  0.1195  0.0018  0.3298
  427loPI   C3B 6831  16.896   4.902   9.763  0.2325 -0.0676  0.0578
  427loPI   C4B 6832  16.708   4.894   9.482 -0.1221  0.1498  0.0362
  428loPI    C1 6833   6.265   6.907  11.532 -0.0502  0.1640 -0.0197
  428loPI    C2 6834   6.055   7.058  11.838  0.0253  0.1889  0.0199
  428loPI    C3 6835   6.249   6.710  11.881 -0.1434  0.0826 -0.0693
  428loPI   PO4 6836   6.361   7.019  11.429 -0.1626 -0.0502 -0.2132
  428loPI   GL1 6837   6.526   7.008  11.029  0.2064 -0.0010  0.1104
  428loPI   GL2 6838   6.811   7.084  11.050  0.1317 -0.1308  0.1454
  428loPI   C1A 6839   6.379   6.972  10.582  0.1125 -0.0944 -0.0592
  428loPI   C2A 6840   6.353   6.974  10.120  0.0498  0.0256  0.0732
  428loPI   C3A 6841   6.565   6.997   9.737  0.1401  0.0145 -0.0960
  428loPI   C4A 6842   6.687   7.047   9.265 -0.2078 -0.2672 -0.0973
  428loPI   C5A 6843   6.747   7.136   8.786 -0.1975 -0.2800  0.0923
  428loPI   C6A 6844   6.864   7.225   8.358  0.0013  0.1402 -0.0443
  428loPI   C1B 6845   6.862   7.145  10.550 -0.1146 -0.0224 -0.2893
  428loPI   C2B 6846   6.989   7.140  10.054 -0.0712 -0.0267  0.1697
  428loPI   C3B 6847   7.105   7.115   9.670  0.1260 -0.0126 -0.0425
  428loPI   C4B 6848   7.254   7.096   9.236  0.0873 -0.1219 -0.1639
  429loPI    C1 6849  16.205   1.056  12.086  0.0747 -0.1258 -0.1267
  429loPI    C2 6850  15.996   0.859  12.364  0.0786 -0.1134 -0.1148
  429loPI    C3 6851  16.273   1.125  12.474 -0.1496  0.1343 -0.1306
  429loPI   PO4 6852  16.271   0.818  11.863  0.2065  0.1481 -0.3365
  429loPI   GL1 6853  16.284   0.877  11.404 -0.0608  0.0477 -0.0070
  429loPI   GL2 6854  16.122   0.512  11.494  0.1449 -0.0980 -0.1631
  429loPI   C1A 6855  16.594   0.633  11.144 -0.1564  0.0995  0.2189
  429loPI   C2A 6856  16.686   0.755  10.682  0.1293  0.3436  0.1053
  429loPI   C3A 6857  16.722   0.841  10.302 -0.1974  0.1785  0.3886
  429loPI   C4A 6858  16.633   0.747   9.919  0.0484  0.0274  0.3367
  429loPI   C5A 6859  16.585   0.939   9.538  0.0037 -0.1032  0.0080
  429loPI   C6A 6860  16.412   1.030   9.162  0.1368 -0.1372  0.2063
  429loPI   C1B 6861  16.098   0.568  11.089  0.0533  0.1484  0.2293
  429loPI   C2B 6862  16.159   0.607  10.594 -0.1388  0.0246  0.0857
  429loPI   C3B 6863  16.219   0.735  10.182  0.2321 -0.0139  0.0987
  429loPI   C4B 6864  16.145   0.699   9.725  0.0786  0.1676  0.0360
  430loPI    C1 6865   9.167  15.874  11.997  0.0028 -0.0427 -0.2317
  430loPI    C2 6866   9.253  16.215  12.188 -0.1046 -0.0324 -0.2013
  430loPI    C3 6867   8.943  15.992  12.306 -0.0365 -0.1393 -0.2229
  430loPI   PO4 6868   9.267  15.942  11.683  0.3429 -0.1424  0.1953
  430loPI   GL1 6869   9.587  16.036  11.409  0.2709  0.2965  0.0382
  430loPI   GL2 6870   9.409  15.825  11.170  0.1548  0.3780 -0.1375
  430loPI   C1A 6871   9.628  16.203  10.980  0.0665 -0.2742  0.3019
  430loPI   C2A 6872   9.639  16.144  10.517  0.1369  0.0917  0.0634
  430loPI   C3A 6873   9.605  16.121  10.080  0.1887  0.1096  0.2233
  430loPI   C4A 6874   9.582  16.079   9.622  0.0580 -0.2034 -0.1575
  430loPI   C5A 6875   9.375  16.030   9.143 -0.1437 -0.0590  0.1145
  430loPI   C6A 6876   9.479  15.651   8.902 -0.0579  0.1911  0.0219
  430loPI   C1B 6877   9.462  15.645  10.748 -0.2069 -0.1738 -0.1406
  430loPI   C2B 6878   9.488  15.691  10.300  0.0842  0.1936  0.0110
  430loPI   C3B 6879   9.443  15.688   9.825  0.0997  0.1640  0.1960
  430loPI   C4B 6880   9.359  15.580   9.458 -0.1526  0.1724  0.1390
  431loPI    C1 6881  16.895   8.919  11.605  0.0279  0.0123  0.1601
  431loPI    C2 6882  16.853   8.653  11.901 -0.0229 -0.0748  0.0752
  431loPI    C3 6883  16.682   9.013  11.931  0.0042 -0.0694  0.1685
  431loPI   PO4 6884  16.809   8.805  11.400 -0.6235 -0.1228  0.1353
  431loPI   GL1 6885  16.809   8.994  10.990  0.3007  0.0709  0.0338
  431loPI   GL2 6886  17.011   9.065  10.812 -0.1574 -0.0775 -0.2492
  431loPI   C1A 6887  16.488   9.110  10.755  0.1230  0.0670  0.1964
  431loPI   C2A 6888  16.372   9.079  10.304  0.0686  0.1672 -0.2382
  431loPI   C3A 6889  16.366   9.007   9.871 -0.3076  0.2910  0.0543
  431loPI   C4A 6890  16.366   9.034   9.483  0.1222 -0.0840  0.0714
  431loPI   C5A 6891  16.453   8.862   9.019 -0.1686 -0.0055 -0.0262
  431loPI   C6A 6892  16.382   8.499   8.776 -0.2323 -0.1255  0.1948
  431loPI   C1B 6893  16.816   9.083  10.385 -0.0926  0.4194 -0.1656
  431loPI   C2B 6894  16.829   9.102   9.936 -0.0440  0.0709  0.1551
  431loPI   C3B 6895  16.882   9.066   9.502 -0.1807 -0.0773 -0.0224
  431loPI   C4B 6896  16.908   8.992   9.161  0.1688 -0.0116  0.1220
  432loPI    C1 6897   7.563  15.836  11.671  0.0031 -0.2391  0.0735
  432loPI    C2 6898   7.390  15.950  12.013  0.0064 -0.0964  0.0282
  432loPI    C3 6899   7.789  15.963  11.975 -0.0024  0.0197 -0.0283
  432loPI   PO4 6900   7.408  15.992  11.467  0.0377  0.2464  0.0459
  432loPI   GL1 6901   7.289  16.184  11.112  0.0203  0.0091  0.2275
  432loPI   GL2 6902   7.544  15.957  10.985 -0.0583  0.2971  0.2700
  432loPI   C1A 6903   7.350  16.239  10.605  0.1666 -0.1399  0.1774
  432loPI   C2A 6904   7.257  16.319  10.222 -0.0969  0.0716  0.2550
  432loPI   C3A 6905   7.091  16.264   9.721  0.0775 -0.1241  0.1476
  432loPI   C4A 6906   7.227  16.266   9.475  0.0945  0.0948 -0.2271
  432loPI   C5A 6907   7.443  16.233   9.019  0.2114 -0.0608  0.4318
  432loPI   C6A 6908   7.636  16.174   8.669 -0.0127 -0.3207 -0.5012
  432loPI   C1B 6909   7.616  15.798  10.537  0.1735  0.2630  0.1682
  432loPI   C2B 6910   7.517  15.857  10.136 -0.0096  0.0908 -0.2593
  432loPI   C3B 6911   7.503  15.880   9.740 -0.0541  0.0170 -0.0511
  432loPI   C4B 6912   7.695  15.868   9.245 -0.1106 -0.1218 -0.1824
  433loPI    C1 6913  15.748   8.647  12.025 -0.0290 -0.3582 -0.1256
  433loPI    C2 6914  16.001   8.589  12.329 -0.1221 -0.2342 -0.0235
  433loPI    C3 6915  15.612   8.509  12.375 -0.1236 -0.2928 -0.1363
  433loPI   PO4 6916  15.765   8.535  11.740  0.1699 -0.0514  0.0883
  433loPI   GL1 6917  16.044   8.429  11.369 -0.1520 -0.4503 -0.0872
  433loPI   GL2 6918  15.801   8.619  11.185 -0.0372  0.1094 -0.4446
  433loPI   C1A 6919  16.122   8.207  10.958 -0.1230 -0.0511  0.0141
  433loPI   C2A 6920  16.043   8.134  10.484 -0.0380 -0.0942 -0.0075
  433loPI   C3A 6921  16.102   8.148  10.034 -0.1700 -0.1076 -0.1058
  433loPI   C4A 6922  15.993   8.072   9.693  0.0428  0.1637  0.0363
  433loPI   C5A 6923  15.978   8.037   9.232  0.1976 -0.0903  0.3991
  433loPI   C6A 6924  16.077   7.957   8.732  0.2341 -0.0930  0.0540
  433loPI   C1B 6925  15.675   8.574  10.795 -0.0981 -0.1749  0.2361
  433loPI   C2B 6926  15.650   8.547  10.288 -0.2118 -0.3438  0.1095
  433loPI   C3B 6927  15.741   8.530   9.918  0.1428  0.0202  0.1708
  433loPI   C4B 6928  15.718   8.435   9.501 -0.2000 -0.0273 -0.1915
  434loPI    C1 6929   3.531  13.380  11.784 -0.2160  0.0430  0.4158
  434loPI    C2 6930   3.646  13.012  11.891 -0.1033  0.0377  0.2786
  434loPI    C3 6931   3.414  13.228  12.135 -0.2621 -0.1670  0.3111
  434loPI   PO4 6932   3.443  13.284  11.485 -0.0103  0.1127 -0.2137
  434loPI   GL1 6933   3.343  13.351  11.060 -0.1631  0.3385 -0.0242
  434loPI   GL2 6934   3.139  13.427  10.979 -0.0425  0.0439 -0.0072
  434loPI   C1A 6935   3.547  13.361  10.486  0.0417  0.1481  0.1543
  434loPI   C2A 6936   3.589  13.380  10.143 -0.0394 -0.1865  0.0628
  434loPI   C3A 6937   3.747  13.421   9.806  0.1439 -0.0403  0.2975
  434loPI   C4A 6938   3.697  13.399   9.343 -0.0193 -0.1276 -0.0848
  434loPI   C5A 6939   3.904  13.482   8.847  0.0164  0.1101 -0.0022
  434loPI   C6A 6940   4.037  13.879   8.639 -0.0537  0.0726 -0.1407
  434loPI   C1B 6941   3.007  13.364  10.546 -0.0523 -0.2382 -0.2499
  434loPI   C2B 6942   3.047  13.334  10.190  0.0818 -0.2037  0.0758
  434loPI   C3B 6943   3.191  13.406   9.776  0.1607  0.0739 -0.3443
  434loPI   C4B 6944   3.171  13.613   9.363 -0.1525  0.0531  0.1116
  435loPI    C1 6945   2.120   6.539  11.537  0.0787 -0.0362  0.0256
  435loPI    C2 6946   2.499   6.497  11.417  0.0184 -0.1235 -0.1369
  435loPI    C3 6947   2.398   6.410  11.794  0.1487 -0.1565 -0.1091
  435loPI   PO4 6948   2.032   6.491  11.301  0.0254  0.0284 -0.4309
  435loPI   GL1 6949   2.030   6.839  10.950  0.0088  0.3699 -0.1803
  435loPI   GL2 6950   2.380   6.826  10.921 -0.4326  0.0923 -0.1547
  435loPI   C1A 6951   2.019   6.697  10.576 -0.1125  0.1716  0.3403
  435loPI   C2A 6952   1.904   6.717  10.118 -0.1678  0.1118  0.2842
  435loPI   C3A 6953   2.003   6.873   9.697 -0.0584 -0.0277  0.4579
  435loPI   C4A 6954   1.927   6.894   9.254 -0.3474 -0.2251 -0.0319
  435loPI   C5A 6955   2.040   7.098   8.868  0.0276  0.0889 -0.0131
  435loPI   C6A 6956   2.205   6.945   8.494  0.0328  0.2467 -0.0746
  435loPI   C1B 6957   2.527   6.733  10.486 -0.0924 -0.2613 -0.0849
  435loPI   C2B 6958   2.505   6.827  10.000 -0.2873  0.1300 -0.1842
  435loPI   C3B 6959   2.501   6.935   9.578  0.0539  0.0495  0.1432
  435loPI   C4B 6960   2.530   7.003   9.136  0.1652  0.2337  0.3306
  436loPI    C1 6961  11.919   4.070  11.887 -0.0837  0.2031  0.2548
  436loPI    C2 6962  11.799   3.718  12.033  0.1959 -0.0745 -0.1637
  436loPI    C3 6963  12.138   3.884  12.164  0.1141 -0.0066 -0.0363
  436loPI   PO4 6964  11.814   4.016  11.619 -0.0517 -0.1711 -0.0297
  436loPI   GL1 6965  12.026   3.774  11.179 -0.2576  0.0753  0.1223
  436loPI   GL2 6966  12.165   3.449  11.095  0.0700 -0.3352  0.2341
  436loPI   C1A 6967  11.939   3.720  10.709  0.0905  0.0391 -0.2125
  436loPI   C2A 6968  11.885   3.721  10.362  0.0811  0.0778 -0.2755
  436loPI   C3A 6969  11.919   3.627  10.006 -0.0136  0.0440  0.3693
  436loPI   C4A 6970  11.895   3.701   9.558 -0.0023 -0.0760  0.4068
  436loPI   C5A 6971  11.911   3.489   9.124  0.1708 -0.1200  0.1054
  436loPI   C6A 6972  11.784   3.345   8.803 -0.1446 -0.1384  0.2303
  436loPI   C1B 6973  12.220   3.275  10.684  0.1830  0.0588  0.2046
  436loPI   C2B 6974  12.350   3.230  10.241  0.0878 -0.0659  0.0350
  436loPI   C3B 6975  12.326   3.321   9.868  0.0684  0.0171 -0.1181
  436loPI   C4B 6976  12.272   3.167   9.461 -0.3239  0.2256 -0.1133
  437loPI    C1 6977  10.256   1.879  11.316  0.1046 -0.1898  0.0520
  437loPI    C2 6978   9.884   2.007  11.386  0.0758 -0.2968  0.0962
  437loPI    C3 6979  10.196   2.243  11.472  0.0132 -0.1468 -0.0819
  437loPI   PO4 6980  10.161   1.615  11.209 -0.0141  0.0853 -0.4316
  437loPI   GL1 6981   9.928   1.398  10.990 -0.1408  0.1748 -0.4108
  437loPI   GL2 6982   9.972   1.093  10.942 -0.0539  0.0228  0.1919
  437loPI   C1A 6983   9.697   1.493  10.660  0.2425  0.0663 -0.3813
  437loPI   C2A 6984   9.681   1.513  10.206 -0.0423 -0.2226 -0.1336
  437loPI   C3A 6985   9.649   1.428   9.717  0.0598 -0.2520 -0.1937
  437loPI   C4A 6986   9.791   1.456   9.308 -0.0155 -0.1118 -0.2890
  437loPI   C5A 6987   9.927   1.512   8.881  0.0747  0.3367  0.0114
  437loPI   C6A 6988   9.830   1.634   8.512  0.0931  0.0266  0.1367
  437loPI   C1B 6989   9.995   1.090  10.511  0.2254  0.0019  0.3351
  437loPI   C2B 6990  10.063   1.053  10.113 -0.0867  0.2580  0.1831
  437loPI   C3B 6991  10.026   0.960   9.704 -0.0543 -0.0043  0.2749
  437loPI   C4B 6992  10.117   1.016   9.314 -0.2287 -0.0396  0.1123
  438loPI    C1 6993  12.753   5.733  11.927  0.1497 -0.1435 -0.0286
  438loPI    C2 6994  12.923   5.945  12.221  0.1866 -0.2170  0.0035
  438loPI    C3 6995  12.742   5.598  12.303 -0.2583  0.0115  0.0197
  438loPI   PO4 6996  12.980   5.809  11.705 -0.3133  0.1854 -0.0555
  438loPI   GL1 6997  13.112   5.772  11.261 -0.2310 -0.1847 -0.0396
  438loPI   GL2 6998  12.812   5.645  11.233 -0.1620 -0.1245 -0.0077
  438loPI   C1A 6999  13.190   5.606  10.882 -0.0764 -0.2461 -0.4002
  438loPI   C2A 7000  13.176   5.657  10.461  0.2032 -0.2195 -0.2322
  438loPI   C3A 7001  13.283   5.666   9.972 -0.0856 -0.2110  0.1526
  438loPI   C4A 7002  13.254   5.692   9.460  0.2121 -0.1414  0.1744
  438loPI   C5A 7003  13.082   5.669   9.124  0.1174 -0.0819  0.0093
  438loPI   C6A 7004  12.729   5.502   8.962  0.0796  0.1958  0.0508
  438loPI   C1B 7005  12.639   5.656  10.851  0.1095 -0.0251  0.3577
  438loPI   C2B 7006  12.706   5.514  10.385 -0.0164 -0.3109 -0.0393
  438loPI   C3B 7007  12.730   5.560   9.938 -0.2591  0.2338 -0.0324
  438loPI   C4B 7008  12.779   5.617   9.545  0.0530 -0.0689 -0.3091
  439loPI    C1 7009  16.767   0.904  11.907  0.1339 -0.1219  0.0560
  439loPI    C2 7010  16.864   0.555  12.078 -0.1520 -0.2546 -0.0464
  439loPI    C3 7011  17.063   0.888  12.175  0.0742 -0.4322  0.1073
  439loPI   PO4 7012  16.733   0.916  11.672 -0.1443  0.2533 -0.0416
  439loPI   GL1 7013  16.830   1.024  11.275 -0.0873 -0.2570 -0.1124
  439loPI   GL2 7014  17.085   0.920  11.182  0.2451  0.2863 -0.1171
  439loPI   C1A 7015  16.808   1.313  10.931 -0.0848 -0.1153 -0.0715
  439loPI   C2A 7016  16.881   1.259  10.475  0.1263 -0.0719  0.0389
  439loPI   C3A 7017  16.856   1.276  10.061 -0.1039 -0.1361  0.1921
  439loPI   C4A 7018  16.804   1.337   9.659  0.2177  0.2836 -0.2645
  439loPI   C5A 7019  16.580   1.478   9.345  0.0516  0.0898 -0.1438
  439loPI   C6A 7020  16.384   1.474   8.948  0.0907 -0.1141 -0.1536
  439loPI   C1B 7021  17.158   0.938  10.746  0.3176  0.0503 -0.1988
  439loPI   C2B 7022  17.224   0.921  10.261  0.1385  0.2059  0.1161
  439loPI   C3B 7023  17.111   0.862   9.862 -0.1605 -0.2610 -0.0929
  439loPI   C4B 7024  17.074   0.839   9.339  0.3832 -0.0109 -0.1134
  440loPI    C1 7025   2.599  15.425  11.771 -0.1674 -0.0086  0.0478
  440loPI    C2 7026   2.247  15.477  11.954 -0.1639 -0.2134  0.1155
  440loPI    C3 7027   2.398  15.109  11.912 -0.0464 -0.1443 -0.0803
  440loPI   PO4 7028   2.521  15.658  11.535 -0.1317  0.1698 -0.1753
  440loPI   GL1 7029   2.414  15.704  11.134  0.1386 -0.1470 -0.0393
  440loPI   GL2 7030   2.581  15.524  10.953  0.3504  0.1864  0.2362
  440loPI   C1A 7031   2.174  15.919  10.854  0.1917  0.0812 -0.1742
  440loPI   C2A 7032   2.212  16.010  10.409 -0.2673  0.0610  0.1203
  440loPI   C3A 7033   2.210  15.923  10.040  0.1106 -0.1311 -0.1675
  440loPI   C4A 7034   2.321  15.900   9.713  0.0790  0.0322  0.0693
  440loPI   C5A 7035   2.371  15.938   9.241  0.1406 -0.0069 -0.1443
  440loPI   C6A 7036   2.144  16.338   9.071 -0.2563  0.0228 -0.0253
  440loPI   C1B 7037   2.517  15.547  10.528  0.1414  0.1283  0.1399
  440loPI   C2B 7038   2.607  15.555  10.080 -0.1508  0.2600  0.2432
  440loPI   C3B 7039   2.630  15.491   9.592 -0.4310  0.0697 -0.3103
  440loPI   C4B 7040   2.665  15.520   9.099  0.1964 -0.0557 -0.2428
  441loPI    C1 7041  12.063   0.459  11.525 -0.1059  0.0334 -0.0664
  441loPI    C2 7042  12.071   0.859  11.512  0.2178  0.0263 -0.1601
  441loPI    C3 7043  12.035   0.671  11.863 -0.3325  0.1380 -0.1489
  441loPI   PO4 7044  12.020   0.408  11.259  0.0070  0.0457 -0.0514
  441loPI   GL1 7045  11.810   0.228  10.908  0.1511 -0.3853  0.1691
  441loPI   GL2 7046  11.725   0.495  10.862 -0.0787 -0.0804  0.1195
  441loPI   C1A 7047  11.963   0.017  10.536 -0.2297 -0.4629 -0.1655
  441loPI   C2A 7048  12.018   0.070  10.134 -0.1343 -0.1687 -0.0249
  441loPI   C3A 7049  12.077  -0.010   9.658 -0.1632 -0.0351  0.1034
  441loPI   C4A 7050  12.080  -0.217   9.250 -0.2401 -0.1821  0.0906
  441loPI   C5A 7051  12.309  -0.432   8.860 -0.1310 -0.0583  0.2766
  441loPI   C6A 7052  12.342  -0.880   8.790 -0.2431 -0.0624  0.0688
  441loPI   C1B 7053  11.695   0.451  10.446 -0.0823  0.0095 -0.1106
  441loPI   C2B 7054  11.686   0.431   9.988 -0.0170  0.0697  0.0783
  441loPI   C3B 7055  11.760   0.382   9.632 -0.1023  0.0981  0.0155
  441loPI   C4B 7056  11.846   0.236   9.236 -0.2163 -0.2094  0.0528
  442loPI    C1 7057   0.240   0.760  11.787 -0.1410 -0.0190 -0.0384
  442loPI    C2 7058   0.004   0.510  11.992  0.0159  0.0343  0.2122
  442loPI    C3 7059   0.137   0.846  12.164  0.0016  0.1726 -0.0415
  442loPI   PO4 7060   0.174   0.605  11.498 -0.0362  0.0788  0.3018
  442loPI   GL1 7061   0.416   0.483  11.114 -0.0133 -0.1661 -0.2690
  442loPI   GL2 7062   0.041   0.467  11.057 -0.2513  0.1831  0.1073
  442loPI   C1A 7063   0.563   0.484  10.688 -0.2310  0.0408 -0.0683
  442loPI   C2A 7064   0.626   0.500  10.258 -0.2012 -0.0702 -0.0280
  442loPI   C3A 7065   0.677   0.603   9.938 -0.2619  0.3296  0.0698
  442loPI   C4A 7066   0.635   0.476   9.594  0.1760  0.1228 -0.0327
  442loPI   C5A 7067   0.627   0.293   9.191  0.1232 -0.1763 -0.0486
  442loPI   C6A 7068   0.736   0.069   8.812  0.1950 -0.1174 -0.1730
  442loPI   C1B 7069   0.064   0.429  10.632 -0.1006 -0.1719 -0.1219
  442loPI   C2B 7070   0.057   0.360  10.247  0.1467 -0.0083 -0.0522
  442loPI   C3B 7071   0.170   0.391   9.763 -0.1429  0.1491  0.2608
  442loPI   C4B 7072   0.151   0.368   9.350  0.2552  0.0845 -0.1873
  443loPI    C1 7073   8.768  13.102  11.650  0.1265  0.0517  0.0618
  443loPI    C2 7074   8.449  12.951  11.840  0.0057  0.2024 -0.0186
  443loPI    C3 7075   8.730  13.147  12.046  0.2274 -0.2340  0.1058
  443loPI   PO4 7076   8.693  13.090  11.358  0.0299  0.3128  0.0067
  443loPI   GL1 7077   8.402  12.985  11.121  0.0045  0.0154  0.1816
  443loPI   GL2 7078   8.068  13.106  10.953  0.1520 -0.2661  0.2852
  443loPI   C1A 7079   8.486  13.145  10.632  0.0743 -0.0222 -0.3225
  443loPI   C2A 7080   8.471  13.135  10.270 -0.1790 -0.1323 -0.1725
  443loPI   C3A 7081   8.376  13.182   9.824 -0.1768  0.1736  0.0041
  443loPI   C4A 7082   8.369  13.243   9.397  0.0656 -0.1040 -0.0903
  443loPI   C5A 7083   8.552  13.277   9.077 -0.0560  0.2704 -0.1399
  443loPI   C6A 7084   8.643  13.210   8.629 -0.1223  0.2130  0.0497
  443loPI   C1B 7085   7.946  13.135  10.517 -0.4201  0.3398  0.0214
  443loPI   C2B 7086   7.946  13.130  10.098  0.1154  0.0941 -0.1708
  443loPI   C3B 7087   7.882  13.260   9.794  0.1237  0.1283  0.0717
  443loPI   C4B 7088   7.891  13.066   9.420 -0.0860  0.1256 -0.1222
  444loPI    C1 7089   1.154  10.548  11.861 -0.1173 -0.1267 -0.0695
  444loPI    C2 7090   0.898  10.242  11.896 -0.2462 -0.0081  0.0412
  444loPI    C3 7091   1.189  10.292  12.166 -0.0652 -0.1785 -0.1188
  444loPI   PO4 7092   0.999  10.654  11.593 -0.1468 -0.1888  0.0122
  444loPI   GL1 7093   0.975  10.376  11.186 -0.0956 -0.0866  0.0471
  444loPI   GL2 7094   1.315  10.447  11.074 -0.3714  0.0684  0.1286
  444loPI   C1A 7095   0.892  10.365  10.828 -0.0615 -0.1219 -0.2048
  444loPI   C2A 7096   0.879  10.379  10.382 -0.1386 -0.1357  0.1077
  444loPI   C3A 7097   0.921  10.300   9.944 -0.1430  0.3590 -0.1929
  444loPI   C4A 7098   1.054  10.338   9.485  0.1897  0.0774  0.1104
  444loPI   C5A 7099   1.240  10.553   9.034 -0.2096 -0.1917 -0.0617
  444loPI   C6A 7100   1.214  10.386   8.591  0.1087  0.0429 -0.1652
  444loPI   C1B 7101   1.296  10.648  10.673  0.0130  0.0952 -0.0262
  444loPI   C2B 7102   1.256  10.727  10.186 -0.0173 -0.3339 -0.0911
  444loPI   C3B 7103   1.433  10.469   9.847 -0.0655  0.0605  0.1258
  444loPI   C4B 7104   1.581  10.427   9.453  0.2403  0.0316 -0.1023
  445loPI    C1 7105  15.703  10.512  11.786  0.0481 -0.0496  0.3230
  445loPI    C2 7106  15.399  10.300  11.937 -0.1803 -0.1296 -0.2263
  445loPI    C3 7107  15.687  10.116  11.728 -0.0731  0.0268 -0.2180
  445loPI   PO4 7108  15.665  10.751  11.635  0.4730 -0.0853  0.1318
  445loPI   GL1 7109  15.536  10.859  11.234 -0.0461  0.3072 -0.0926
  445loPI   GL2 7110  15.847  11.044  11.152  0.1895 -0.0112  0.0980
  445loPI   C1A 7111  15.538  10.733  10.848 -0.1266  0.0414 -0.1331
  445loPI   C2A 7112  15.616  10.724  10.438 -0.3541  0.0432  0.0727
  445loPI   C3A 7113  15.645  10.714  10.000 -0.0247 -0.0743 -0.1275
  445loPI   C4A 7114  15.623  10.733   9.634 -0.1287  0.3530  0.2898
  445loPI   C5A 7115  15.567  10.654   9.171  0.2955 -0.2196  0.0555
  445loPI   C6A 7116  15.447  10.504   8.760 -0.1563 -0.1370 -0.0808
  445loPI   C1B 7117  15.728  11.199  10.761  0.4267  0.1378  0.0359
  445loPI   C2B 7118  15.784  11.275  10.327 -0.0398  0.3254 -0.2277
  445loPI   C3B 7119  15.844  11.200   9.982  0.0812 -0.1495  0.1856
  445loPI   C4B 7120  15.869  11.136   9.502  0.2349 -0.0966  0.0040
  446loPI    C1 7121   3.703   6.092  11.736  0.0386 -0.0115  0.0614
  446loPI    C2 7122   3.469   5.864  11.967 -0.0901  0.0159 -0.0409
  446loPI    C3 7123   3.579   6.228  12.092 -0.0029 -0.0442  0.0594
  446loPI   PO4 7124   3.711   6.084  11.472 -0.0722  0.0898 -0.2393
  446loPI   GL1 7125   3.889   6.055  11.157  0.0088 -0.1365 -0.3682
  446loPI   GL2 7126   4.138   6.191  11.146 -0.3007 -0.2866  0.0526
  446loPI   C1A 7127   3.686   6.136  10.763 -0.0631 -0.2505 -0.2426
  446loPI   C2A 7128   3.663   6.017  10.247 -0.0841 -0.3129 -0.2661
  446loPI   C3A 7129   3.733   6.164   9.858  0.0389 -0.1472  0.0056
  446loPI   C4A 7130   3.663   6.100   9.355 -0.0879 -0.1414 -0.2104
  446loPI   C5A 7131   3.976   6.136   9.041  0.2211 -0.1904  0.2932
  446loPI   C6A 7132   4.131   6.497   8.763 -0.0500 -0.0427  0.0007
  446loPI   C1B 7133   4.183   6.148  10.710 -0.0491 -0.0913 -0.1326
  446loPI   C2B 7134   4.185   6.123  10.306  0.3042  0.4705 -0.2340
  446loPI   C3B 7135   4.242   6.153   9.874  0.1754  0.3064 -0.1360
  446loPI   C4B 7136   4.267   6.056   9.454  0.2630 -0.1565 -0.0313
  447loPI    C1 7137   2.689  16.387  12.109  0.0104 -0.2159 -0.0862
  447loPI    C2 7138   2.398  16.646  12.201  0.0424 -0.1113 -0.2744
  447loPI    C3 7139   2.511  16.369  12.467  0.2197  0.2640  0.0515
  447loPI   PO4 7140   2.644  16.298  11.860  0.0965  0.0208 -0.0740
  447loPI   GL1 7141   2.525  16.181  11.400 -0.0304 -0.2082  0.2151
  447loPI   GL2 7142   2.297  16.216  11.220  0.1821 -0.0773  0.2390
  447loPI   C1A 7143   2.767  16.089  11.009  0.3046  0.3678  0.1203
  447loPI   C2A 7144   2.753  16.080  10.578  0.0245 -0.2634  0.0327
  447loPI   C3A 7145   2.808  16.051  10.144  0.1408  0.2582  0.2779
  447loPI   C4A 7146   2.796  15.954   9.738 -0.0975  0.0226 -0.2063
  447loPI   C5A 7147   2.862  16.026   9.327 -0.0291  0.1471 -0.3755
  447loPI   C6A 7148   2.895  15.932   8.885  0.0720  0.2557  0.5496
  447loPI   C1B 7149   2.427  16.380  10.811 -0.3341  0.1879  0.2342
  447loPI   C2B 7150   2.463  16.422  10.395 -0.0992  0.2744  0.2657
  447loPI   C3B 7151   2.358  16.415   9.971  0.0998 -0.2326  0.1790
  447loPI   C4B 7152   2.503  16.330   9.522  0.5164 -0.2982 -0.0817
  448loPI    C1 7153   6.161  16.823  11.628  0.0272 -0.0715 -0.0525
  448loPI    C2 7154   6.304  16.717  11.986 -0.0568 -0.0279 -0.0055
  448loPI    C3 7155   6.078  17.045  11.951 -0.1516 -0.1005 -0.0772
  448loPI   PO4 7156   6.006  16.605  11.460 -0.1339 -0.0930 -0.1173
  448loPI   GL1 7157   6.145  16.402  11.117 -0.3096 -0.1913 -0.0442
  448loPI   GL2 7158   6.389  16.494  11.049 -0.1997  0.0378  0.1250
  448loPI   C1A 7159   5.934  16.497  10.694 -0.3908 -0.0785 -0.0669
  448loPI   C2A 7160   5.726  16.518  10.363 -0.0393 -0.1482 -0.1196
  448loPI   C3A 7161   5.785  16.464  10.019 -0.1853 -0.2597  0.0976
  448loPI   C4A 7162   5.750  16.581   9.667 -0.0932  0.0559 -0.0336
  448loPI   C5A 7163   5.764  16.585   9.246  0.2741 -0.2800 -0.0604
  448loPI   C6A 7164   5.667  16.643   8.730 -0.3562  0.1304  0.1916
  448loPI   C1B 7165   6.453  16.493  10.619 -0.1824  0.1583  0.0039
  448loPI   C2B 7166   6.311  16.606  10.228  0.3046 -0.2828 -0.1357
  448loPI   C3B 7167   6.389  16.629   9.837  0.0005  0.3172 -0.2331
  448loPI   C4B 7168   6.300  16.697   9.409 -0.0899 -0.0585 -0.0335
  449loPI    C1 7169   0.604  11.765  11.750  0.0594  0.1247  0.0373
  449loPI    C2 7170   0.617  11.412  11.937  0.2208  0.0154 -0.1750
  449loPI    C3 7171   0.663  11.751  12.145  0.0719 -0.0870  0.0289
  449loPI   PO4 7172   0.765  11.744  11.518 -0.0574  0.1351 -0.1181
  449loPI   GL1 7173   0.616  11.871  11.133  0.1491 -0.0645  0.1738
  449loPI   GL2 7174   0.727  12.092  11.146  0.1875 -0.0275  0.1262
  449loPI   C1A 7175   0.437  11.524  10.856  0.1124 -0.1986  0.0018
  449loPI   C2A 7176   0.549  11.584  10.459  0.1333  0.2913  0.0832
  449loPI   C3A 7177   0.565  11.588   9.993 -0.0623 -0.2056 -0.1993
  449loPI   C4A 7178   0.476  11.589   9.560  0.1125 -0.2336 -0.0365
  449loPI   C5A 7179   0.239  11.528   9.252 -0.0684 -0.0496 -0.1602
  449loPI   C6A 7180   0.181  11.752   8.929 -0.1105 -0.3451 -0.0059
  449loPI   C1B 7181   0.654  12.007  10.660 -0.2233 -0.0946  0.0165
  449loPI   C2B 7182   0.758  12.094  10.212  0.0803  0.1760  0.1196
  449loPI   C3B 7183   0.633  12.032   9.756 -0.1207 -0.0652  0.2058
  449loPI   C4B 7184   0.634  12.115   9.334 -0.0918  0.1490  0.1355
  450loPI    C1 7185   0.592  17.151  11.910  0.0189 -0.0839  0.0816
  450loPI    C2 7186   0.528  17.206  12.301  0.1301  0.1601  0.0668
  450loPI    C3 7187   0.873  17.047  12.175  0.0106 -0.1142  0.0786
  450loPI   PO4 7188   0.321  17.111  11.822 -0.0104  0.0489  0.0570
  450loPI   GL1 7189   0.279  17.021  11.441 -0.2328  0.0806 -0.3721
  450loPI   GL2 7190  -0.049  17.166  11.235  0.0146  0.0908 -0.2396
  450loPI   C1A 7191   0.308  16.892  11.011  0.1879 -0.1895 -0.1664
  450loPI   C2A 7192   0.215  17.026  10.633 -0.1357  0.1237 -0.1170
  450loPI   C3A 7193   0.208  16.986  10.166 -0.0083  0.0598  0.1528
  450loPI   C4A 7194   0.243  16.916   9.726 -0.2226 -0.1712  0.0997
  450loPI   C5A 7195   0.295  16.892   9.324  0.0295  0.0294 -0.1289
  450loPI   C6A 7196   0.310  17.265   9.017 -0.1007  0.3198 -0.0459
  450loPI   C1B 7197  -0.102  17.394  10.848 -0.0937  0.1089 -0.3338
  450loPI   C2B 7198  -0.086  17.335  10.395  0.0375  0.1510 -0.1543
  450loPI   C3B 7199  -0.024  17.323   9.879 -0.0166 -0.0344  0.3546
  450loPI   C4B 7200  -0.080  17.293   9.454 -0.4772  0.1205  0.3726
  451loPI    C1 7201   0.504  12.582  11.871  0.0620 -0.0689 -0.0822
  451loPI    C2 7202   0.634  12.279  11.645  0.1696  0.0108 -0.1280
  451loPI    C3 7203   0.681  12.267  12.042 -0.1095 -0.1750 -0.0983
  451loPI   PO4 7204   0.490  12.867  11.673 -0.0676 -0.1460 -0.0038
  451loPI   GL1 7205   0.558  12.854  11.214 -0.1254 -0.2044  0.0831
  451loPI   GL2 7206   0.772  12.627  11.265  0.3108  0.3007 -0.1001
  451loPI   C1A 7207   0.581  12.878  10.816  0.0050 -0.1371 -0.1549
  451loPI   C2A 7208   0.631  12.800  10.415  0.2044  0.1410  0.0661
  451loPI   C3A 7209   0.662  12.942   9.975  0.0504 -0.2500 -0.0709
  451loPI   C4A 7210   0.587  13.022   9.487  0.0613 -0.0522 -0.1751
  451loPI   C5A 7211   0.374  13.108   8.968 -0.1109 -0.0924  0.0697
  451loPI   C6A 7212   0.228  13.209   8.603  0.1530  0.2215  0.2194
  451loPI   C1B 7213   0.868  12.445  10.875 -0.1429  0.0053  0.2467
  451loPI   C2B 7214   0.951  12.457  10.476 -0.1112  0.1340 -0.2707
  451loPI   C3B 7215   0.962  12.465  10.016 -0.2753 -0.2178  0.0475
  451loPI   C4B 7216   0.842  12.630   9.590 -0.0021  0.0324 -0.0816
  452loPI    C1 7217   6.497   5.137  11.319 -0.0315  0.0792  0.0449
  452loPI    C2 7218   6.806   4.892  11.387 -0.1358 -0.1041 -0.1289
  452loPI    C3 7219   6.513   4.923  11.657  0.0032  0.0253  0.0094
  452loPI   PO4 7220   6.583   5.435  11.304  0.0991 -0.2944 -0.1406
  452loPI   GL1 7221   6.524   5.779  11.137 -0.1641 -0.0514  0.1631
  452loPI   GL2 7222   6.601   5.505  10.810 -0.0062 -0.1207  0.1967
  452loPI   C1A 7223   6.610   6.047  10.841 -0.3937 -0.0339 -0.1043
  452loPI   C2A 7224   6.581   6.024  10.444  0.0962 -0.2551  0.3224
  452loPI   C3A 7225   6.603   5.935   9.947  0.0384 -0.3585  0.0618
  452loPI   C4A 7226   6.683   5.925   9.616  0.2311 -0.0720  0.2899
  452loPI   C5A 7227   6.652   6.201   9.201  0.0667 -0.1904 -0.0495
  452loPI   C6A 7228   6.612   6.115   8.679  0.0946 -0.0566 -0.1777
  452loPI   C1B 7229   6.419   5.584  10.421  0.0902 -0.2827 -0.2025
  452loPI   C2B 7230   6.422   5.521  10.057  0.1295  0.2253  0.1762
  452loPI   C3B 7231   6.449   5.473   9.686  0.4388 -0.2131 -0.1866
  452loPI   C4B 7232   6.484   5.592   9.281 -0.1444 -0.0027  0.0076
  453loPI    C1 7233  11.404   3.163  11.554 -0.0587  0.1662 -0.0933
  453loPI    C2 7234  11.642   2.846  11.608 -0.2941  0.0485  0.2913
  453loPI    C3 7235  11.765   3.210  11.720 -0.0867  0.0724 -0.0045
  453loPI   PO4 7236  11.333   3.089  11.268  0.0360 -0.1309 -0.2682
  453loPI   GL1 7237  11.437   3.161  10.920 -0.0609  0.2199  0.1926
  453loPI   GL2 7238  11.075   3.198  10.849 -0.0843 -0.0270 -0.0073
  453loPI   C1A 7239  11.723   3.258  10.496  0.3450 -0.0393  0.2874
  453loPI   C2A 7240  11.867   3.143  10.115  0.1849  0.1931  0.0781
  453loPI   C3A 7241  11.822   3.166   9.716 -0.1715  0.0167 -0.4040
  453loPI   C4A 7242  11.781   3.024   9.300  0.3127  0.0013 -0.0777
  453loPI   C5A 7243  12.118   2.941   9.050 -0.2013  0.2996  0.1448
  453loPI   C6A 7244  12.328   2.945   8.652  0.0320 -0.2079  0.2431
  453loPI   C1B 7245  11.255   3.219  10.466 -0.2395 -0.2991 -0.2347
  453loPI   C2B 7246  11.322   3.184  10.048  0.0419  0.3999  0.0902
  453loPI   C3B 7247  11.189   3.100   9.619  0.1674  0.1716  0.0184
  453loPI   C4B 7248  11.167   3.028   9.166 -0.0212  0.4431 -0.1253
  454loPI    C1 7249   9.932   4.249  11.554  0.1672 -0.1109 -0.2037
  454loPI    C2 7250   9.820   3.891  11.692 -0.3245  0.1772  0.1785
  454loPI    C3 7251  10.161   4.057  11.819 -0.0982 -0.1448  0.0053
  454loPI   PO4 7252   9.896   4.251  11.328 -0.0287  0.0511  0.3432
  454loPI   GL1 7253   9.738   4.035  11.110 -0.0624  0.2471  0.0549
  454loPI   GL2 7254   9.809   3.714  11.103 -0.3286  0.0331  0.2369
  454loPI   C1A 7255   9.750   4.231  10.714  0.2071 -0.5400  0.0546
  454loPI   C2A 7256   9.750   4.235  10.263 -0.3678  0.0826 -0.0242
  454loPI   C3A 7257   9.815   4.269   9.874  0.1154  0.4656 -0.1145
  454loPI   C4A 7258   9.818   4.246   9.367 -0.4677  0.2174 -0.3764
  454loPI   C5A 7259   9.616   4.497   8.968  0.1634 -0.0892  0.0165
  454loPI   C6A 7260   9.745   4.453   8.493  0.0576 -0.4354  0.2397
  454loPI   C1B 7261   9.709   3.721  10.672 -0.2777  0.2178 -0.1476
  454loPI   C2B 7262   9.930   3.749  10.376  0.0934  0.1695 -0.1203
  454loPI   C3B 7263   9.881   3.760   9.924 -0.0677 -0.0835  0.0942
  454loPI   C4B 7264  10.189   3.824   9.540  0.2469  0.1144  0.0000
  455loPI    C1 7265   7.899   9.909  11.242 -0.0661  0.0187 -0.0783
  455loPI    C2 7266   7.691  10.029  11.562 -0.0593 -0.0540 -0.0464
  455loPI    C3 7267   7.636  10.209  11.209 -0.0718  0.0219 -0.0060
  455loPI   PO4 7268   8.088   9.943  11.221 -0.0524  0.0399  0.1317
  455loPI   GL1 7269   8.282   9.810  10.897 -0.0119 -0.1263  0.1035
  455loPI   GL2 7270   8.491   9.583  10.815  0.0874  0.0889 -0.0436
  455loPI   C1A 7271   8.201   9.807  10.438  0.3948 -0.0224  0.1931
  455loPI   C2A 7272   8.224   9.984  10.001  0.1003  0.1910  0.0768
  455loPI   C3A 7273   8.142  10.033   9.592  0.0380  0.0441 -0.2122
  455loPI   C4A 7274   8.187  10.036   9.128  0.3286 -0.4605  0.0155
  455loPI   C5A 7275   8.040  10.255   8.723 -0.3048 -0.2599 -0.1558
  455loPI   C6A 7276   7.907  10.619   8.423 -0.0630  0.3087  0.1138
  455loPI   C1B 7277   8.546   9.494  10.407 -0.0919 -0.0474  0.2042
  455loPI   C2B 7278   8.568   9.547  10.013  0.0616 -0.2124 -0.3278
  455loPI   C3B 7279   8.457   9.621   9.633  0.0707  0.1100  0.0354
  455loPI   C4B 7280   8.499   9.570   9.244  0.0827 -0.0213 -0.0286
  456loPI    C1 7281   7.431  14.298  11.819 -0.1323 -0.0242  0.0988
  456loPI    C2 7282   7.283  14.456  12.155  0.1013  0.2405  0.0809
  456loPI    C3 7283   7.620  14.241  12.167 -0.0728 -0.0383  0.0645
  456loPI   PO4 7284   7.301  14.339  11.621  0.1812  0.1498  0.0510
  456loPI   GL1 7285   7.175  14.306  11.266 -0.0941  0.2684 -0.0762
  456loPI   GL2 7286   7.453  14.322  11.001  0.0242  0.2825  0.0723
  456loPI   C1A 7287   6.969  14.467  10.784 -0.2059  0.3386 -0.0371
  456loPI   C2A 7288   7.023  14.352  10.398 -0.1141 -0.0990 -0.1985
  456loPI   C3A 7289   6.942  14.387   9.919 -0.2062 -0.0105 -0.0478
  456loPI   C4A 7290   6.879  14.384   9.478 -0.2888  0.1371 -0.0764
  456loPI   C5A 7291   6.892  14.459   9.092  0.1038 -0.0791 -0.0404
  456loPI   C6A 7292   6.739  14.583   8.732 -0.0781 -0.0239 -0.0049
  456loPI   C1B 7293   7.449  14.468  10.600 -0.1862  0.0414 -0.0835
  456loPI   C2B 7294   7.481  14.466  10.161 -0.2285  0.0934  0.0191
  456loPI   C3B 7295   7.458  14.391   9.705 -0.0959  0.2165 -0.4128
  456loPI   C4B 7296   7.373  14.541   9.313 -0.2333 -0.1329 -0.2869
  457loPI    C1 7297   2.210   3.083  11.602  0.1073 -0.0575  0.0968
  457loPI    C2 7298   2.123   3.047  11.991 -0.1048 -0.0780  0.0488
  457loPI    C3 7299   2.259   2.731  11.786 -0.0971 -0.0955  0.0809
  457loPI   PO4 7300   2.057   3.197  11.535 -0.1635 -0.1364 -0.0870
  457loPI   GL1 7301   1.730   3.267  11.247  0.2993  0.0161 -0.0684
  457loPI   GL2 7302   1.415   3.021  11.332  0.0825  0.0572 -0.0483
  457loPI   C1A 7303   1.756   3.473  10.888 -0.0375 -0.0610  0.0858
  457loPI   C2A 7304   1.704   3.495  10.483  0.0565  0.0495 -0.4158
  457loPI   C3A 7305   1.689   3.516  10.082  0.0996 -0.0086  0.1358
  457loPI   C4A 7306   1.730   3.508   9.703 -0.0731 -0.1562  0.2245
  457loPI   C5A 7307   1.638   3.490   9.245 -0.0975 -0.2122  0.0816
  457loPI   C6A 7308   1.593   3.344   8.804 -0.1060 -0.0810 -0.2089
  457loPI   C1B 7309   1.517   2.890  10.969 -0.2074  0.1405 -0.3156
  457loPI   C2B 7310   1.570   3.031  10.496  0.4974  0.1236 -0.2402
  457loPI   C3B 7311   1.481   3.070  10.099 -0.0405 -0.1706  0.1708
  457loPI   C4B 7312   1.542   3.002   9.675 -0.0674 -0.4915  0.3178
  458loPI    C1 7313   2.372   2.192  11.885  0.1395  0.1140  0.0533
  458loPI    C2 7314   2.311   1.816  12.007 -0.0934  0.0859 -0.1433
  458loPI    C3 7315   2.565   2.051  12.206 -0.0025 -0.1510  0.0257
  458loPI   PO4 7316   2.366   2.137  11.628 -0.0555  0.0301  0.2687
  458loPI   GL1 7317   2.495   2.069  11.249 -0.2431  0.2109  0.0035
  458loPI   GL2 7318   2.269   2.239  11.102 -0.0152  0.2116  0.1121
  458loPI   C1A 7319   2.535   1.844  10.939  0.0979 -0.0374 -0.2206
  458loPI   C2A 7320   2.413   1.752  10.462  0.0633  0.2577 -0.0389
  458loPI   C3A 7321   2.498   1.777  10.015 -0.0074 -0.3194  0.0165
  458loPI   C4A 7322   2.403   1.861   9.571  0.1133  0.0944  0.1331
  458loPI   C5A 7323   2.609   1.955   9.200 -0.0065 -0.1236  0.0973
  458loPI   C6A 7324   2.837   1.911   8.862  0.1182  0.0230  0.0096
  458loPI   C1B 7325   2.121   2.129  10.714 -0.1786  0.1007 -0.1356
  458loPI   C2B 7326   2.048   2.298  10.292 -0.2944 -0.2570 -0.2481
  458loPI   C3B 7327   2.142   2.232   9.792  0.0628 -0.3686  0.0287
  458loPI   C4B 7328   2.100   2.190   9.377 -0.0014 -0.0949 -0.0987
  459loPI    C1 7329  14.607  12.138  11.975  0.0919 -0.0516  0.1959
  459loPI    C2 7330  14.335  12.325  12.202 -0.0233 -0.0376  0.0473
  459loPI    C3 7331  14.648  12.144  12.373  0.0381  0.2087  0.1990
  459loPI   PO4 7332  14.638  12.325  11.758  0.0851 -0.1252 -0.0205
  459loPI   GL1 7333  14.694  12.238  11.338 -0.3254  0.2450  0.3815
  459loPI   GL2 7334  14.532  12.519  11.316  0.1380 -0.1283  0.2242
  459loPI   C1A 7335  14.707  12.043  10.891  0.3626  0.1858  0.2433
  459loPI   C2A 7336  14.493  11.967  10.500  0.1540  0.0351  0.1706
  459loPI   C3A 7337  14.681  12.042  10.182  0.2722  0.2119  0.2843
  459loPI   C4A 7338  14.516  12.282   9.893 -0.0250  0.1128 -0.1175
  459loPI   C5A 7339  14.395  12.362   9.519 -0.4466  0.2180 -0.0717
  459loPI   C6A 7340  14.469  12.701   9.242  0.1284  0.0564  0.1039
  459loPI   C1B 7341  14.803  12.549  10.945  0.0158  0.2746  0.0654
  459loPI   C2B 7342  14.868  12.429  10.483 -0.3116 -0.0168  0.2620
  459loPI   C3B 7343  14.937  12.471  10.014 -0.1989  0.2477  0.0447
  459loPI   C4B 7344  14.865  12.378   9.536 -0.2844  0.1200  0.2058
  460loPI    C1 7345  12.958  12.915  11.662  0.1094 -0.0355  0.1250
  460loPI    C2 7346  13.187  13.104  11.931  0.1226  0.0421  0.0594
  460loPI    C3 7347  12.788  13.111  11.967  0.1287 -0.0618  0.1529
  460loPI   PO4 7348  13.105  12.686  11.553  0.0755  0.1694 -0.2160
  460loPI   GL1 7349  13.410  12.780  11.194  0.1141 -0.4228 -0.0666
  460loPI   GL2 7350  13.489  12.531  11.288  0.2861 -0.1798  0.0022
  460loPI   C1A 7351  13.468  12.753  10.818 -0.0605  0.0597  0.1933
  460loPI   C2A 7352  13.592  12.659  10.360 -0.0707  0.0236 -0.1422
  460loPI   C3A 7353  13.628  12.586   9.862  0.0839  0.0248 -0.1222
  460loPI   C4A 7354  13.504  12.655   9.499  0.5224  0.0493 -0.0194
  460loPI   C5A 7355  13.148  12.638   9.218  0.0627  0.0974 -0.0435
  460loPI   C6A 7356  12.840  12.814   9.114  0.1031  0.0949 -0.0368
  460loPI   C1B 7357  13.383  12.244  10.938 -0.2201 -0.0041  0.1099
  460loPI   C2B 7358  13.314  12.108  10.538 -0.1720 -0.2826  0.1133
  460loPI   C3B 7359  13.388  12.224  10.114 -0.2161  0.0641  0.1264
  460loPI   C4B 7360  13.338  12.138   9.741 -0.0835 -0.1867  0.0758
  461loPI    C1 7361   3.224  14.389  11.703  0.1170 -0.1806  0.1122
  461loPI    C2 7362   2.829  14.417  11.756  0.0855 -0.1134 -0.1439
  461loPI    C3 7363   3.069  14.356  12.070 -0.1354 -0.2535  0.0012
  461loPI   PO4 7364   3.228  14.279  11.466 -0.1379  0.1409  0.1971
  461loPI   GL1 7365   2.852  14.131  11.323  0.0921  0.2432 -0.0817
  461loPI   GL2 7366   2.741  13.874  11.093 -0.2058 -0.0304  0.1451
  461loPI   C1A 7367   2.952  14.247  10.880  0.1522 -0.0477 -0.0479
  461loPI   C2A 7368   2.941  14.239  10.461  0.0169 -0.0419  0.0501
  461loPI   C3A 7369   2.993  14.234  10.068 -0.1403 -0.1542 -0.0849
  461loPI   C4A 7370   3.054  14.208   9.640 -0.0085 -0.1564 -0.1988
  461loPI   C5A 7371   3.043  14.145   9.267 -0.3534  0.3370 -0.2887
  461loPI   C6A 7372   2.985  13.996   8.817 -0.0109 -0.0273 -0.2212
  461loPI   C1B 7373   2.779  13.758  10.797 -0.2727  0.0992  0.1756
  461loPI   C2B 7374   2.730  13.836  10.404 -0.0094 -0.0643  0.2420
  461loPI   C3B 7375   2.763  13.768   9.960 -0.0221 -0.3687 -0.1236
  461loPI   C4B 7376   2.736  13.781   9.509 -0.1494 -0.1535 -0.0948
  462loPI    C1 7377  11.526  12.959  11.904  0.1499  0.0495 -0.1039
  462loPI    C2 7378  11.782  13.255  11.987  0.1684 -0.0204  0.0938
  462loPI    C3 7379  11.624  13.038  12.284  0.0769 -0.1435 -0.0435
  462loPI   PO4 7380  11.728  12.778  11.661  0.3045  0.1566 -0.0683
  462loPI   GL1 7381  11.921  12.946  11.266 -0.1695  0.0254 -0.1314
  462loPI   GL2 7382  11.830  13.217  11.058 -0.0410  0.0481  0.1120
  462loPI   C1A 7383  12.122  12.884  10.947 -0.0747  0.1105 -0.2636
  462loPI   C2A 7384  12.143  12.823  10.494  0.0550  0.0896 -0.0862
  462loPI   C3A 7385  12.146  12.880  10.036  0.0204  0.0152  0.3854
  462loPI   C4A 7386  12.155  12.837   9.599 -0.0425  0.3527  0.0262
  462loPI   C5A 7387  11.921  12.837   9.151  0.2990  0.1211 -0.0788
  462loPI   C6A 7388  11.850  12.879   8.756 -0.0049  0.3355 -0.0341
  462loPI   C1B 7389  11.821  13.240  10.653  0.3297  0.0859  0.2413
  462loPI   C2B 7390  11.848  13.180  10.295 -0.3186  0.2563 -0.2916
  462loPI   C3B 7391  11.773  13.259   9.877 -0.0080 -0.0437 -0.1409
  462loPI   C4B 7392  11.836  13.185   9.508 -0.1036  0.0198  0.1892
  463loPI    C1 7393   2.152   8.451  11.694 -0.0768  0.1474  0.0546
  463loPI    C2 7394   2.032   8.669  12.008 -0.2813 -0.1418  0.1811
  463loPI    C3 7395   2.022   8.269  12.026  0.0907 -0.1661 -0.0476
  463loPI   PO4 7396   2.093   8.455  11.539  0.2136  0.0570 -0.2861
  463loPI   GL1 7397   2.022   8.430  11.165 -0.2963 -0.1696  0.2589
  463loPI   GL2 7398   2.323   8.563  11.055  0.2889  0.0699  0.4528
  463loPI   C1A 7399   2.069   8.129  10.757  0.1506  0.0937 -0.1219
  463loPI   C2A 7400   2.051   8.138  10.323 -0.3781 -0.0135 -0.2389
  463loPI   C3A 7401   2.125   8.213   9.954  0.1435 -0.0568  0.0101
  463loPI   C4A 7402   2.150   8.251   9.462  0.2117 -0.1751  0.1739
  463loPI   C5A 7403   2.352   8.433   9.050  0.0049 -0.1789 -0.0424
  463loPI   C6A 7404   2.638   8.720   8.758  0.1139  0.1190 -0.1842
  463loPI   C1B 7405   2.174   8.674  10.723 -0.1546  0.0035  0.1419
  463loPI   C2B 7406   2.291   8.642  10.296  0.3815 -0.1446  0.2435
  463loPI   C3B 7407   2.373   8.658   9.887  0.6045 -0.2038  0.2019
  463loPI   C4B 7408   2.371   8.772   9.462  0.1193 -0.0487  0.1268
  464loPI    C1 7409   9.256   7.787  11.591 -0.1847  0.1027  0.1122
  464loPI    C2 7410   9.299   7.845  11.985 -0.2152  0.3261  0.0841
  464loPI    C3 7411   9.267   7.473  11.840 -0.0416  0.2344  0.2749
  464loPI   PO4 7412   9.434   7.808  11.452  0.0538 -0.3169  0.3570
  464loPI   GL1 7413   9.481   7.797  11.009  0.1448 -0.2120 -0.2322
  464loPI   GL2 7414   9.517   7.512  10.998  0.2950  0.3002 -0.0092
  464loPI   C1A 7415   9.267   7.800  10.677  0.0537  0.0329 -0.1052
  464loPI   C2A 7416   9.227   7.899  10.138 -0.0224  0.0441 -0.0552
  464loPI   C3A 7417   9.259   7.925   9.742  0.0098 -0.2731  0.1066
  464loPI   C4A 7418   9.052   7.795   9.341  0.0514  0.2377  0.1536
  464loPI   C5A 7419   9.021   7.483   8.912 -0.0675 -0.1005 -0.0981
  464loPI   C6A 7420   9.097   7.131   8.680  0.0071 -0.3682 -0.0652
  464loPI   C1B 7421   9.675   7.377  10.624 -0.0822 -0.0101  0.2280
  464loPI   C2B 7422   9.567   7.482  10.251  0.2374 -0.0288  0.2674
  464loPI   C3B 7423   9.621   7.421   9.787  0.2301 -0.0556 -0.0742
  464loPI   C4B 7424   9.506   7.517   9.374 -0.0260 -0.0865 -0.0356
  465loPI    C1 7425   9.881   6.197  11.675 -0.0768  0.1936  0.1573
  465loPI    C2 7426  10.202   6.417  11.768  0.1545 -0.1191  0.1113
  465loPI    C3 7427  10.128   6.076  11.965 -0.1791 -0.0249  0.1552
  465loPI   PO4 7428   9.907   6.135  11.420  0.2560 -0.1285  0.1172
  465loPI   GL1 7429  10.016   6.229  10.997 -0.1949  0.1990 -0.0005
  465loPI   GL2 7430  10.305   6.272  11.072  0.0657 -0.1018 -0.0237
  465loPI   C1A 7431  10.043   6.131  10.575 -0.0845  0.1997 -0.3305
  465loPI   C2A 7432   9.975   6.094  10.146  0.2167 -0.1254  0.0030
  465loPI   C3A 7433   9.911   6.082   9.707 -0.0269 -0.1015  0.1182
  465loPI   C4A 7434   9.856   6.068   9.293 -0.0355  0.2171 -0.2040
  465loPI   C5A 7435  10.066   6.196   9.081  0.0329  0.1514 -0.2499
  465loPI   C6A 7436  10.415   6.377   8.927 -0.0550 -0.1309  0.1654
  465loPI   C1B 7437  10.501   6.324  10.679  0.3352 -0.1166  0.0432
  465loPI   C2B 7438  10.504   6.299  10.271 -0.0072  0.0448 -0.1046
  465loPI   C3B 7439  10.367   6.226   9.872  0.3022 -0.2104  0.0551
  465loPI   C4B 7440  10.437   6.256   9.438 -0.0442  0.2556 -0.0612
  466loPI    C1 7441  12.169  10.443  11.579 -0.1388  0.2391 -0.0969
  466loPI    C2 7442  11.961  10.179  11.795  0.0981  0.0263 -0.1246
  466loPI    C3 7443  11.990  10.558  11.918 -0.1220  0.0070 -0.0073
  466loPI   PO4 7444  12.044  10.356  11.312 -0.0212 -0.0998 -0.3589
  466loPI   GL1 7445  12.035  10.090  10.969  0.0957  0.0515  0.0451
  466loPI   GL2 7446  12.347   9.949  10.995  0.0313  0.3262 -0.2202
  466loPI   C1A 7447  12.050  10.175  10.520 -0.0594  0.3634 -0.0591
  466loPI   C2A 7448  12.052  10.073  10.077  0.3740  0.2918 -0.0629
  466loPI   C3A 7449  12.103  10.158   9.666  0.1340  0.0475  0.0761
  466loPI   C4A 7450  12.037  10.150   9.269 -0.3472  0.0642 -0.1888
  466loPI   C5A 7451  12.142   9.954   8.816  0.0077 -0.2450 -0.0715
  466loPI   C6A 7452  12.506   9.858   8.720  0.3465  0.2678  0.1168
  466loPI   C1B 7453  12.388   9.749  10.589 -0.2440  0.1972  0.1938
  466loPI   C2B 7454  12.315   9.649  10.165 -0.0367 -0.1024 -0.0086
  466loPI   C3B 7455  12.283   9.671   9.736 -0.2310 -0.3019  0.2129
  466loPI   C4B 7456  12.366   9.786   9.265  0.0934  0.2214 -0.1067
  467loPI    C1 7457   6.113   4.114  11.428 -0.0912 -0.0996  0.0039
  467loPI    C2 7458   6.274   3.864  11.696 -0.0443 -0.0053  0.0643
  467loPI    C3 7459   6.178   4.237  11.803 -0.0058  0.0397 -0.0560
  467loPI   PO4 7460   6.261   4.098  11.239 -0.0355 -0.1712  0.0244
  467loPI   GL1 7461   6.376   4.271  10.900 -0.1341 -0.1856 -0.2799
  467loPI   GL2 7462   6.236   4.371  10.808 -0.0332 -0.0739  0.0278
  467loPI   C1A 7463   6.819   4.295  10.720  0.0283  0.0753 -0.0989
  467loPI   C2A 7464   6.946   4.239  10.322 -0.2377  0.0802 -0.2800
  467loPI   C3A 7465   6.922   4.296   9.878 -0.0399  0.1506  0.1889
  467loPI   C4A 7466   6.828   4.236   9.483  0.0813  0.4021 -0.0930
  467loPI   C5A 7467   6.836   4.347   9.082 -0.0506  0.1452 -0.1676
  467loPI   C6A 7468   7.104   4.263   8.621 -0.3255 -0.2200 -0.1355
  467loPI   C1B 7469   6.424   4.246  10.377 -0.2867  0.1704  0.2311
  467loPI   C2B 7470   6.450   4.129   9.976  0.1471 -0.2132  0.2699
  467loPI   C3B 7471   6.324   4.187   9.557 -0.0640  0.4528 -0.0290
  467loPI   C4B 7472   6.350   4.270   9.075 -0.1770  0.0451 -0.0249
  468loPI    C1 7473  14.007   8.662  11.731  0.2160 -0.0271  0.0043
  468loPI    C2 7474  13.800   8.332  11.822  0.2870 -0.0286  0.1623
  468loPI    C3 7475  13.745   8.668  12.032  0.1739  0.0775 -0.0342
  468loPI   PO4 7476  14.069   8.685  11.525  0.0463 -0.1016 -0.2818
  468loPI   GL1 7477  13.942   8.676  11.050  0.2548 -0.0874 -0.2795
  468loPI   GL2 7478  14.025   8.991  11.114 -0.0631 -0.0114  0.1045
  468loPI   C1A 7479  13.909   8.546  10.648 -0.3051  0.2499  0.0635
  468loPI   C2A 7480  13.888   8.593  10.222 -0.1807  0.1189 -0.2906
  468loPI   C3A 7481  13.881   8.555   9.770  0.2691  0.1997 -0.1992
  468loPI   C4A 7482  13.841   8.513   9.365  0.3051 -0.0025 -0.1517
  468loPI   C5A 7483  14.087   8.721   9.082 -0.3609 -0.1024 -0.1017
  468loPI   C6A 7484  14.472   9.019   9.108  0.2057 -0.0284 -0.1596
  468loPI   C1B 7485  14.072   8.996  10.671 -0.2407 -0.1424  0.1111
  468loPI   C2B 7486  14.045   9.064  10.240 -0.0759  0.0337  0.2125
  468loPI   C3B 7487  13.998   9.038   9.854 -0.1569 -0.0197  0.4658
  468loPI   C4B 7488  13.945   9.034   9.397  0.0700 -0.0425 -0.0042
  469loPI    C1 7489  12.083  12.066  11.615 -0.0124  0.0664  0.0807
  469loPI    C2 7490  11.867  12.300  11.858 -0.1890 -0.2330  0.2172
  469loPI    C3 7491  12.260  12.259  11.918 -0.0669  0.3845 -0.0860
  469loPI   PO4 7492  12.091  12.093  11.392  0.3462 -0.0831 -0.1769
  469loPI   GL1 7493  11.995  12.374  10.955  0.1213 -0.0034  0.1393
  469loPI   GL2 7494  12.363  12.302  11.075 -0.1769  0.1646 -0.3381
  469loPI   C1A 7495  11.973  12.313  10.465  0.0651 -0.0359 -0.1564
  469loPI   C2A 7496  11.924  12.390  10.023 -0.1282 -0.2309  0.2368
  469loPI   C3A 7497  12.015  12.372   9.545 -0.1012  0.0456  0.1103
  469loPI   C4A 7498  11.922  12.242   9.176  0.1838 -0.1806  0.0675
  469loPI   C5A 7499  11.860  12.316   8.708  0.1010 -0.1530  0.0728
  469loPI   C6A 7500  11.983  12.464   8.378  0.2012 -0.3458  0.3852
  469loPI   C1B 7501  12.440  12.484  10.745  0.0660 -0.1541  0.0607
  469loPI   C2B 7502  12.508  12.463  10.237 -0.0946 -0.0087 -0.0292
  469loPI   C3B 7503  12.455  12.425   9.822 -0.3003  0.1257  0.0863
  469loPI   C4B 7504  12.543  12.438   9.430  0.0231  0.1539  0.1096
  470loPI    C1 7505   2.226   5.444  11.719  0.0030 -0.1207  0.0275
  470loPI    C2 7506   2.515   5.570  11.965 -0.0328  0.0757 -0.0293
  470loPI    C3 7507   2.335   5.219  12.031 -0.0715  0.1458  0.2490
  470loPI   PO4 7508   2.335   5.573  11.428 -0.2118  0.0964 -0.0295
  470loPI   GL1 7509   2.400   5.482  11.057 -0.0729  0.1001  0.1906
  470loPI   GL2 7510   2.206   5.771  10.947  0.1016  0.1889 -0.1793
  470loPI   C1A 7511   2.455   5.379  10.578 -0.3562 -0.1233 -0.0877
  470loPI   C2A 7512   2.475   5.361  10.173 -0.0514 -0.0676 -0.0603
  470loPI   C3A 7513   2.544   5.434   9.775  0.1004  0.1770 -0.0280
  470loPI   C4A 7514   2.375   5.550   9.400  0.1790  0.0171 -0.0672
  470loPI   C5A 7515   2.243   5.636   9.041 -0.1003 -0.2568  0.0047
  470loPI   C6A 7516   2.064   5.660   8.645  0.2477  0.1143 -0.0300
  470loPI   C1B 7517   2.038   5.747  10.563 -0.1602 -0.0851 -0.0670
  470loPI   C2B 7518   1.990   5.786  10.168 -0.1102  0.3577  0.0123
  470loPI   C3B 7519   2.102   5.804   9.770  0.1348  0.2345  0.0718
  470loPI   C4B 7520   2.032   5.921   9.419  0.1168  0.2256  0.0389
  471loPI    C1 7521  13.220   3.653  11.755  0.2758 -0.0541  0.2031
  471loPI    C2 7522  13.126   4.034  11.833 -0.0683 -0.1012  0.0369
  471loPI    C3 7523  13.031   3.747  12.095  0.0841 -0.0880  0.1075
  471loPI   PO4 7524  13.106   3.558  11.555  0.0444  0.1402 -0.0464
  471loPI   GL1 7525  13.218   3.560  11.022 -0.3754 -0.1265  0.0025
  471loPI   GL2 7526  12.944   3.485  10.934 -0.0843  0.0493  0.1005
  471loPI   C1A 7527  13.355   3.427  10.631  0.1256  0.3205  0.2627
  471loPI   C2A 7528  13.348   3.317  10.159  0.2054 -0.4440  0.0391
  471loPI   C3A 7529  13.238   3.446   9.730 -0.0484 -0.2623 -0.2279
  471loPI   C4A 7530  13.212   3.452   9.307  0.3830  0.1316  0.0065
  471loPI   C5A 7531  13.273   3.197   8.977  0.1111 -0.1524  0.2074
  471loPI   C6A 7532  13.513   3.471   8.752  0.1334  0.0162 -0.0386
  471loPI   C1B 7533  12.844   3.350  10.495  0.2527 -0.4249 -0.0608
  471loPI   C2B 7534  12.853   3.277  10.073 -0.0896  0.0108  0.0462
  471loPI   C3B 7535  12.729   3.316   9.552 -0.1791 -0.0952  0.0753
  471loPI   C4B 7536  12.754   3.324   9.087  0.1019  0.3255 -0.2324
  472loPI    C1 7537  14.959   8.891  11.888  0.3066  0.0727  0.0505
  472loPI    C2 7538  15.101   9.133  12.173 -0.0683 -0.0165  0.3215
  472loPI    C3 7539  14.763   8.929  12.235 -0.0679 -0.1646 -0.1288
  472loPI   PO4 7540  14.961   9.011  11.538 -0.2341 -0.3620  0.1701
  472loPI   GL1 7541  14.951   8.905  11.123  0.0453  0.1947  0.0173
  472loPI   GL2 7542  14.884   8.475  11.105  0.1398  0.0112  0.0906
  472loPI   C1A 7543  14.857   8.809  10.659 -0.1367  0.2213  0.1643
  472loPI   C2A 7544  14.922   8.761  10.293 -0.0639  0.1935  0.3107
  472loPI   C3A 7545  14.846   8.772   9.835 -0.2286 -0.0602  0.3229
  472loPI   C4A 7546  14.878   8.791   9.403  0.1972 -0.1071 -0.0070
  472loPI   C5A 7547  14.690   8.541   9.070  0.0064  0.0348  0.1137
  472loPI   C6A 7548  14.726   8.155   9.174 -0.0031  0.0805  0.1993
  472loPI   C1B 7549  14.771   8.229  10.915 -0.0125  0.1530  0.0339
  472loPI   C2B 7550  14.727   8.289  10.521 -0.1053  0.0197  0.0912
  472loPI   C3B 7551  14.665   8.297  10.053  0.0329  0.3000  0.1140
  472loPI   C4B 7552  14.701   8.352   9.641  0.0668 -0.1217  0.1764
  473loPI    C1 7553  17.053   0.133  12.119 -0.0167 -0.0923  0.0453
  473loPI    C2 7554  17.420  -0.026  12.126  0.0789  0.1305  0.3277
  473loPI    C3 7555  17.212   0.009  12.465 -0.1731  0.0805  0.1808
  473loPI   PO4 7556  17.061   0.147  11.822 -0.0686  0.0691  0.4500
  473loPI   GL1 7557  16.927   0.011  11.515  0.1549 -0.1033  0.0878
  473loPI   GL2 7558  16.896  -0.183  11.373  0.0765 -0.0090 -0.1966
  473loPI   C1A 7559  16.951   0.303  11.079  0.1236  0.1011  0.1970
  473loPI   C2A 7560  16.943   0.277  10.640 -0.0003  0.0442 -0.0343
  473loPI   C3A 7561  16.976   0.378  10.192 -0.3118  0.1152 -0.1414
  473loPI   C4A 7562  17.045   0.392   9.799  0.1060  0.2893 -0.0280
  473loPI   C5A 7563  17.043   0.311   9.379 -0.2379 -0.1916 -0.1404
  473loPI   C6A 7564  17.266   0.216   8.967  0.0633 -0.2940  0.0142
  473loPI   C1B 7565  16.792  -0.131  11.001  0.1404  0.0055 -0.0318
  473loPI   C2B 7566  16.722  -0.130  10.579  0.1314 -0.0922 -0.1449
  473loPI   C3B 7567  16.760  -0.136  10.113  0.1079 -0.1483 -0.4717
  473loPI   C4B 7568  16.835  -0.047   9.659  0.2983 -0.5347 -0.2322
  474loPI    C1 7569   5.850   2.115  11.697 -0.1124 -0.1754 -0.1662
  474loPI    C2 7570   5.507   2.044  11.890 -0.1178  0.0744 -0.0800
  474loPI    C3 7571   5.816   1.794  11.932 -0.1117  0.1365  0.2716
  474loPI   PO4 7572   5.912   2.209  11.435 -0.1661  0.1278  0.1451
  474loPI   GL1 7573   5.984   2.146  11.074 -0.0604 -0.2655  0.2869
  474loPI   GL2 7574   6.037   2.534  10.946  0.0098  0.1233  0.0471
  474loPI   C1A 7575   5.989   1.872  10.737  0.2241  0.0590 -0.1313
  474loPI   C2A 7576   5.995   1.769  10.309 -0.1400 -0.1632  0.2250
  474loPI   C3A 7577   5.999   1.818   9.929 -0.1123  0.0607 -0.1803
  474loPI   C4A 7578   5.938   1.791   9.522  0.0868 -0.0924 -0.3492
  474loPI   C5A 7579   6.000   1.998   9.017  0.2039 -0.0806  0.2932
  474loPI   C6A 7580   6.125   2.308   8.884  0.3650  0.1725  0.1555
  474loPI   C1B 7581   6.152   2.331  10.597 -0.1632 -0.1684  0.3921
  474loPI   C2B 7582   6.200   2.311  10.273 -0.1156  0.2464 -0.1379
  474loPI   C3B 7583   6.139   2.353   9.803 -0.1932  0.0246  0.0859
  474loPI   C4B 7584   6.153   2.394   9.369  0.1040  0.2435  0.0253
  475loPI    C1 7585  13.880  15.948  11.679  0.3230  0.2690 -0.0021
  475loPI    C2 7586  13.659  15.748  11.946  0.0104 -0.0155 -0.4606
  475loPI    C3 7587  13.699  16.144  11.977  0.0715 -0.0557  0.0657
  475loPI   PO4 7588  13.870  15.748  11.443 -0.3657  0.4891 -0.2380
  475loPI   GL1 7589  13.881  15.397  11.227  0.0265 -0.0525  0.2555
  475loPI   GL2 7590  13.803  15.107  11.227 -0.0923 -0.1871 -0.2906
  475loPI   C1A 7591  13.982  15.482  10.896 -0.0447 -0.0362 -0.0272
  475loPI   C2A 7592  14.113  15.498  10.531  0.0441 -0.2290  0.2075
  475loPI   C3A 7593  14.281  15.412  10.048  0.2212  0.2189 -0.0096
  475loPI   C4A 7594  14.256  15.484   9.620 -0.0453  0.2574  0.4503
  475loPI   C5A 7595  14.361  15.530   9.167  0.1383  0.2288 -0.1842
  475loPI   C6A 7596  14.337  15.405   8.775  0.0322 -0.2457  0.0552
  475loPI   C1B 7597  13.837  15.046  10.720  0.0117 -0.1445 -0.0590
  475loPI   C2B 7598  13.995  15.046  10.404 -0.0402 -0.2167  0.0218
  475loPI   C3B 7599  14.081  14.964  10.002  0.1938  0.1117 -0.1079
  475loPI   C4B 7600  13.970  14.970   9.538 -0.1426  0.0057  0.0334
  476loPI    C1 7601   2.133   3.715  11.729  0.0213 -0.0819 -0.0808
  476loPI    C2 7602   1.865   3.524  11.956 -0.1051  0.1350 -0.0447
  476loPI    C3 7603   1.879   3.924  11.957  0.0600  0.1310 -0.2297
  476loPI   PO4 7604   2.085   3.667  11.421  0.1151 -0.1554 -0.2139
  476loPI   GL1 7605   2.225   3.651  11.028  0.1307  0.3637  0.2396
  476loPI   GL2 7606   2.292   3.312  11.103  0.0394 -0.1224 -0.2023
  476loPI   C1A 7607   2.161   3.552  10.541 -0.4123  0.2089  0.0495
  476loPI   C2A 7608   2.239   3.516  10.159  0.1117  0.1412 -0.0517
  476loPI   C3A 7609   2.242   3.553   9.778 -0.1454  0.1271  0.0400
  476loPI   C4A 7610   2.212   3.567   9.336 -0.2823  0.2684  0.1173
  476loPI   C5A 7611   2.065   3.490   8.855 -0.1495 -0.0383 -0.0074
  476loPI   C6A 7612   2.217   3.806   8.631  0.0279  0.0616 -0.0113
  476loPI   C1B 7613   2.459   3.175  10.752  0.0253 -0.3220  0.1413
  476loPI   C2B 7614   2.543   3.223  10.421  0.0574  0.0284 -0.1931
  476loPI   C3B 7615   2.564   3.157   9.989 -0.1167 -0.0375  0.2858
  476loPI   C4B 7616   2.572   3.241   9.487  0.1701 -0.3210 -0.0458
  477loPI    C1 7617   3.180  14.870  11.718 -0.0764 -0.0339  0.1015
  477loPI    C2 7618   2.783  14.916  11.739 -0.0517  0.1631  0.1583
  477loPI    C3 7619   3.003  14.919  12.073 -0.0450 -0.3768  0.1681
  477loPI   PO4 7620   3.218  15.036  11.415  0.0976  0.0697  0.0563
  477loPI   GL1 7621   3.213  15.125  11.075  0.3964 -0.2038  0.2934
  477loPI   GL2 7622   2.946  15.114  10.838 -0.1293  0.2542  0.2457
  477loPI   C1A 7623   3.420  15.310  10.646  0.0335  0.2130 -0.0566
  477loPI   C2A 7624   3.406  15.331  10.221  0.0333  0.2862  0.1391
  477loPI   C3A 7625   3.389  15.174   9.774 -0.0624 -0.4436 -0.0095
  477loPI   C4A 7626   3.462  15.117   9.427 -0.0479  0.2857  0.1307
  477loPI   C5A 7627   3.363  15.250   8.999  0.1743 -0.0397 -0.1217
  477loPI   C6A 7628   3.140  15.522   9.039 -0.3754  0.1844 -0.0236
  477loPI   C1B 7629   2.803  15.081  10.360 -0.0410  0.2014 -0.2098
  477loPI   C2B 7630   2.893  15.163   9.866  0.0573 -0.1159  0.0228
  477loPI   C3B 7631   2.972  15.061   9.426 -0.0895  0.1646 -0.0088
  477loPI   C4B 7632   2.894  15.031   8.955 -0.1438 -0.0804  0.2812
  478loPI    C1 7633  12.211  13.564  11.889  0.0425  0.0570  0.0557
  478loPI    C2 7634  12.279  13.897  12.099  0.0131  0.0375  0.0963
  478loPI    C3 7635  12.301  13.540  12.278  0.0842  0.0152  0.0436
  478loPI   PO4 7636  12.304  13.608  11.717 -0.1709  0.1220  0.2944
  478loPI   GL1 7637  12.283  13.380  11.209 -0.0137  0.0358  0.1482
  478loPI   GL2 7638  12.202  13.687  11.179  0.1442 -0.2089  0.0026
  478loPI   C1A 7639  12.347  13.308  10.763 -0.2364  0.3803  0.0060
  478loPI   C2A 7640  12.374  13.240  10.346 -0.0186  0.0677 -0.3392
  478loPI   C3A 7641  12.395  13.342   9.954 -0.1234 -0.0737 -0.2339
  478loPI   C4A 7642  12.331  13.282   9.540  0.0180 -0.0805  0.2160
  478loPI   C5A 7643  12.276  13.493   9.201  0.0236 -0.0769  0.0306
  478loPI   C6A 7644  12.064  13.782   8.965 -0.0744 -0.1392 -0.1069
  478loPI   C1B 7645  12.057  13.692  10.752  0.0328  0.0002  0.0582
  478loPI   C2B 7646  12.090  13.835  10.332  0.1839 -0.1176 -0.0237
  478loPI   C3B 7647  12.080  13.709   9.924  0.0687  0.1615 -0.1032
  478loPI   C4B 7648  11.938  13.689   9.463 -0.0845  0.1696 -0.3246
  479loPI    C1 7649   8.417  16.983  11.915 -0.1820  0.1220  0.1212
  479loPI    C2 7650   8.133  17.239  12.032 -0.0504  0.2441  0.1757
  479loPI    C3 7651   8.417  17.123  12.289 -0.1214  0.0258  0.1577
  479loPI   PO4 7652   8.462  17.046  11.677 -0.0723 -0.0323 -0.2889
  479loPI   GL1 7653   8.215  16.882  11.205 -0.0794  0.0592  0.0850
  479loPI   GL2 7654   8.019  16.820  10.911 -0.0461 -0.0869  0.0407
  479loPI   C1A 7655   8.538  16.907  10.784 -0.1101  0.1560  0.0489
  479loPI   C2A 7656   8.543  16.943  10.361  0.1247  0.0368  0.0808
  479loPI   C3A 7657   8.461  16.790   9.944 -0.2034  0.0657 -0.0979
  479loPI   C4A 7658   8.517  16.748   9.529 -0.0468 -0.0163 -0.1715
  479loPI   C5A 7659   8.549  16.700   9.013  0.0951 -0.1727  0.2391
  479loPI   C6A 7660   8.239  16.812   8.849 -0.1000  0.0214  0.0043
  479loPI   C1B 7661   8.023  16.790  10.528 -0.1441  0.1559  0.0934
  479loPI   C2B 7662   7.980  16.805  10.113  0.2499 -0.1590  0.1016
  479loPI   C3B 7663   7.951  16.763   9.732 -0.1039 -0.0443 -0.0753
  479loPI   C4B 7664   7.994  16.813   9.286  0.0065 -0.0833 -0.2159
  480loPI    C1 7665  10.508  12.741  11.336  0.0341  0.0267 -0.0281
  480loPI    C2 7666  10.127  12.727  11.456  0.0447  0.1171  0.0178
  480loPI    C3 7667  10.419  12.607  11.702  0.0445  0.0268 -0.0256
  480loPI   PO4 7668  10.468  13.005  11.243  0.0907 -0.2436 -0.0854
  480loPI   GL1 7669  10.300  13.051  10.940 -0.1053  0.0116 -0.0162
  480loPI   GL2 7670  10.245  12.698  10.899 -0.3696 -0.0712  0.0661
  480loPI   C1A 7671  10.274  12.981  10.486 -0.0176 -0.2043  0.0649
  480loPI   C2A 7672  10.346  13.071  10.025  0.4111  0.0101 -0.0751
  480loPI   C3A 7673  10.300  13.064   9.551  0.1972  0.0176  0.0500
  480loPI   C4A 7674  10.227  13.004   9.081 -0.2143 -0.4250  0.1895
  480loPI   C5A 7675  10.065  12.807   8.741  0.0089  0.2438 -0.0632
  480loPI   C6A 7676  10.056  12.526   8.329 -0.0886 -0.1620  0.0004
  480loPI   C1B 7677  10.102  12.479  10.540  0.0043 -0.0992  0.0528
  480loPI   C2B 7678  10.112  12.484  10.106  0.2616  0.3038  0.0920
  480loPI   C3B 7679  10.095  12.532   9.654 -0.1098  0.0410 -0.2606
  480loPI   C4B 7680  10.059  12.509   9.139  0.0759  0.1773  0.0233
  481loPI    C1 7681  15.999  11.234  11.824 -0.1284 -0.2766 -0.0358
  481loPI    C2 7682  16.258  10.987  12.002 -0.0590 -0.0208  0.2255
  481loPI    C3 7683  15.867  10.958  12.082 -0.0588 -0.0920  0.2013
  481loPI   PO4 7684  15.993  11.281  11.586 -0.1517 -0.3046 -0.1813
  481loPI   GL1 7685  15.920  11.578  11.341  0.1967  0.1655 -0.1856
  481loPI   GL2 7686  15.699  11.886  11.236 -0.4110  0.0212  0.0843
  481loPI   C1A 7687  15.999  11.538  10.975 -0.1207  0.1065  0.0237
  481loPI   C2A 7688  16.076  11.691  10.559 -0.0634  0.1394  0.1977
  481loPI   C3A 7689  16.041  11.651  10.111 -0.1963 -0.2601  0.1206
  481loPI   C4A 7690  16.202  11.435   9.769 -0.2584  0.0144 -0.0566
  481loPI   C5A 7691  15.983  11.603   9.384 -0.0868 -0.0197 -0.0190
  481loPI   C6A 7692  15.541  11.595   9.250 -0.0584 -0.1262 -0.0267
  481loPI   C1B 7693  15.768  12.118  10.865  0.1056 -0.1535  0.4619
  481loPI   C2B 7694  15.732  12.226  10.446 -0.2913  0.1464  0.0023
  481loPI   C3B 7695  15.699  12.032  10.034 -0.2980  0.2048  0.2566
  481loPI   C4B 7696  15.717  12.027   9.589 -0.4156 -0.2051  0.2143
  482loPI    C1 7697  13.518  11.710  11.885  0.1517  0.0392 -0.2466
  482loPI    C2 7698  13.737  12.043  11.924  0.1215  0.0399 -0.0783
  482loPI    C3 7699  13.709  11.784  12.228 -0.0927  0.0286 -0.1059
  482loPI   PO4 7700  13.347  11.796  11.564 -0.3110 -0.4321  0.1392
  482loPI   GL1 7701  13.181  11.802  11.119  0.0765  0.0134  0.0469
  482loPI   GL2 7702  13.541  11.776  11.049 -0.0980 -0.4402 -0.0028
  482loPI   C1A 7703  13.110  11.660  10.781 -0.2109 -0.0622  0.1446
  482loPI   C2A 7704  13.148  11.668  10.401 -0.0483 -0.3870 -0.1661
  482loPI   C3A 7705  13.176  11.651   9.913 -0.0139  0.0459  0.0953
  482loPI   C4A 7706  13.169  11.707   9.482  0.0185  0.1491  0.1371
  482loPI   C5A 7707  13.129  11.651   9.087  0.1716  0.0129 -0.0044
  482loPI   C6A 7708  13.431  11.729   8.669 -0.1645 -0.0521  0.1407
  482loPI   C1B 7709  13.636  11.713  10.588  0.0057  0.1258 -0.1811
  482loPI   C2B 7710  13.666  11.752  10.205 -0.1448  0.0373 -0.0347
  482loPI   C3B 7711  13.671  11.746   9.779  0.0914 -0.1166  0.0700
  482loPI   C4B 7712  13.617  11.758   9.349  0.1180  0.1087  0.1232
  483loPI    C1 7713  11.937   8.503  11.534  0.0830  0.0222 -0.0057
  483loPI    C2 7714  11.848   8.187  11.763  0.3035  0.0452  0.1143
  483loPI    C3 7715  11.830   8.556  11.916  0.2850  0.0731  0.0450
  483loPI   PO4 7716  11.761   8.505  11.380 -0.1645 -0.3943 -0.3588
  483loPI   GL1 7717  11.651   8.460  10.968 -0.1187  0.0235 -0.2929
  483loPI   GL2 7718  11.478   8.231  10.924  0.1546 -0.6913 -0.0243
  483loPI   C1A 7719  11.515   8.545  10.575 -0.0157  0.2509 -0.1431
  483loPI   C2A 7720  11.453   8.594  10.100 -0.2001 -0.3267 -0.0410
  483loPI   C3A 7721  11.480   8.609   9.695  0.0562 -0.1288 -0.2241
  483loPI   C4A 7722  11.464   8.557   9.334  0.2841 -0.1588 -0.0599
  483loPI   C5A 7723  11.432   8.540   8.910 -0.0804 -0.0451 -0.0855
  483loPI   C6A 7724  11.460   8.748   8.534  0.1001 -0.2839  0.3911
  483loPI   C1B 7725  11.404   8.076  10.536 -0.0863  0.0249 -0.3031
  483loPI   C2B 7726  11.325   8.079  10.080 -0.2925 -0.0978 -0.3738
  483loPI   C3B 7727  11.228   8.164   9.645 -0.1160  0.0026 -0.0139
  483loPI   C4B 7728  11.269   8.157   9.178 -0.1138 -0.1778 -0.1057
  484loPI    C1 7729   5.663   5.628  11.522  0.0065 -0.1179  0.1908
  484loPI    C2 7730   5.308   5.789  11.613  0.0077  0.0440 -0.0799
  484loPI    C3 7731   5.645   5.988  11.697  0.0293 -0.0369  0.0280
  484loPI   PO4 7732   5.723   5.577  11.130  0.5627 -0.1894 -0.2122
  484loPI   GL1 7733   5.736   5.288  10.786 -0.0425  0.2199  0.1364
  484loPI   GL2 7734   5.878   5.486  10.531  0.1407 -0.0899  0.0336
  484loPI   C1A 7735   5.700   5.013  10.491  0.0644 -0.0536  0.3794
  484loPI   C2A 7736   5.856   5.013  10.027  0.1572 -0.0308  0.0045
  484loPI   C3A 7737   5.714   5.041   9.614 -0.0605 -0.1077  0.1605
  484loPI   C4A 7738   5.621   5.093   9.149  0.2324 -0.2320  0.0374
  484loPI   C5A 7739   5.411   5.191   8.779 -0.2983 -0.0557  0.0202
  484loPI   C6A 7740   5.165   5.516   8.590 -0.4268 -0.1722  0.1327
  484loPI   C1B 7741   5.933   5.480  10.206  0.2481 -0.0318  0.2125
  484loPI   C2B 7742   5.931   5.490   9.788 -0.1980 -0.2181  0.0619
  484loPI   C3B 7743   5.991   5.513   9.305  0.1391 -0.0617  0.0282
  484loPI   C4B 7744   5.843   5.515   8.908 -0.1087 -0.0517  0.0104
  485loPI    C1 7745   9.476  12.085  11.648  0.1596  0.0771  0.0576
  485loPI    C2 7746   9.401  12.247  11.289  0.1022 -0.1731 -0.0455
  485loPI    C3 7747   9.679  12.408  11.528  0.1847 -0.0417 -0.2279
  485loPI   PO4 7748   9.295  11.828  11.633  0.1427  0.1390  0.1864
  485loPI   GL1 7749   9.185  11.760  11.195  0.0848  0.1274  0.1880
  485loPI   GL2 7750   9.101  11.449  11.054  0.1915  0.1138 -0.1373
  485loPI   C1A 7751   9.430  11.950  10.844  0.2331 -0.0252 -0.1531
  485loPI   C2A 7752   9.475  12.008  10.479 -0.0319 -0.0747  0.1847
  485loPI   C3A 7753   9.381  12.024   9.988 -0.1822 -0.2325 -0.1481
  485loPI   C4A 7754   9.355  12.103   9.622  0.0805 -0.0953 -0.2609
  485loPI   C5A 7755   9.287  12.124   9.064  0.0427  0.0994 -0.2110
  485loPI   C6A 7756   9.306  11.847   8.760 -0.0327 -0.0244 -0.1005
  485loPI   C1B 7757   9.233  11.417  10.576 -0.1748 -0.1652 -0.1790
  485loPI   C2B 7758   9.202  11.523  10.137 -0.0751  0.1588 -0.3638
  485loPI   C3B 7759   9.268  11.569   9.619 -0.1639 -0.0990 -0.0558
  485loPI   C4B 7760   9.185  11.651   9.243 -0.2733 -0.1037  0.2794
  486loPI    C1 7761  12.008   9.062  11.472  0.1586  0.1018 -0.0098
  486loPI    C2 7762  12.220   8.955  11.794 -0.0558 -0.0474  0.0842
  486loPI    C3 7763  11.830   9.038  11.829 -0.0537  0.0553 -0.1171
  486loPI   PO4 7764  12.081   8.942  11.302  0.0765  0.1997 -0.2769
  486loPI   GL1 7765  11.915   8.909  10.909 -0.1931 -0.3988 -0.1160
  486loPI   GL2 7766  11.647   8.989  10.826  0.0376  0.1286  0.2737
  486loPI   C1A 7767  11.958   8.621  10.570 -0.2122  0.4900  0.0839
  486loPI   C2A 7768  12.034   8.630  10.189  0.0863  0.0775 -0.0579
  486loPI   C3A 7769  12.032   8.668   9.789  0.0504  0.4233 -0.1620
  486loPI   C4A 7770  11.900   8.714   9.410  0.0493  0.2213 -0.4125
  486loPI   C5A 7771  11.936   8.677   8.988 -0.0954  0.1696  0.0309
  486loPI   C6A 7772  11.922   8.547   8.521  0.3851  0.0841  0.0891
  486loPI   C1B 7773  11.723   9.111  10.436 -0.3465 -0.2953  0.2976
  486loPI   C2B 7774  11.726   9.055  10.017 -0.2410  0.0023  0.2118
  486loPI   C3B 7775  11.690   9.111   9.605 -0.1536  0.1632 -0.1367
  486loPI   C4B 7776  11.702   9.097   9.171  0.1038 -0.1897  0.1144
  487loPI    C1 7777  15.779   1.956  12.159  0.1301  0.0746  0.2090
  487loPI    C2 7778  15.467   2.103  12.361  0.0932  0.4199 -0.0895
  487loPI    C3 7779  15.413   1.806  12.099  0.0328  0.4117 -0.0681
  487loPI   PO4 7780  15.867   2.228  12.001  0.1802  0.0905 -0.1133
  487loPI   GL1 7781  15.862   2.344  11.511  0.1120  0.1084  0.1504
  487loPI   GL2 7782  16.010   2.149  11.545 -0.2075  0.0381 -0.1367
  487loPI   C1A 7783  15.852   2.493  11.052 -0.0050 -0.3063 -0.3794
  487loPI   C2A 7784  15.893   2.475  10.586  0.1047 -0.2425  0.1734
  487loPI   C3A 7785  15.861   2.547  10.185 -0.0352 -0.2246 -0.1766
  487loPI   C4A 7786  15.756   2.503   9.741  0.1216 -0.2336  0.0847
  487loPI   C5A 7787  15.679   2.678   9.257 -0.0991 -0.0626  0.3948
  487loPI   C6A 7788  15.577   3.090   9.048  0.2494  0.0342  0.2954
  487loPI   C1B 7789  16.181   2.109  11.203  0.2332  0.0177  0.1590
  487loPI   C2B 7790  16.237   2.073  10.653  0.1194  0.0708  0.3463
  487loPI   C3B 7791  16.209   2.033  10.195  0.1228  0.0225 -0.2240
  487loPI   C4B 7792  16.070   2.101   9.746 -0.0753 -0.1715 -0.1913
  488loPI    C1 7793   9.079   9.600  11.483  0.0468  0.1396  0.1552
  488loPI    C2 7794   9.278   9.853  11.720  0.0699  0.0965  0.1820
  488loPI    C3 7795   8.912   9.730  11.822  0.0524  0.1314  0.1611
  488loPI   PO4 7796   9.184   9.399  11.380 -0.0356 -0.2953  0.1711
  488loPI   GL1 7797   9.269   9.353  11.041  0.0791 -0.1741  0.1689
  488loPI   GL2 7798   9.505   9.619  10.901  0.0828  0.1544  0.1507
  488loPI   C1A 7799   9.244   9.261  10.591 -0.1140  0.1294 -0.2517
  488loPI   C2A 7800   9.279   9.175  10.134 -0.0575 -0.1909 -0.0825
  488loPI   C3A 7801   9.244   9.218   9.648 -0.1744 -0.1445 -0.0396
  488loPI   C4A 7802   9.275   9.238   9.239  0.1933  0.3180  0.1872
  488loPI   C5A 7803   9.459   9.154   8.786  0.1119  0.1482  0.2396
  488loPI   C6A 7804   9.930   9.226   8.693  0.0552  0.0624 -0.0054
  488loPI   C1B 7805   9.500   9.789  10.496 -0.1490  0.2252  0.0881
  488loPI   C2B 7806   9.502   9.797  10.072 -0.0834 -0.1655 -0.0254
  488loPI   C3B 7807   9.462   9.697   9.592  0.0475  0.0523  0.2236
  488loPI   C4B 7808   9.450   9.711   9.175 -0.0043  0.4276  0.0260
  489loPI    C1 7809   3.637  15.151  11.722  0.1029 -0.0235 -0.0857
  489loPI    C2 7810   3.439  15.170  12.069 -0.1718 -0.0399 -0.2387
  489loPI    C3 7811   3.829  15.083  12.066 -0.1848 -0.1204  0.0597
  489loPI   PO4 7812   3.580  15.321  11.566 -0.1563 -0.1604 -0.0119
  489loPI   GL1 7813   3.775  15.550  11.281  0.0970 -0.1262 -0.0096
  489loPI   GL2 7814   3.485  15.569  11.138 -0.2874 -0.0020  0.0454
  489loPI   C1A 7815   3.912  15.369  10.846 -0.1120 -0.0979 -0.4410
  489loPI   C2A 7816   3.871  15.375  10.436 -0.0303  0.0047 -0.3600
  489loPI   C3A 7817   3.871  15.308   9.972  0.2405  0.0627  0.0594
  489loPI   C4A 7818   3.970  15.264   9.496 -0.1463  0.0812 -0.0554
  489loPI   C5A 7819   4.019  15.331   9.077 -0.0506 -0.1822  0.2921
  489loPI   C6A 7820   3.854  15.466   8.663  0.2841 -0.0077  0.0763
  489loPI   C1B 7821   3.602  15.761  10.712  0.1502 -0.0890 -0.0583
  489loPI   C2B 7822   3.559  15.838  10.252  0.3130  0.1037 -0.2308
  489loPI   C3B 7823   3.609  15.715   9.821 -0.2959 -0.1453  0.2093
  489loPI   C4B 7824   3.628  15.605   9.377 -0.0624 -0.0539 -0.2716
  490loPI    C1 7825   2.926   8.997  11.634  0.0249  0.0593 -0.0900
  490loPI    C2 7826   3.317   9.049  11.701  0.0254  0.0229 -0.0644
  490loPI    C3 7827   3.059   9.342  11.786  0.0152 -0.0571  0.1888
  490loPI   PO4 7828   2.921   8.879  11.405  0.0976 -0.2266 -0.1944
  490loPI   GL1 7829   2.844   9.126  10.967 -0.0730 -0.0180 -0.0737
  490loPI   GL2 7830   2.688   8.882  11.000  0.2031  0.2276  0.2043
  490loPI   C1A 7831   3.064   9.182  10.617 -0.1686  0.1559  0.3450
  490loPI   C2A 7832   2.890   9.204  10.213  0.0272 -0.1581  0.0787
  490loPI   C3A 7833   3.005   9.209   9.828 -0.1003  0.0162 -0.0887
  490loPI   C4A 7834   2.981   9.369   9.436 -0.0783  0.1773  0.0419
  490loPI   C5A 7835   2.795   9.656   9.260 -0.1791 -0.1375 -0.2312
  490loPI   C6A 7836   2.744   9.788   8.868  0.3237 -0.1656 -0.0490
  490loPI   C1B 7837   2.696   8.770  10.669 -0.2270  0.0915 -0.0864
  490loPI   C2B 7838   2.741   8.710  10.184 -0.1299  0.0352 -0.1873
  490loPI   C3B 7839   2.804   8.774   9.700  0.1970  0.0914 -0.1234
  490loPI   C4B 7840   2.850   8.865   9.287 -0.0445 -0.0356  0.0952
  491loPI    C1 7841   8.614   4.325  11.759 -0.0465 -0.1689  0.0126
  491loPI    C2 7842   8.351   4.369  12.058 -0.0932 -0.2695 -0.0133
  491loPI    C3 7843   8.601   4.057  12.056 -0.0143 -0.2067 -0.0201
  491loPI   PO4 7844   8.437   4.291  11.461  0.1089  0.2931 -0.2336
  491loPI   GL1 7845   8.529   4.539  11.006 -0.0274  0.2055 -0.1350
  491loPI   GL2 7846   8.776   4.620  10.888 -0.1993 -0.0680  0.0959
  491loPI   C1A 7847   8.377   4.529  10.558  0.2995  0.1173 -0.0210
  491loPI   C2A 7848   8.387   4.537  10.174 -0.3936  0.0598  0.0411
  491loPI   C3A 7849   8.399   4.538   9.787 -0.0685  0.3494  0.0948
  491loPI   C4A 7850   8.360   4.504   9.301  0.0083 -0.3880  0.2857
  491loPI   C5A 7851   8.477   4.691   8.943 -0.1866 -0.1621 -0.1506
  491loPI   C6A 7852   8.680   4.632   8.547  0.2427  0.0587 -0.0456
  491loPI   C1B 7853   8.813   4.653  10.480 -0.3614  0.1435 -0.1632
  491loPI   C2B 7854   8.890   4.535  10.094  0.1900  0.0158 -0.0951
  491loPI   C3B 7855   8.881   4.550   9.599  0.1985 -0.0262 -0.0004
  491loPI   C4B 7856   8.883   4.495   9.258  0.2028 -0.2908 -0.1274
  492loPI    C1 7857   6.120  11.688  11.661 -0.1034 -0.1858  0.3510
  492loPI    C2 7858   6.481  11.755  11.818 -0.0194  0.0360  0.0727
  492loPI    C3 7859   6.163  11.955  11.955 -0.0144 -0.0566  0.2222
  492loPI   PO4 7860   6.159  11.672  11.414  0.1069  0.0367 -0.2092
  492loPI   GL1 7861   6.206  11.472  11.124  0.0953  0.2243  0.0175
  492loPI   GL2 7862   5.900  11.453  11.033  0.0761 -0.0508 -0.1112
  492loPI   C1A 7863   6.347  11.545  10.718  0.4425 -0.2160 -0.3665
  492loPI   C2A 7864   6.394  11.624  10.370 -0.0523 -0.2460  0.2841
  492loPI   C3A 7865   6.337  11.525   9.915  0.3242  0.1313  0.3060
  492loPI   C4A 7866   6.233  11.469   9.572 -0.2100  0.1233  0.2922
  492loPI   C5A 7867   6.209  11.647   9.017 -0.0325 -0.0660  0.1864
  492loPI   C6A 7868   6.066  11.544   8.585 -0.2491 -0.1238 -0.0112
  492loPI   C1B 7869   5.795  11.530  10.559  0.0856  0.4211 -0.0786
  492loPI   C2B 7870   5.802  11.567  10.193 -0.2091 -0.1037  0.1039
  492loPI   C3B 7871   5.799  11.436   9.772  0.2986  0.0691  0.0044
  492loPI   C4B 7872   5.766  11.380   9.297 -0.1743  0.1198  0.0181
  493loPI    C1 7873  13.884   2.618  11.968 -0.0730 -0.2232 -0.1564
  493loPI    C2 7874  13.755   2.298  12.170 -0.1265 -0.1180 -0.0225
  493loPI    C3 7875  13.797   2.649  12.357  0.0041 -0.0641 -0.1509
  493loPI   PO4 7876  14.021   2.541  11.823  0.0479 -0.0119 -0.1789
  493loPI   GL1 7877  14.085   2.592  11.391  0.2086 -0.2311 -0.0637
  493loPI   GL2 7878  14.355   2.674  11.477  0.3262  0.0746  0.1324
  493loPI   C1A 7879  14.042   2.623  10.912  0.3397  0.0251 -0.0977
  493loPI   C2A 7880  14.053   2.592  10.559 -0.2458 -0.1176  0.1379
  493loPI   C3A 7881  13.987   2.609  10.119  0.0274 -0.1264 -0.1049
  493loPI   C4A 7882  13.893   2.550   9.651 -0.1651 -0.0103 -0.1729
  493loPI   C5A 7883  14.155   2.624   9.278  0.1916 -0.0348 -0.0402
  493loPI   C6A 7884  14.389   2.912   9.180  0.0793  0.0848 -0.0383
  493loPI   C1B 7885  14.484   2.819  11.076 -0.0908  0.0247 -0.1303
  493loPI   C2B 7886  14.539   2.733  10.661 -0.0763  0.1888 -0.1817
  493loPI   C3B 7887  14.517   2.737  10.226 -0.0586 -0.0707  0.1691
  493loPI   C4B 7888  14.411   2.659   9.732 -0.0773  0.1408 -0.4090
  494loPI    C1 7889   2.399  14.003  11.813 -0.0301 -0.1420  0.0801
  494loPI    C2 7890   2.585  14.194  12.111  0.0080 -0.1808  0.0813
  494loPI    C3 7891   2.185  14.188  12.096  0.0064 -0.1122  0.0883
  494loPI   PO4 7892   2.469  14.091  11.609 -0.1339  0.0957 -0.2830
  494loPI   GL1 7893   2.391  14.340  11.267 -0.1784 -0.1164  0.2188
  494loPI   GL2 7894   2.078  14.477  11.154 -0.0614  0.0727 -0.0318
  494loPI   C1A 7895   2.459  14.226  10.866 -0.0021  0.1390 -0.0157
  494loPI   C2A 7896   2.416  14.193  10.485 -0.0273  0.0640 -0.0974
  494loPI   C3A 7897   2.484  14.182  10.061 -0.0033  0.0768  0.0733
  494loPI   C4A 7898   2.528  14.180   9.617 -0.1223  0.2090  0.0098
  494loPI   C5A 7899   2.567  14.197   9.192  0.5797  0.0920 -0.2517
  494loPI   C6A 7900   2.440  14.065   8.782 -0.0370  0.1506  0.0355
  494loPI   C1B 7901   2.082  14.504  10.738 -0.0904 -0.0324  0.3221
  494loPI   C2B 7902   2.114  14.503  10.278 -0.2650  0.0681 -0.2502
  494loPI   C3B 7903   2.148  14.598   9.987 -0.0194 -0.1497 -0.1922
  494loPI   C4B 7904   2.245  14.557   9.549 -0.0511  0.0745  0.4577
  495loPI    C1 7905  15.027  10.828  11.806  0.0735 -0.1132  0.0631
  495loPI    C2 7906  15.344  10.873  12.046 -0.1190  0.1494  0.2734
  495loPI    C3 7907  15.047  10.628  12.152  0.1371 -0.3204 -0.0584
  495loPI   PO4 7908  15.114  10.870  11.602  0.1579 -0.2413  0.0389
  495loPI   GL1 7909  15.072  10.964  11.123  0.0265  0.1309 -0.1982
  495loPI   GL2 7910  15.082  10.708  11.067  0.2502 -0.1126 -0.1159
  495loPI   C1A 7911  15.210  11.113  10.646 -0.2810  0.0183 -0.2607
  495loPI   C2A 7912  15.347  11.094  10.179  0.4343 -0.0658 -0.4467
  495loPI   C3A 7913  15.323  11.094   9.750  0.0741  0.0828 -0.0011
  495loPI   C4A 7914  15.408  11.083   9.294  0.0608 -0.0549  0.3335
  495loPI   C5A 7915  15.168  10.962   8.972 -0.1181  0.2144 -0.1977
  495loPI   C6A 7916  14.692  10.913   8.749 -0.2007 -0.1115  0.1399
  495loPI   C1B 7917  15.126  10.634  10.639  0.0415 -0.1418 -0.2110
  495loPI   C2B 7918  15.180  10.628  10.204  0.0839 -0.0816  0.1335
  495loPI   C3B 7919  15.105  10.563   9.760 -0.2288  0.0342 -0.2033
  495loPI   C4B 7920  15.086  10.568   9.321  0.0130  0.1430  0.0780
  496loPI    C1 7921   4.695   1.884  12.014  0.0423 -0.0959  0.0032
  496loPI    C2 7922   5.071   1.762  12.075  0.0790  0.0881  0.1540
  496loPI    C3 7923   4.872   1.949  12.367 -0.0471  0.2039 -0.0046
  496loPI   PO4 7924   4.678   2.068  11.720  0.3579  0.0060  0.3675
  496loPI   GL1 7925   4.694   1.910  11.284 -0.0729  0.1792  0.1127
  496loPI   GL2 7926   4.401   1.976  11.204 -0.2472  0.5042 -0.1467
  496loPI   C1A 7927   4.893   1.729  10.875  0.1615 -0.0823 -0.1625
  496loPI   C2A 7928   4.913   1.699  10.415 -0.2765  0.0811 -0.3429
  496loPI   C3A 7929   4.926   1.695   9.981 -0.3940  0.1305 -0.2673
  496loPI   C4A 7930   4.891   1.719   9.452  0.2494  0.1494  0.1500
  496loPI   C5A 7931   4.864   1.673   9.018 -0.0176  0.2335 -0.2606
  496loPI   C6A 7932   4.983   1.745   8.651  0.0026  0.4235  0.0158
  496loPI   C1B 7933   4.372   1.705  10.759 -0.3257  0.0933 -0.3136
  496loPI   C2B 7934   4.425   1.749  10.371 -0.1102  0.0864 -0.3426
  496loPI   C3B 7935   4.432   1.687   9.879 -0.1217 -0.1114  0.2752
  496loPI   C4B 7936   4.360   1.732   9.388  0.0972 -0.0294 -0.0557
  497loPI    C1 7937   9.936  10.368  11.758  0.0532 -0.4912 -0.1819
  497loPI    C2 7938   9.648  10.294  12.025  0.0866  0.0637  0.0194
  497loPI    C3 7939  10.024  10.180  12.099  0.0047 -0.2489 -0.0337
  497loPI   PO4 7940   9.831  10.148  11.516 -0.1176 -0.1857 -0.0726
  497loPI   GL1 7941  10.061   9.972  11.197 -0.0700 -0.0120  0.2302
  497loPI   GL2 7942  10.045   9.674  11.040 -0.2542 -0.0916  0.3755
  497loPI   C1A 7943  10.199  10.158  10.815 -0.2238 -0.1030  0.2109
  497loPI   C2A 7944  10.146  10.274  10.433  0.0587  0.0108  0.0105
  497loPI   C3A 7945  10.163  10.332  10.016  0.0253  0.1759  0.1329
  497loPI   C4A 7946  10.165  10.213   9.533  0.0899 -0.0452 -0.2053
  497loPI   C5A 7947  10.190  10.208   9.096 -0.3239 -0.1879  0.1453
  497loPI   C6A 7948  10.168  10.096   8.636  0.1456 -0.0415  0.2831
  497loPI   C1B 7949  10.005   9.717  10.645  0.0006  0.1439  0.3495
  497loPI   C2B 7950  10.027   9.850  10.223  0.0156 -0.0043 -0.0342
  497loPI   C3B 7951   9.965   9.903   9.844 -0.1036 -0.1450  0.0087
  497loPI   C4B 7952   9.951   9.787   9.442  0.0251  0.2395  0.0155
  498loPI    C1 7953   3.038  11.695  11.639  0.1354  0.1200  0.1434
  498loPI    C2 7954   2.868  11.722  12.000  0.0295 -0.0331  0.1060
  498loPI    C3 7955   3.255  11.813  11.953  0.0113  0.1128  0.2324
  498loPI   PO4 7956   2.941  11.739  11.447  0.2044 -0.0714  0.3187
  498loPI   GL1 7957   2.715  11.618  11.181 -0.0679  0.1911 -0.1995
  498loPI   GL2 7958   2.508  11.874  11.197 -0.1168  0.1643  0.0006
  498loPI   C1A 7959   2.869  11.432  10.859  0.1458  0.0202  0.5056
  498loPI   C2A 7960   2.885  11.503  10.406  0.0254  0.1074 -0.0342
  498loPI   C3A 7961   2.856  11.548  10.015  0.2517  0.1445  0.0990
  498loPI   C4A 7962   2.862  11.514   9.606  0.2311 -0.0816 -0.0548
  498loPI   C5A 7963   2.932  11.530   9.262 -0.0593  0.2909  0.0925
  498loPI   C6A 7964   2.696  11.345   8.921  0.0499 -0.1015  0.0828
  498loPI   C1B 7965   2.587  11.841  10.732 -0.0620  0.3614 -0.1104
  498loPI   C2B 7966   2.611  11.957  10.268 -0.2331  0.3946  0.0837
  498loPI   C3B 7967   2.594  11.920   9.849 -0.1974 -0.1966 -0.3508
  498loPI   C4B 7968   2.511  11.947   9.424 -0.0059  0.0911  0.0762
  499loPI    C1 7969   6.828  16.722  11.977 -0.2259 -0.1088 -0.0417
  499loPI    C2 7970   6.973  16.835  12.332 -0.1216 -0.0013 -0.1178
  499loPI    C3 7971   6.627  16.636  12.312 -0.2195  0.1511  0.0309
  499loPI   PO4 7972   6.955  16.862  11.823 -0.1249 -0.3617  0.0145
  499loPI   GL1 7973   6.980  16.896  11.413  0.1853 -0.2028  0.0331
  499loPI   GL2 7974   6.662  16.924  11.255 -0.3912  0.2154 -0.4002
  499loPI   C1A 7975   7.038  16.631  11.093  0.0921  0.0172 -0.0858
  499loPI   C2A 7976   6.993  16.615  10.592  0.1623  0.0885 -0.0635
  499loPI   C3A 7977   6.934  16.713  10.174  0.1827 -0.2543 -0.0695
  499loPI   C4A 7978   6.887  16.682   9.639  0.2412 -0.0542 -0.0201
  499loPI   C5A 7979   6.841  16.593   9.214 -0.1881  0.0413 -0.4286
  499loPI   C6A 7980   6.956  16.465   8.822 -0.0079  0.2952 -0.1650
  499loPI   C1B 7981   6.581  16.960  10.801  0.0592 -0.0827 -0.0543
  499loPI   C2B 7982   6.573  16.979  10.343 -0.1577 -0.2075  0.1327
  499loPI   C3B 7983   6.706  17.047   9.904  0.3586 -0.0779  0.1460
  499loPI   C4B 7984   6.840  17.093   9.424 -0.0208  0.1185 -0.0966
  500loPI    C1 7985   0.377  14.183  11.971  0.0866 -0.1110  0.0912
  500loPI    C2 7986   0.321  14.550  12.120  0.0106 -0.0861  0.0020
  500loPI    C3 7987   0.692  14.413  12.060  0.0384  0.0564 -0.1602
  500loPI   PO4 7988   0.161  14.136  11.748 -0.1701 -0.0897  0.1892
  500loPI   GL1 7989   0.355  14.236  11.345 -0.0027  0.1163  0.0430
  500loPI   GL2 7990   0.804  14.228  11.428 -0.0006  0.0817  0.3453
  500loPI   C1A 7991   0.153  14.123  11.009  0.2291 -0.4288 -0.0475
  500loPI   C2A 7992   0.091  14.144  10.583 -0.0438 -0.2169 -0.0725
  500loPI   C3A 7993   0.055  14.154  10.159  0.0429  0.0953  0.1714
  500loPI   C4A 7994   0.113  14.132   9.718 -0.1012  0.1048  0.0563
  500loPI   C5A 7995  -0.083  13.837   9.471 -0.0635  0.0539 -0.0979
  500loPI   C6A 7996  -0.201  13.801   9.085 -0.2041 -0.0404 -0.4682
  500loPI   C1B 7997   0.700  14.240  10.975 -0.0757  0.1242  0.0401
  500loPI   C2B 7998   0.611  14.260  10.605 -0.0342  0.2617 -0.0660
  500loPI   C3B 7999   0.574  14.246  10.104 -0.2551 -0.0689 -0.3401
  500loPI   C4B 8000   0.626  14.228   9.720  0.2040 -0.1071 -0.3637
  501loPI    C1 8001  16.314   7.824  11.703 -0.2321 -0.2818 -0.0116
  501loPI    C2 8002  16.635   7.661  11.876 -0.0418  0.0864 -0.0063
  501loPI    C3 8003  16.398   7.906  12.085 -0.3672 -0.2325  0.0081
  501loPI   PO4 8004  16.397   7.878  11.534 -0.1051  0.1953  0.2550
  501loPI   GL1 8005  16.540   7.815  11.081  0.0543  0.1559 -0.0579
  501loPI   GL2 8006  16.674   8.095  10.847 -0.0806 -0.0058 -0.0946
  501loPI   C1A 8007  16.376   7.758  10.689 -0.0052  0.3789 -0.0743
  501loPI   C2A 8008  16.343   7.706  10.294  0.0482 -0.4760 -0.1265
  501loPI   C3A 8009  16.450   7.729   9.924 -0.0792 -0.3393  0.0686
  501loPI   C4A 8010  16.381   7.594   9.586 -0.2310 -0.4763 -0.2172
  501loPI   C5A 8011  16.402   7.629   9.245  0.3435 -0.0238  0.0246
  501loPI   C6A 8012  16.152   7.514   8.893 -0.0796  0.2652 -0.0543
  501loPI   C1B 8013  16.584   8.200  10.425 -0.1569  0.0630 -0.1812
  501loPI   C2B 8014  16.654   8.164   9.992 -0.1410 -0.1811  0.2916
  501loPI   C3B 8015  16.502   8.083   9.592  0.5525 -0.1802 -0.0830
  501loPI   C4B 8016  16.502   8.078   9.130  0.0228 -0.0907 -0.2213
  502loPI    C1 8017  15.053  13.931  12.027  0.0624  0.3007  0.0396
  502loPI    C2 8018  15.420  14.017  12.162  0.0299  0.1729  0.2132
  502loPI    C3 8019  15.185  13.765  12.367 -0.0946  0.1282  0.0184
  502loPI   PO4 8020  15.141  13.983  11.739 -0.1941 -0.1559 -0.1700
  502loPI   GL1 8021  15.378  14.201  11.357 -0.0582 -0.1891 -0.4056
  502loPI   GL2 8022  15.550  14.382  11.152  0.1256 -0.2006 -0.1621
  502loPI   C1A 8023  15.470  13.864  11.056 -0.3409 -0.0608  0.0254
  502loPI   C2A 8024  15.414  13.971  10.692 -0.0759  0.3132 -0.0750
  502loPI   C3A 8025  15.429  13.904  10.200 -0.0304  0.2935 -0.0820
  502loPI   C4A 8026  15.473  13.794   9.743  0.0096  0.0141 -0.3186
  502loPI   C5A 8027  15.385  13.716   9.343 -0.1497 -0.1016  0.0760
  502loPI   C6A 8028  15.715  13.759   9.003 -0.0868  0.0373 -0.0262
  502loPI   C1B 8029  15.580  14.411  10.780 -0.1052 -0.0486 -0.0846
  502loPI   C2B 8030  15.671  14.301  10.457 -0.1994  0.1621  0.0446
  502loPI   C3B 8031  15.677  14.258   9.995  0.1710  0.0862  0.2490
  502loPI   C4B 8032  15.699  14.385   9.561 -0.0543  0.1361  0.3804
  503loPI    C1 8033  10.795   0.072  11.541  0.0932 -0.0654  0.0681
  503loPI    C2 8034  11.029  -0.145  11.782 -0.0185 -0.1771  0.0770
  503loPI    C3 8035  10.631  -0.171  11.813 -0.0342 -0.2206 -0.1442
  503loPI   PO4 8036  10.932   0.095  11.345  0.3989  0.1715  0.0519
  503loPI   GL1 8037  10.906  -0.086  10.941  0.0167 -0.0399 -0.0354
  503loPI   GL2 8038  10.568  -0.140  11.003  0.0406 -0.0253 -0.1343
  503loPI   C1A 8039  11.007  -0.074  10.537  0.1058  0.0621 -0.0991
  503loPI   C2A 8040  11.076  -0.127  10.099 -0.1582  0.2925  0.0876
  503loPI   C3A 8041  11.133  -0.246   9.667  0.1096 -0.0590  0.1455
  503loPI   C4A 8042  11.067  -0.225   9.215 -0.3370  0.0839  0.1523
  503loPI   C5A 8043  10.910   0.027   8.836  0.3869  0.0637  0.0265
  503loPI   C6A 8044  10.789   0.352   8.621  0.1892  0.1943 -0.1330
  503loPI   C1B 8045  10.490  -0.145  10.581  0.1114 -0.0999 -0.2249
  503loPI   C2B 8046  10.486  -0.188  10.129  0.0805 -0.0868  0.0817
  503loPI   C3B 8047  10.577  -0.301   9.758  0.0153  0.2334 -0.2055
  503loPI   C4B 8048  10.584  -0.305   9.318 -0.1800 -0.0398 -0.1683
  504loPI    C1 8049   8.523   8.999  11.648  0.0607  0.0786  0.1553
  504loPI    C2 8050   8.470   9.389  11.715  0.0774  0.1363 -0.1519
  504loPI    C3 8051   8.833   9.226  11.759  0.0101  0.0900  0.2743
  504loPI   PO4 8052   8.366   8.997  11.438  0.0530  0.3268 -0.3199
  504loPI   GL1 8053   8.313   9.015  11.032  0.0467  0.0897 -0.4221
  504loPI   GL2 8054   8.418   8.653  11.073 -0.0700 -0.3265  0.1887
  504loPI   C1A 8055   8.312   8.920  10.591  0.1772 -0.2108 -0.0517
  504loPI   C2A 8056   8.317   8.962  10.137  0.2568 -0.2578 -0.3738
  504loPI   C3A 8057   8.293   9.115   9.751 -0.1116  0.1074 -0.0028
  504loPI   C4A 8058   8.253   9.105   9.347  0.1925  0.0617 -0.0602
  504loPI   C5A 8059   8.044   9.090   8.985  0.1353  0.2912 -0.1827
  504loPI   C6A 8060   7.717   8.921   8.673  0.0797  0.2133 -0.2639
  504loPI   C1B 8061   8.672   8.601  10.679  0.0827 -0.0446 -0.2491
  504loPI   C2B 8062   8.620   8.577  10.323 -0.0079 -0.1162 -0.0297
  504loPI   C3B 8063   8.646   8.674   9.889 -0.0622 -0.1397 -0.1415
  504loPI   C4B 8064   8.612   8.689   9.423 -0.1475 -0.3651  0.2618
  505loPI    C1 8065  14.235  16.450  11.825  0.0743  0.1497 -0.2118
  505loPI    C2 8066  14.238  16.751  12.088 -0.0060  0.1179 -0.1743
  505loPI    C3 8067  14.120  16.387  12.203  0.2220  0.0396 -0.1844
  505loPI   PO4 8068  14.126  16.515  11.624 -0.3032  0.0648  0.2096
  505loPI   GL1 8069  14.042  16.214  11.297 -0.1116  0.0611  0.3229
  505loPI   GL2 8070  14.251  15.920  11.167  0.1138  0.1018  0.3081
  505loPI   C1A 8071  13.963  16.321  10.947 -0.1312  0.3808  0.0720
  505loPI   C2A 8072  13.905  16.427  10.596  0.1756 -0.0125  0.1656
  505loPI   C3A 8073  14.004  16.380  10.179  0.0119 -0.0441 -0.1389
  505loPI   C4A 8074  14.132  16.323   9.683 -0.0529  0.1434  0.0267
  505loPI   C5A 8075  14.091  16.286   9.236 -0.1956 -0.0479 -0.0323
  505loPI   C6A 8076  13.759  16.340   8.799  0.0364  0.0033  0.2217
  505loPI   C1B 8077  14.246  15.962  10.761 -0.2829 -0.1614 -0.3389
  505loPI   C2B 8078  14.365  15.849  10.337 -0.0550 -0.0479  0.2522
  505loPI   C3B 8079  14.420  15.903   9.948  0.2261  0.1099  0.0307
  505loPI   C4B 8080  14.452  15.892   9.495 -0.1105  0.3500  0.1021
  506loPI    C1 8081  13.179   8.665  11.529 -0.1079  0.1701  0.1756
  506loPI    C2 8082  13.388   8.782  11.209 -0.2886 -0.2888 -0.1213
  506loPI    C3 8083  13.577   8.625  11.525 -0.1310 -0.0604 -0.0987
  506loPI   PO4 8084  12.937   8.566  11.360  0.1651  0.0196  0.2765
  506loPI   GL1 8085  12.660   8.389  10.952 -0.4969 -0.0749 -0.4956
  506loPI   GL2 8086  12.986   8.394  10.891  0.2882  0.4122  0.0056
  506loPI   C1A 8087  12.482   8.325  10.606  0.0404  0.0291  0.0797
  506loPI   C2A 8088  12.314   8.251  10.298 -0.0816  0.2587  0.0407
  506loPI   C3A 8089  12.289   8.271   9.862  0.2167  0.4331  0.2149
  506loPI   C4A 8090  12.262   8.317   9.461 -0.1349 -0.0789 -0.0093
  506loPI   C5A 8091  12.286   8.245   9.038  0.1225  0.2298 -0.0189
  506loPI   C6A 8092  12.295   8.199   8.529  0.4297  0.0852  0.3566
  506loPI   C1B 8093  12.933   8.326  10.433 -0.2000 -0.0138  0.1587
  506loPI   C2B 8094  12.793   8.364  10.003 -0.0584 -0.0500  0.0144
  506loPI   C3B 8095  12.811   8.418   9.581  0.1983 -0.3742  0.0835
  506loPI   C4B 8096  12.836   8.240   9.152 -0.2062  0.1970  0.1884
  507loPI    C1 8097  10.680  11.715  11.556  0.1612 -0.0278  0.1957
  507loPI    C2 8098  10.328  11.771  11.374  0.2035 -0.0384  0.1104
  507loPI    C3 8099  10.343  11.588  11.729  0.1158  0.0277  0.1483
  507loPI   PO4 8100  10.809  11.628  11.354  0.1702 -0.0075  0.0363
  507loPI   GL1 8101  10.740  11.583  10.895 -0.0210  0.0292  0.0313
  507loPI   GL2 8102  10.491  11.418  11.018 -0.2957  0.1429 -0.1567
  507loPI   C1A 8103  10.787  11.763  10.435 -0.0068 -0.2494 -0.1373
  507loPI   C2A 8104  10.730  11.768  10.048  0.0212 -0.0397  0.0021
  507loPI   C3A 8105  10.727  11.677   9.617  0.2976 -0.0372  0.4931
  507loPI   C4A 8106  10.709  11.673   9.184 -0.0375 -0.1444  0.0443
  507loPI   C5A 8107  10.586  11.577   8.747  0.0947 -0.0217 -0.0397
  507loPI   C6A 8108  10.412  11.896   8.496  0.1574  0.0917  0.1969
  507loPI   C1B 8109  10.587  11.196  10.651 -0.1832  0.0763  0.0039
  507loPI   C2B 8110  10.607  11.282  10.267  0.0673  0.0196 -0.1347
  507loPI   C3B 8111  10.494  11.248   9.767 -0.0913  0.0888 -0.1171
  507loPI   C4B 8112  10.543  11.159   9.366 -0.5236 -0.2514 -0.0588
  508loPI    C1 8113  11.178  16.063  11.548 -0.1283  0.1969  0.0570
  508loPI    C2 8114  11.411  15.770  11.689  0.0264  0.2263 -0.1334
  508loPI    C3 8115  11.220  16.013  11.943 -0.0151  0.0315  0.0248
  508loPI   PO4 8116  11.286  16.157  11.355  0.1477  0.2498 -0.2520
  508loPI   GL1 8117  11.430  16.029  10.952  0.1340 -0.1448 -0.2990
  508loPI   GL2 8118  11.733  16.213  11.090  0.1015 -0.0902 -0.2315
  508loPI   C1A 8119  11.386  15.939  10.557  0.2062 -0.1011  0.0605
  508loPI   C2A 8120  11.364  15.878  10.078 -0.1391 -0.0940  0.0947
  508loPI   C3A 8121  11.502  15.861   9.700 -0.0358  0.1353 -0.1295
  508loPI   C4A 8122  11.437  15.775   9.139 -0.1462  0.3065  0.0586
  508loPI   C5A 8123  11.836  15.576   8.932  0.1255  0.1901 -0.3921
  508loPI   C6A 8124  12.219  15.640   8.790  0.3938 -0.1232  0.0171
  508loPI   C1B 8125  11.914  16.086  10.664  0.0470  0.5076 -0.0343
  508loPI   C2B 8126  11.834  16.039  10.183  0.2639  0.1455 -0.0161
  508loPI   C3B 8127  12.000  15.990   9.742  0.1611  0.2817  0.1631
  508loPI   C4B 8128  12.040  15.964   9.315  0.1416  0.1697 -0.2819
  509loPI    C1 8129   8.756  15.276  11.587  0.2483 -0.0046  0.0885
  509loPI    C2 8130   8.928  15.420  11.918  0.1041  0.1051  0.1166
  509loPI    C3 8131   8.541  15.320  11.921  0.1072  0.0875 -0.0135
  509loPI   PO4 8132   8.840  15.383  11.336  0.0344 -0.0286 -0.1184
  509loPI   GL1 8133   9.022  15.577  10.984  0.4078  0.2121  0.1279
  509loPI   GL2 8134   8.712  15.841  11.080  0.2939  0.0196  0.1498
  509loPI   C1A 8135   8.997  15.656  10.581 -0.2781 -0.0540 -0.1600
  509loPI   C2A 8136   9.026  15.580  10.102 -0.0479 -0.0191 -0.1811
  509loPI   C3A 8137   8.885  15.514   9.762  0.0137  0.0947 -0.0294
  509loPI   C4A 8138   8.859  15.645   9.356 -0.1157  0.3704 -0.2108
  509loPI   C5A 8139   8.525  15.537   9.006 -0.1780  0.1751 -0.2582
  509loPI   C6A 8140   8.527  15.680   8.589 -0.4603  0.0493  0.0040
  509loPI   C1B 8141   8.625  15.977  10.727 -0.0771 -0.2832 -0.1173
  509loPI   C2B 8142   8.666  16.088  10.293  0.1408 -0.0033 -0.0776
  509loPI   C3B 8143   8.520  15.905   9.981 -0.1376  0.0839  0.1520
  509loPI   C4B 8144   8.539  15.981   9.594 -0.2000 -0.1553 -0.0884
  510loPI    C1 8145  11.547  11.772  11.770 -0.1007  0.0266  0.3071
  510loPI    C2 8146  11.886  11.830  11.974  0.1304 -0.1737 -0.0103
  510loPI    C3 8147  11.795  11.465  11.838 -0.1721 -0.1040 -0.0019
  510loPI   PO4 8148  11.596  11.874  11.546 -0.1035  0.0942 -0.3174
  510loPI   GL1 8149  11.486  11.920  11.089  0.0819  0.0151 -0.1915
  510loPI   GL2 8150  11.779  11.889  11.022  0.0964 -0.4102 -0.0013
  510loPI   C1A 8151  11.395  11.802  10.700 -0.0146 -0.0414 -0.0208
  510loPI   C2A 8152  11.358  11.819  10.284 -0.1749  0.1502  0.2571
  510loPI   C3A 8153  11.218  11.746   9.806  0.2016  0.1325  0.3872
  510loPI   C4A 8154  11.195  11.747   9.352  0.1625  0.1670 -0.2424
  510loPI   C5A 8155  11.095  11.648   8.908 -0.1199 -0.0393  0.1291
  510loPI   C6A 8156  11.009  11.371   8.543  0.1246 -0.0334 -0.1406
  510loPI   C1B 8157  11.913  11.867  10.545  0.1628  0.4800  0.0607
  510loPI   C2B 8158  11.867  11.901  10.153 -0.1123 -0.2192 -0.2037
  510loPI   C3B 8159  11.839  11.948   9.704  0.1781  0.0806 -0.1809
  510loPI   C4B 8160  11.695  11.801   9.296 -0.0180 -0.0683  0.0415
  511loPI    C1 8161   2.651   4.933  11.822  0.0504  0.0567 -0.1708
  511loPI    C2 8162   2.908   5.221  11.922 -0.2122  0.1920  0.1303
  511loPI    C3 8163   3.009   4.838  11.973  0.0215  0.2358  0.0142
  511loPI   PO4 8164   2.556   5.063  11.555 -0.1690  0.1391 -0.1072
  511loPI   GL1 8165   2.694   5.123  11.200  0.3027 -0.1118  0.0600
  511loPI   GL2 8166   2.378   4.998  10.990 -0.1735  0.1334  0.0397
  511loPI   C1A 8167   2.859   4.996  10.781 -0.1309  0.2647  0.0727
  511loPI   C2A 8168   2.834   5.018  10.289  0.0981 -0.0928  0.1284
  511loPI   C3A 8169   2.735   4.986   9.898 -0.4087 -0.3568 -0.0798
  511loPI   C4A 8170   2.711   5.108   9.433  0.0499 -0.0966  0.0383
  511loPI   C5A 8171   2.629   5.303   9.080 -0.1220 -0.2826 -0.3470
  511loPI   C6A 8172   2.547   5.590   8.695  0.1229  0.2883 -0.1916
  511loPI   C1B 8173   2.312   4.912  10.458  0.2297 -0.1058  0.0342
  511loPI   C2B 8174   2.288   4.889  10.058 -0.1365 -0.0293  0.2621
  511loPI   C3B 8175   2.245   4.984   9.667 -0.4673  0.0594  0.1035
  511loPI   C4B 8176   2.171   5.054   9.247 -0.0565  0.0968 -0.0468
  512loPI    C1 8177  11.884  13.970  11.686 -0.1759 -0.2976 -0.1641
  512loPI    C2 8178  11.769  13.753  12.001 -0.1070 -0.0921  0.0054
  512loPI    C3 8179  11.648  14.132  11.965 -0.2168 -0.1515 -0.2820
  512loPI   PO4 8180  11.871  13.852  11.505  0.1799  0.1978  0.2835
  512loPI   GL1 8181  11.696  13.789  11.107  0.1312  0.2680 -0.1266
  512loPI   GL2 8182  11.469  13.637  11.210 -0.1879  0.0683 -0.1429
  512loPI   C1A 8183  11.768  14.103  10.772  0.2403  0.1368 -0.1021
  512loPI   C2A 8184  11.732  14.135  10.416 -0.4304  0.0693 -0.0092
  512loPI   C3A 8185  11.747  14.075  10.015 -0.2334 -0.1404 -0.3942
  512loPI   C4A 8186  11.678  14.098   9.554  0.0355  0.1527 -0.2699
  512loPI   C5A 8187  11.631  14.057   9.191  0.1683  0.1004 -0.0693
  512loPI   C6A 8188  11.554  13.886   8.854 -0.2388 -0.0817 -0.0566
  512loPI   C1B 8189  11.430  13.707  10.726  0.0531  0.1770  0.0119
  512loPI   C2B 8190  11.576  13.653  10.269 -0.0891 -0.2144  0.1864
  512loPI   C3B 8191  11.496  13.643   9.809 -0.2460 -0.4334 -0.0748
  512loPI   C4B 8192  11.432  13.630   9.311 -0.0347 -0.0817 -0.2783
  513loPI    C1 8193   7.233   3.726  11.535  0.1139 -0.0565 -0.0053
  513loPI    C2 8194   7.117   4.064  11.355  0.1736  0.0083  0.0772
  513loPI    C3 8195   7.148   4.050  11.754  0.0950 -0.1184  0.0793
  513loPI   PO4 8196   7.484   3.670  11.278 -0.0416 -0.3071 -0.3250
  513loPI   GL1 8197   7.698   3.547  10.841 -0.0809  0.0449 -0.1626
  513loPI   GL2 8198   7.997   3.598  10.875 -0.1703  0.2967 -0.1414
  513loPI   C1A 8199   7.542   3.427  10.508 -0.1662 -0.0960 -0.0531
  513loPI   C2A 8200   7.552   3.423  10.080  0.1818 -0.1378 -0.1794
  513loPI   C3A 8201   7.489   3.496   9.627 -0.1884  0.2360 -0.0543
  513loPI   C4A 8202   7.682   3.523   9.297 -0.0292  0.0955 -0.2218
  513loPI   C5A 8203   8.041   3.512   9.048  0.1792 -0.0264  0.1430
  513loPI   C6A 8204   8.231   3.845   8.812 -0.1287  0.0979 -0.6102
  513loPI   C1B 8205   8.063   3.495  10.454 -0.0820 -0.1476  0.2942
  513loPI   C2B 8206   8.019   3.462  10.000  0.2572 -0.1547 -0.0141
  513loPI   C3B 8207   8.100   3.645   9.566  0.0715  0.1394  0.1168
  513loPI   C4B 8208   8.099   4.039   9.255 -0.0758 -0.0583 -0.0752
  514loPI    C1 8209   7.115  12.883  11.721 -0.0195 -0.1250  0.1086
  514loPI    C2 8210   7.385  13.178  11.727 -0.1011 -0.0443 -0.0966
  514loPI    C3 8211   7.414  12.875  11.987 -0.0625  0.1837  0.1703
  514loPI   PO4 8212   7.097  12.886  11.408 -0.3616  0.0981 -0.1441
  514loPI   GL1 8213   7.199  12.569  11.131  0.1178  0.0764  0.0031
  514loPI   GL2 8214   7.343  12.304  11.173  0.0737 -0.0755  0.1112
  514loPI   C1A 8215   7.228  12.593  10.720 -0.2823  0.0117  0.2748
  514loPI   C2A 8216   7.294  12.610  10.227 -0.2412 -0.1516  0.0145
  514loPI   C3A 8217   7.324  12.573   9.762 -0.0231 -0.0427  0.2969
  514loPI   C4A 8218   7.162  12.622   9.373  0.1059 -0.0907  0.1941
  514loPI   C5A 8219   6.883  12.631   8.946 -0.1759 -0.2613  0.2880
  514loPI   C6A 8220   6.598  12.400   8.567  0.1346  0.1775  0.1410
  514loPI   C1B 8221   7.537  12.223  10.803  0.2965  0.0692 -0.0360
  514loPI   C2B 8222   7.672  12.099  10.480  0.0829 -0.0886 -0.0732
  514loPI   C3B 8223   7.614  12.117   9.991  0.0559  0.3235 -0.0912
  514loPI   C4B 8224   7.516  12.137   9.465 -0.1724 -0.1261 -0.1814
  515loPI    C1 8225  10.511   8.628  11.610 -0.2902  0.0607 -0.0060
  515loPI    C2 8226  10.722   8.395  11.856  0.0778  0.1448 -0.2345
  515loPI    C3 8227  10.534   8.717  11.999 -0.2827 -0.1822  0.0506
  515loPI   PO4 8228  10.668   8.659  11.425  0.0809 -0.0429 -0.1828
  515loPI   GL1 8229  10.707   8.648  11.030  0.0597  0.1608  0.1943
  515loPI   GL2 8230  10.665   8.978  10.939  0.2485 -0.0195 -0.1607
  515loPI   C1A 8231  10.570   8.470  10.605 -0.2070 -0.3118 -0.1738
  515loPI   C2A 8232  10.421   8.414  10.244 -0.0927 -0.2731 -0.0351
  515loPI   C3A 8233  10.376   8.425   9.859 -0.0751 -0.0403 -0.0029
  515loPI   C4A 8234  10.475   8.497   9.443 -0.2616  0.3699 -0.1408
  515loPI   C5A 8235  10.470   8.565   9.123 -0.3409  0.0207  0.2901
  515loPI   C6A 8236  10.429   8.264   8.747 -0.0116  0.1407  0.4297
  515loPI   C1B 8237  10.684   8.986  10.465  0.0041  0.1227  0.2011
  515loPI   C2B 8238  10.595   8.874   9.974  0.0793  0.2744  0.0872
  515loPI   C3B 8239  10.791   8.973   9.620 -0.0056 -0.2891 -0.0043
  515loPI   C4B 8240  10.750   8.992   9.200  0.1601 -0.3039 -0.0684
  516loPI    C1 8241   4.199   2.164  12.083 -0.1355  0.1684 -0.0706
  516loPI    C2 8242   4.538   2.339  12.203 -0.0154  0.0988 -0.3022
  516loPI    C3 8243   4.385   2.035  12.413  0.0855  0.1059 -0.2173
  516loPI   PO4 8244   4.160   2.133  11.776  0.5852  0.0997  0.2547
  516loPI   GL1 8245   3.973   2.113  11.341 -0.0532  0.3563  0.0380
  516loPI   GL2 8246   3.610   1.962  11.234 -0.3995 -0.3764 -0.0887
  516loPI   C1A 8247   4.066   2.077  10.836 -0.1184 -0.0437 -0.0731
  516loPI   C2A 8248   4.038   2.032  10.463  0.0377 -0.3256  0.4150
  516loPI   C3A 8249   4.110   2.049  10.029  0.1557 -0.1879  0.0603
  516loPI   C4A 8250   4.074   2.128   9.614 -0.0865 -0.1677 -0.0749
  516loPI   C5A 8251   4.028   2.048   9.162  0.1018  0.1076  0.0986
  516loPI   C6A 8252   3.833   2.010   8.727 -0.1568 -0.1913  0.0240
  516loPI   C1B 8253   3.612   1.973  10.793  0.0666  0.1268 -0.1205
  516loPI   C2B 8254   3.613   2.042  10.284  0.1737  0.0763 -0.0512
  516loPI   C3B 8255   3.637   2.037   9.900 -0.0310  0.1795  0.2688
  516loPI   C4B 8256   3.551   1.957   9.476  0.0015  0.1231 -0.3091
  517loPI    C1 8257  17.042   3.927  11.643  0.0182  0.0854  0.1139
  517loPI    C2 8258  17.305   4.152  11.441 -0.0115  0.0909  0.0813
  517loPI    C3 8259  17.385   4.038  11.816  0.0027  0.1577  0.0987
  517loPI   PO4 8260  16.894   3.817  11.383 -0.1752 -0.2016  0.1411
  517loPI   GL1 8261  16.758   3.598  11.083 -0.2588  0.1047  0.2723
  517loPI   GL2 8262  16.502   3.919  11.139  0.1740  0.2297  0.0957
  517loPI   C1A 8263  16.660   3.633  10.675  0.0929  0.1101  0.3708
  517loPI   C2A 8264  16.653   3.444  10.304 -0.4536 -0.4132 -0.0532
  517loPI   C3A 8265  16.711   3.482   9.913 -0.1284 -0.1494 -0.2619
  517loPI   C4A 8266  16.653   3.546   9.500 -0.1804  0.1413  0.0503
  517loPI   C5A 8267  16.814   3.657   9.065 -0.0949 -0.2255 -0.0065
  517loPI   C6A 8268  16.690   3.446   8.759  0.2345  0.0298 -0.2380
  517loPI   C1B 8269  16.356   4.013  10.692 -0.0869  0.0205  0.0410
  517loPI   C2B 8270  16.277   3.912  10.199  0.0230  0.1354 -0.0189
  517loPI   C3B 8271  16.416   4.000   9.836  0.0904  0.2094 -0.0296
  517loPI   C4B 8272  16.363   3.999   9.375 -0.1333  0.0349  0.1139
  518loPI    C1 8273   0.065   4.512  11.809  0.1925 -0.0494  0.0906
  518loPI    C2 8274   0.267   4.365  12.121 -0.0176  0.1951  0.3480
  518loPI    C3 8275  -0.063   4.583  12.182 -0.1355  0.1364 -0.0525
  518loPI   PO4 8276   0.239   4.581  11.598  0.0849  0.0708 -0.1135
  518loPI   GL1 8277   0.266   4.619  11.194 -0.0083 -0.0849 -0.3272
  518loPI   GL2 8278   0.021   4.420  11.045  0.0038  0.1742 -0.0169
  518loPI   C1A 8279   0.361   4.682  10.705 -0.3379 -0.3305  0.0475
  518loPI   C2A 8280   0.297   4.579  10.299  0.0805 -0.0716 -0.0668
  518loPI   C3A 8281   0.197   4.504   9.964  0.0127 -0.3195 -0.2820
  518loPI   C4A 8282   0.302   4.567   9.467  0.0356 -0.2264  0.0298
  518loPI   C5A 8283   0.290   4.672   9.023  0.2407  0.1850  0.1809
  518loPI   C6A 8284   0.724   4.649   8.891  0.1098 -0.0318  0.1672
  518loPI   C1B 8285   0.024   4.137  10.790  0.3120 -0.0167  0.3245
  518loPI   C2B 8286   0.101   4.069  10.311 -0.0885 -0.1185 -0.1037
  518loPI   C3B 8287  -0.062   4.088   9.887 -0.2190 -0.1063  0.4158
  518loPI   C4B 8288   0.021   4.082   9.458  0.1472 -0.2454  0.0038
  519loPI    C1 8289   9.968  13.686  11.642 -0.0603 -0.1599  0.3451
  519loPI    C2 8290   9.848  14.022  11.824  0.0533  0.1084 -0.0598
  519loPI    C3 8291  10.221  13.887  11.879  0.0386  0.1015  0.0255
  519loPI   PO4 8292   9.992  13.727  11.349  0.0632 -0.0039  0.0622
  519loPI   GL1 8293   9.830  13.781  10.949 -0.1384 -0.0023  0.1114
  519loPI   GL2 8294   9.967  13.496  10.859  0.0043 -0.1873 -0.0072
  519loPI   C1A 8295   9.705  13.822  10.541  0.1651 -0.0104 -0.1627
  519loPI   C2A 8296   9.734  13.813  10.142 -0.0827  0.1328  0.0727
  519loPI   C3A 8297   9.671  13.883   9.677 -0.1592 -0.0156  0.1298
  519loPI   C4A 8298   9.621  13.843   9.210 -0.1038  0.1513  0.0710
  519loPI   C5A 8299   9.874  13.934   8.817 -0.1094  0.0503 -0.0661
  519loPI   C6A 8300  10.260  13.950   8.661  0.1690 -0.2657  0.0314
  519loPI   C1B 8301   9.987  13.386  10.434  0.2242  0.0950  0.1401
  519loPI   C2B 8302  10.033  13.467   9.957 -0.2174  0.2166 -0.0641
  519loPI   C3B 8303   9.949  13.531   9.524 -0.0301 -0.2838 -0.1099
  519loPI   C4B 8304   9.995  13.457   9.129 -0.1427 -0.1658  0.1502
  520loPI    C1 8305  14.542  14.706  11.899 -0.1604  0.1073 -0.0057
  520loPI    C2 8306  14.532  14.412  12.170 -0.2071  0.1063 -0.0084
  520loPI    C3 8307  14.689  14.767  12.266  0.4413 -0.1152 -0.1971
  520loPI   PO4 8308  14.350  14.588  11.748 -0.2000 -0.1626 -0.2070
  520loPI   GL1 8309  14.413  14.551  11.363  0.0662 -0.1375  0.0845
  520loPI   GL2 8310  14.688  14.795  11.399 -0.2295  0.1478 -0.1295
  520loPI   C1A 8311  14.476  14.353  10.911  0.0860 -0.1241  0.1790
  520loPI   C2A 8312  14.613  14.210  10.423  0.1479 -0.3418  0.0859
  520loPI   C3A 8313  14.659  14.133  10.009 -0.1578  0.1410  0.2004
  520loPI   C4A 8314  14.671  14.179   9.596 -0.0142  0.4047 -0.4326
  520loPI   C5A 8315  14.942  14.155   9.181  0.2392 -0.0469 -0.0434
  520loPI   C6A 8316  14.802  14.036   8.800  0.3847  0.1243  0.0437
  520loPI   C1B 8317  14.703  14.813  11.052 -0.1752  0.0611  0.4489
  520loPI   C2B 8318  14.774  14.755  10.621 -0.3222 -0.2156  0.1550
  520loPI   C3B 8319  14.911  14.700  10.142  0.2067 -0.0473 -0.1630
  520loPI   C4B 8320  14.868  14.598   9.731 -0.1750 -0.1563  0.0436
  521loPI    C1 8321   4.301  16.668  11.562 -0.4589  0.0622 -0.1013
  521loPI    C2 8322   4.352  16.598  11.953 -0.2009  0.0927 -0.1276
  521loPI    C3 8323   4.177  16.323  11.722 -0.1280 -0.0309 -0.0367
  521loPI   PO4 8324   4.230  16.836  11.547 -0.0346 -0.0639  0.3567
  521loPI   GL1 8325   4.251  17.084  11.183 -0.3948 -0.3240 -0.0704
  521loPI   GL2 8326   4.478  16.882  11.085 -0.0035  0.0557 -0.0599
  521loPI   C1A 8327   4.140  17.161  10.814  0.1188 -0.2300  0.3377
  521loPI   C2A 8328   4.098  17.178  10.464 -0.1330  0.0532  0.1290
  521loPI   C3A 8329   4.137  17.215  10.029  0.0744  0.2373  0.1691
  521loPI   C4A 8330   4.165  17.186   9.560 -0.2855 -0.1906  0.0195
  521loPI   C5A 8331   4.104  16.979   9.150  0.2296  0.1293 -0.0359
  521loPI   C6A 8332   4.357  16.724   8.893  0.3210  0.1615  0.1129
  521loPI   C1B 8333   4.407  16.712  10.676  0.2264 -0.0357 -0.2938
  521loPI   C2B 8334   4.460  16.768  10.279  0.0710  0.1473 -0.0716
  521loPI   C3B 8335   4.446  16.750   9.811 -0.1377 -0.3210  0.2327
  521loPI   C4B 8336   4.403  16.690   9.413 -0.0506  0.1026 -0.0280
  522loPI    C1 8337   4.776  12.219  11.475  0.2779 -0.0131  0.0552
  522loPI    C2 8338   4.899  12.225  11.094 -0.0800  0.1397 -0.0622
  522loPI    C3 8339   4.970  12.539  11.332  0.0970  0.0660 -0.0160
  522loPI   PO4 8340   4.573  12.058  11.462  0.3527 -0.1854 -0.1569
  522loPI   GL1 8341   4.344  12.071  11.073 -0.1223 -0.2877  0.2574
  522loPI   GL2 8342   4.516  11.856  11.029 -0.0661  0.0177  0.0216
  522loPI   C1A 8343   4.142  12.175  10.698 -0.0666 -0.0264  0.2500
  522loPI   C2A 8344   4.106  12.148  10.210 -0.0974  0.4631  0.1797
  522loPI   C3A 8345   4.110  12.222   9.791 -0.1954  0.2050 -0.2787
  522loPI   C4A 8346   4.112  12.177   9.393 -0.1417 -0.3590  0.0586
  522loPI   C5A 8347   4.291  12.169   9.017 -0.0100  0.0706  0.0948
  522loPI   C6A 8348   4.397  12.332   8.631 -0.1918 -0.5381  0.0054
  522loPI   C1B 8349   4.463  11.763  10.592 -0.0417  0.0199 -0.1239
  522loPI   C2B 8350   4.521  11.783  10.061 -0.1009 -0.0938  0.0464
  522loPI   C3B 8351   4.420  11.873   9.619 -0.0821  0.1835 -0.1051
  522loPI   C4B 8352   4.440  11.755   9.169 -0.0770  0.0566  0.2238
  523loPI    C1 8353   1.478  14.577  12.006  0.0463  0.0856 -0.2272
  523loPI    C2 8354   1.714  14.469  12.310 -0.1265 -0.2490 -0.2072
  523loPI    C3 8355   1.662  14.856  12.225  0.0060 -0.1554  0.1220
  523loPI   PO4 8356   1.512  14.482  11.777  0.1848  0.2223 -0.1185
  523loPI   GL1 8357   1.302  14.416  11.397  0.2832  0.1160  0.0766
  523loPI   GL2 8358   1.641  14.300  11.201 -0.0248  0.0591  0.0352
  523loPI   C1A 8359   1.129  14.376  11.033  0.3448  0.0836 -0.3965
  523loPI   C2A 8360   1.091  14.308  10.618  0.1953  0.0615  0.3105
  523loPI   C3A 8361   1.088  14.382  10.184 -0.3003  0.2565 -0.0838
  523loPI   C4A 8362   1.110  14.386   9.729  0.1969 -0.0152  0.0920
  523loPI   C5A 8363   1.222  14.413   9.271  0.0990  0.1208 -0.0227
  523loPI   C6A 8364   1.380  14.153   8.971 -0.4066  0.1719 -0.2331
  523loPI   C1B 8365   1.559  14.418  10.703  0.1161  0.1717  0.1156
  523loPI   C2B 8366   1.634  14.415  10.225 -0.2747  0.0357  0.1352
  523loPI   C3B 8367   1.703  14.496   9.754  0.0168 -0.0737 -0.3472
  523loPI   C4B 8368   1.733  14.381   9.310 -0.0506 -0.2653  0.0078
  524loPI    C1 8369   7.212   2.488  11.738  0.1097  0.0425 -0.2134
  524loPI    C2 8370   7.536   2.380  11.945 -0.0495 -0.0183  0.0090
  524loPI    C3 8371   7.507   2.751  11.798 -0.0615  0.1200  0.3514
  524loPI   PO4 8372   7.165   2.324  11.585 -0.2764  0.0297  0.2095
  524loPI   GL1 8373   7.137   2.243  11.111 -0.0844 -0.0942  0.1011
  524loPI   GL2 8374   7.044   2.406  10.976 -0.2570 -0.0665 -0.0515
  524loPI   C1A 8375   6.940   2.028  10.661  0.1419  0.0721 -0.0295
  524loPI   C2A 8376   6.992   1.876  10.261  0.1989  0.0535  0.1442
  524loPI   C3A 8377   6.987   1.962   9.835  0.0249  0.0950  0.0113
  524loPI   C4A 8378   6.907   1.911   9.403  0.1340 -0.0960 -0.2447
  524loPI   C5A 8379   6.852   2.094   9.000 -0.1236 -0.1071 -0.4510
  524loPI   C6A 8380   6.524   2.064   8.658 -0.0919  0.0396  0.1403
  524loPI   C1B 8381   7.111   2.528  10.585  0.0154  0.1560  0.2333
  524loPI   C2B 8382   7.106   2.417  10.185  0.2660  0.1206  0.1437
  524loPI   C3B 8383   7.104   2.415   9.788  0.1729 -0.1538  0.1102
  524loPI   C4B 8384   7.112   2.390   9.390 -0.0776  0.2240  0.1034
  525loPI    C1 8385  17.018  12.289  11.989 -0.0595  0.1045 -0.1074
  525loPI    C2 8386  17.161  12.545  12.260 -0.0586 -0.2133  0.1987
  525loPI    C3 8387  16.833  12.331  12.341 -0.1867 -0.1514 -0.1412
  525loPI   PO4 8388  17.014  12.502  11.687 -0.1248  0.0673 -0.0233
  525loPI   GL1 8389  16.866  12.369  11.331  0.0023 -0.3715  0.1317
  525loPI   GL2 8390  16.968  12.755  11.261 -0.4055  0.1935 -0.2874
  525loPI   C1A 8391  16.788  12.320  10.961  0.0562  0.2426 -0.5346
  525loPI   C2A 8392  16.762  12.306  10.423  0.3143  0.2025 -0.0103
  525loPI   C3A 8393  16.778  12.305   9.989 -0.1870  0.1454 -0.0074
  525loPI   C4A 8394  16.859  12.216   9.531 -0.0683  0.1501  0.0594
  525loPI   C5A 8395  16.623  12.077   9.138  0.0029  0.2172  0.2169
  525loPI   C6A 8396  16.242  12.140   8.827 -0.1802  0.0295  0.1267
  525loPI   C1B 8397  16.916  12.743  10.757  0.1198  0.0591 -0.1751
  525loPI   C2B 8398  16.986  12.740  10.314  0.0410  0.1204  0.1338
  525loPI   C3B 8399  16.968  12.783   9.926  0.1056 -0.0735 -0.0717
  525loPI   C4B 8400  16.882  12.779   9.528  0.3893 -0.0874  0.1287
  526loPI    C1 8401   0.688   4.481  11.819  0.1291  0.0747  0.3217
  526loPI    C2 8402   0.919   4.784  11.938 -0.0554  0.2065  0.3488
  526loPI    C3 8403   0.521   4.816  11.959 -0.0762 -0.0456  0.3696
  526loPI   PO4 8404   0.786   4.434  11.544 -0.0242 -0.1261  0.2997
  526loPI   GL1 8405   0.825   4.239  11.210  0.0473  0.0059 -0.0008
  526loPI   GL2 8406   0.577   4.296  11.038 -0.1305  0.1219 -0.1365
  526loPI   C1A 8407   1.011   4.292  10.791 -0.4244  0.1420  0.0666
  526loPI   C2A 8408   0.975   4.288  10.405 -0.1219 -0.0117 -0.1834
  526loPI   C3A 8409   0.997   4.198   9.995 -0.0404 -0.3339  0.0004
  526loPI   C4A 8410   0.969   4.330   9.592 -0.5670  0.1458 -0.2521
  526loPI   C5A 8411   1.074   4.303   9.186  0.1390 -0.1297 -0.1135
  526loPI   C6A 8412   0.991   4.220   8.752 -0.0906 -0.0720 -0.5122
  526loPI   C1B 8413   0.536   4.230  10.584 -0.0030  0.3243  0.2678
  526loPI   C2B 8414   0.522   4.150  10.099  0.1398 -0.0757  0.1152
  526loPI   C3B 8415   0.483   4.171   9.617  0.0748  0.0158 -0.0777
  526loPI   C4B 8416   0.435   4.203   9.139  0.0637 -0.2123  0.3708
  527loPI    C1 8417   7.962  16.798  11.720  0.0322  0.0689  0.0897
  527loPI    C2 8418   8.045  16.505  11.980 -0.0000  0.1559  0.1988
  527loPI    C3 8419   7.898  16.853  12.111  0.0652  0.2318  0.0727
  527loPI   PO4 8420   7.874  16.683  11.503 -0.1534 -0.1577 -0.1036
  527loPI   GL1 8421   7.592  16.650  11.121 -0.2574 -0.0287  0.0976
  527loPI   GL2 8422   7.734  16.393  11.123  0.0422 -0.1327 -0.1197
  527loPI   C1A 8423   7.501  16.711  10.757 -0.0001  0.0943  0.0932
  527loPI   C2A 8424   7.476  16.767  10.290  0.0099 -0.2447 -0.0965
  527loPI   C3A 8425   7.401  16.654   9.873 -0.1537 -0.3899  0.2452
  527loPI   C4A 8426   7.530  16.679   9.411 -0.0926 -0.1050 -0.0095
  527loPI   C5A 8427   7.479  16.738   9.041 -0.1816  0.1264  0.0212
  527loPI   C6A 8428   7.710  16.705   8.644  0.0255  0.0033 -0.2179
  527loPI   C1B 8429   7.887  16.318  10.758  0.5620 -0.2200 -0.1516
  527loPI   C2B 8430   7.822  16.295  10.347 -0.0006 -0.2721 -0.2863
  527loPI   C3B 8431   7.757  16.300  10.001  0.1495 -0.0244 -0.1705
  527loPI   C4B 8432   7.824  16.281   9.527 -0.1625 -0.1578 -0.0155
  528loPI    C1 8433  10.673   9.106  11.681  0.1234  0.0832 -0.0549
  528loPI    C2 8434  10.478   9.444  11.766  0.2475  0.2049 -0.2470
  528loPI    C3 8435  10.842   9.379  11.919  0.0630 -0.0210  0.1090
  528loPI   PO4 8436  10.539   9.176  11.338 -0.0041  0.0026  0.1064
  528loPI   GL1 8437  10.189   9.040  11.114 -0.1050  0.3435 -0.3504
  528loPI   GL2 8438  10.332   9.329  10.806  0.1255 -0.0658  0.0257
  528loPI   C1A 8439  10.127   8.858  10.669  0.1827  0.2526 -0.1538
  528loPI   C2A 8440  10.077   8.793  10.182  0.1226  0.3408 -0.2527
  528loPI   C3A 8441  10.080   8.927   9.810  0.1352 -0.2505  0.1975
  528loPI   C4A 8442  10.104   8.941   9.453  0.0592 -0.2322  0.0727
  528loPI   C5A 8443  10.149   8.927   9.048 -0.0630  0.0622 -0.1755
  528loPI   C6A 8444  10.057   8.655   8.732  0.1463  0.1622 -0.0736
  528loPI   C1B 8445  10.281   9.287  10.330 -0.0846  0.1653  0.0430
  528loPI   C2B 8446  10.273   9.478   9.890 -0.1800  0.1719  0.0517
  528loPI   C3B 8447  10.438   9.274   9.523 -0.0174 -0.2111  0.4151
  528loPI   C4B 8448  10.368   9.388   9.103  0.0089  0.2092  0.1850
  529loPI    C1 8449   5.366   8.329  11.879  0.2983  0.0968 -0.1717
  529loPI    C2 8450   5.408   8.494  12.241 -0.0160 -0.2170  0.0145
  529loPI    C3 8451   5.367   8.097  12.205 -0.0366 -0.1846 -0.3632
  529loPI   PO4 8452   5.342   8.517  11.660 -0.0592  0.1192 -0.1312
  529loPI   GL1 8453   5.302   8.619  11.254  0.0090 -0.0701  0.2528
  529loPI   GL2 8454   5.574   8.454  11.205  0.0693  0.0680  0.3839
  529loPI   C1A 8455   5.045   8.511  10.913 -0.2500 -0.1025  0.2132
  529loPI   C2A 8456   5.115   8.638  10.522  0.2662  0.3241 -0.1880
  529loPI   C3A 8457   5.130   8.653  10.095  0.0436 -0.1420  0.1776
  529loPI   C4A 8458   5.132   8.663   9.616  0.1950  0.0628  0.0591
  529loPI   C5A 8459   4.992   8.586   9.289 -0.0087 -0.2258 -0.0101
  529loPI   C6A 8460   4.974   8.630   8.854  0.2026 -0.0150  0.1784
  529loPI   C1B 8461   5.577   8.577  10.790  0.0139 -0.1235  0.0307
  529loPI   C2B 8462   5.614   8.666  10.396  0.1018  0.1885 -0.1115
  529loPI   C3B 8463   5.603   8.734   9.930 -0.0503 -0.4572  0.3260
  529loPI   C4B 8464   5.664   8.695   9.547 -0.2063  0.2441 -0.2552
  530loPI    C1 8465   1.071   0.992  11.737  0.1754  0.0357 -0.2109
  530loPI    C2 8466   1.397   0.889  11.943  0.0746 -0.0232 -0.0788
  530loPI    C3 8467   1.204   1.228  12.031 -0.0776 -0.1426  0.0522
  530loPI   PO4 8468   1.083   1.090  11.411 -0.0232  0.0882  0.0507
  530loPI   GL1 8469   1.027   0.754  11.082 -0.3098  0.2847  0.2490
  530loPI   GL2 8470   0.738   0.975  11.007  0.3913 -0.2558 -0.4327
  530loPI   C1A 8471   1.131   0.553  10.705 -0.0869 -0.4784  0.3170
  530loPI   C2A 8472   1.182   0.598  10.179  0.1598  0.1906  0.0076
  530loPI   C3A 8473   1.154   0.609   9.728  0.0521 -0.1726  0.0380
  530loPI   C4A 8474   1.131   0.655   9.242 -0.1172  0.3343  0.0503
  530loPI   C5A 8475   1.348   0.707   8.892 -0.0531 -0.3103 -0.1360
  530loPI   C6A 8476   1.628   0.401   8.802  0.1229  0.3585  0.1373
  530loPI   C1B 8477   0.770   1.005  10.577 -0.4500 -0.0361 -0.2726
  530loPI   C2B 8478   0.818   1.078  10.146  0.0705 -0.0323  0.0017
  530loPI   C3B 8479   0.769   1.009   9.656  0.3241  0.1836  0.1824
  530loPI   C4B 8480   0.615   0.878   9.252  0.0781  0.0733  0.1205
  531loPI    C1 8481   8.415   9.905  11.564  0.0366  0.1698  0.0227
  531loPI    C2 8482   8.100   9.720  11.727  0.1598 -0.1324 -0.0760
  531loPI    C3 8483   8.422   9.803  11.950  0.0138  0.1783  0.0253
  531loPI   PO4 8484   8.581   9.773  11.375  0.0246 -0.0775 -0.0689
  531loPI   GL1 8485   8.859   9.753  11.073 -0.4265  0.2002  0.1349
  531loPI   GL2 8486   8.748  10.136  11.044 -0.2032  0.1235 -0.1430
  531loPI   C1A 8487   8.995   9.670  10.764 -0.0238 -0.0440  0.0809
  531loPI   C2A 8488   9.044   9.565  10.263  0.4415  0.1589  0.0371
  531loPI   C3A 8489   9.044   9.643   9.946 -0.1640  0.2069  0.0801
  531loPI   C4A 8490   8.926   9.727   9.510  0.2097  0.2186 -0.2195
  531loPI   C5A 8491   8.952   9.722   9.158 -0.0563 -0.2600 -0.1014
  531loPI   C6A 8492   9.036   9.504   8.751 -0.1678  0.2573  0.0940
  531loPI   C1B 8493   8.672  10.017  10.636 -0.0506 -0.0591  0.0771
  531loPI   C2B 8494   8.730   9.997  10.184 -0.1600  0.0073  0.0074
  531loPI   C3B 8495   8.697  10.064   9.762 -0.0602  0.1601  0.4020
  531loPI   C4B 8496   8.614  10.135   9.294 -0.0878  0.3067 -0.1178
  532loPI    C1 8497  14.547  13.875  12.104  0.2708  0.0738 -0.0523
  532loPI    C2 8498  14.403  13.506  12.153  0.3162  0.0745  0.0901
  532loPI    C3 8499  14.715  13.630  12.371  0.1600  0.2725  0.2039
  532loPI   PO4 8500  14.490  13.961  11.774  0.1972  0.0891  0.2941
  532loPI   GL1 8501  14.537  14.044  11.321  0.3229  0.3514 -0.1512
  532loPI   GL2 8502  14.757  13.925  11.375 -0.0668  0.1825 -0.0063
  532loPI   C1A 8503  14.426  13.829  10.906 -0.0511 -0.0164 -0.0397
  532loPI   C2A 8504  14.433  13.762  10.583  0.1393 -0.0219 -0.1298
  532loPI   C3A 8505  14.480  13.740  10.231 -0.2730 -0.1460  0.0897
  532loPI   C4A 8506  14.413  13.692   9.789  0.0666 -0.1287  0.0390
  532loPI   C5A 8507  14.436  13.801   9.297 -0.0783 -0.1026  0.2119
  532loPI   C6A 8508  14.412  13.575   8.860  0.0387 -0.0872  0.1559
  532loPI   C1B 8509  14.913  13.905  11.002  0.1362 -0.1670  0.1983
  532loPI   C2B 8510  14.930  13.813  10.578  0.0269 -0.2806  0.0735
  532loPI   C3B 8511  14.978  13.816  10.111 -0.0526  0.1813  0.0355
  532loPI   C4B 8512  14.996  13.720   9.663  0.1681 -0.1172  0.0520
  533loPI    C1 8513  12.990  10.114  11.846  0.1935  0.0078  0.0276
  533loPI    C2 8514  13.354   9.977  11.940  0.3016  0.1483 -0.1807
  533loPI    C3 8515  13.200  10.288  12.139  0.3076  0.1078 -0.1124
  533loPI   PO4 8516  13.058  10.083  11.580 -0.0249 -0.1045 -0.0088
  533loPI   GL1 8517  13.215  10.046  11.102  0.1874 -0.3108  0.2282
  533loPI   GL2 8518  12.938  10.095  11.112 -0.1889  0.0687  0.0641
  533loPI   C1A 8519  13.429   9.924  10.634 -0.1759 -0.2100  0.1940
  533loPI   C2A 8520  13.412   9.828  10.243 -0.2591  0.0943  0.0563
  533loPI   C3A 8521  13.376   9.801   9.772  0.1079 -0.0821  0.1884
  533loPI   C4A 8522  13.312   9.948   9.313  0.1121  0.1566 -0.1788
  533loPI   C5A 8523  13.499   9.902   8.892  0.1898  0.1149  0.1344
  533loPI   C6A 8524  13.608   9.997   8.441  0.2157 -0.0867  0.1944
  533loPI   C1B 8525  12.926   9.866  10.761 -0.0252 -0.0603 -0.0538
  533loPI   C2B 8526  12.929   9.763  10.387  0.0104  0.2613  0.1587
  533loPI   C3B 8527  12.964   9.692  10.016  0.0026  0.2213  0.2587
  533loPI   C4B 8528  12.840   9.691   9.608 -0.1749  0.0972 -0.1635
  534loPI    C1 8529   8.346  15.722  11.722 -0.0909 -0.0554  0.0001
  534loPI    C2 8530   8.323  16.082  11.893 -0.0161 -0.1258  0.1613
  534loPI    C3 8531   8.590  15.816  12.025 -0.0034 -0.2057 -0.0225
  534loPI   PO4 8532   8.348  15.762  11.455 -0.1243 -0.0606 -0.0825
  534loPI   GL1 8533   8.375  16.155  11.259  0.0277  0.2229 -0.0970
  534loPI   GL2 8534   8.060  15.912  11.009 -0.2698  0.1816 -0.1990
  534loPI   C1A 8535   8.310  16.428  10.917  0.1578 -0.0560 -0.0902
  534loPI   C2A 8536   8.365  16.474  10.524  0.2044  0.0379  0.5462
  534loPI   C3A 8537   8.255  16.406  10.151  0.1559  0.1168 -0.0173
  534loPI   C4A 8538   8.268  16.317   9.737 -0.0303  0.1456  0.0234
  534loPI   C5A 8539   8.326  16.347   9.310  0.1784 -0.0038  0.1834
  534loPI   C6A 8540   7.940  16.260   9.055 -0.2597 -0.0290  0.1319
  534loPI   C1B 8541   8.135  15.902  10.548  0.0896 -0.2488 -0.0928
  534loPI   C2B 8542   8.002  15.901  10.160 -0.0140  0.1317  0.1654
  534loPI   C3B 8543   8.054  15.896   9.762  0.0573 -0.0723  0.1778
  534loPI   C4B 8544   8.141  15.823   9.345 -0.2214 -0.0287 -0.1597
  535loPI    C1 8545   6.145   8.874  11.954 -0.2780 -0.0840  0.1488
  535loPI    C2 8546   5.942   8.943  12.291 -0.0658  0.1925  0.2243
  535loPI    C3 8547   6.208   8.645  12.276 -0.0417  0.2089  0.3167
  535loPI   PO4 8548   6.083   8.834  11.764  0.1382  0.1449  0.3586
  535loPI   GL1 8549   6.170   8.956  11.304 -0.3673 -0.1172 -0.2455
  535loPI   GL2 8550   6.020   8.715  11.178  0.1931  0.0216  0.1176
  535loPI   C1A 8551   6.337   9.059  10.981 -0.1378  0.1627 -0.2281
  535loPI   C2A 8552   6.373   9.224  10.619  0.0500 -0.2116 -0.1956
  535loPI   C3A 8553   6.302   9.196  10.223 -0.0282 -0.1314  0.3198
  535loPI   C4A 8554   6.442   9.312   9.846 -0.0286  0.2823 -0.1487
  535loPI   C5A 8555   6.311   9.329   9.348 -0.3884 -0.2304 -0.0825
  535loPI   C6A 8556   6.498   9.363   8.909 -0.0342 -0.1167  0.3107
  535loPI   C1B 8557   6.136   8.737  10.672 -0.2130  0.2340  0.1384
  535loPI   C2B 8558   6.110   8.762  10.256  0.0207  0.2368 -0.5107
  535loPI   C3B 8559   6.157   8.881   9.835 -0.1761  0.0370 -0.3197
  535loPI   C4B 8560   6.146   8.838   9.438  0.2320 -0.0842 -0.1054
  536loPI    C1 8561   1.657   2.401  11.441  0.2712 -0.0573  0.0243
  536loPI    C2 8562   1.795   2.763  11.540  0.2262 -0.0613  0.1024
  536loPI    C3 8563   2.051   2.466  11.463  0.2645  0.0079 -0.0421
  536loPI   PO4 8564   1.381   2.534  11.504 -0.0026  0.4617  0.2106
  536loPI   GL1 8565   1.162   2.551  11.232  0.0391  0.1126  0.0021
  536loPI   GL2 8566   0.970   2.290  11.242  0.1903 -0.0012  0.1313
  536loPI   C1A 8567   1.318   2.471  10.832 -0.1702 -0.1317 -0.0109
  536loPI   C2A 8568   1.336   2.412  10.365  0.0880  0.0126  0.0720
  536loPI   C3A 8569   1.415   2.540  10.081  0.1689 -0.0837 -0.0516
  536loPI   C4A 8570   1.303   2.539   9.686 -0.3429  0.0374  0.3845
  536loPI   C5A 8571   1.263   2.715   9.271 -0.3246 -0.0808 -0.2826
  536loPI   C6A 8572   1.266   3.080   9.076 -0.2454 -0.0715 -0.1218
  536loPI   C1B 8573   0.829   2.333  10.837 -0.0490  0.0728 -0.1463
  536loPI   C2B 8574   0.855   2.332  10.369  0.1135  0.5460  0.1677
  536loPI   C3B 8575   0.789   2.464   9.940  0.2067  0.1498 -0.1265
  536loPI   C4B 8576   0.698   2.432   9.520 -0.2776  0.0636 -0.1065
  537loPI    C1 8577   9.663  12.875  11.725 -0.0538 -0.0824  0.0145
  537loPI    C2 8578  10.027  13.006  11.828 -0.0744 -0.0416  0.0357
  537loPI    C3 8579   9.742  12.970  12.106 -0.0854 -0.0775  0.0198
  537loPI   PO4 8580   9.645  12.940  11.477  0.2148  0.1949 -0.0917
  537loPI   GL1 8581   9.712  12.854  11.037  0.3077 -0.0915 -0.4374
  537loPI   GL2 8582   9.812  12.563  11.075 -0.1960 -0.0680  0.3501
  537loPI   C1A 8583   9.836  12.938  10.688 -0.1364 -0.0423  0.0937
  537loPI   C2A 8584   9.804  12.854  10.288  0.2699  0.0667 -0.1140
  537loPI   C3A 8585   9.835  12.944   9.783 -0.0627  0.0242 -0.1409
  537loPI   C4A 8586   9.804  12.987   9.384  0.0351  0.1464  0.1134
  537loPI   C5A 8587   9.660  12.923   9.016 -0.1748  0.1737  0.0834
  537loPI   C6A 8588   9.547  12.882   8.572  0.0721  0.1102  0.0349
  537loPI   C1B 8589   9.627  12.430  10.685  0.3833 -0.0717 -0.2144
  537loPI   C2B 8590   9.613  12.395  10.204 -0.2632  0.2263  0.4639
  537loPI   C3B 8591   9.603  12.490   9.761  0.2517 -0.1472  0.0185
  537loPI   C4B 8592   9.609  12.528   9.318 -0.3410 -0.0491  0.0134
  538loPI    C1 8593   5.426  10.842  11.714 -0.1719 -0.3117 -0.2772
  538loPI    C2 8594   5.765  10.734  11.530 -0.0396 -0.0442 -0.1949
  538loPI    C3 8595   5.720  10.666  11.922 -0.0902 -0.0993 -0.2102
  538loPI   PO4 8596   5.217  10.756  11.536  0.1048  0.1218  0.2159
  538loPI   GL1 8597   5.068  10.859  11.237  0.1179 -0.3236  0.0240
  538loPI   GL2 8598   5.350  10.587  11.109 -0.0779  0.2382 -0.0375
  538loPI   C1A 8599   5.174  10.927  10.806 -0.0865 -0.1653  0.2467
  538loPI   C2A 8600   5.168  10.903  10.284  0.0170  0.3127 -0.4369
  538loPI   C3A 8601   5.136  10.859   9.863 -0.0942  0.3021  0.0284
  538loPI   C4A 8602   5.106  10.908   9.394  0.4873 -0.0930  0.0182
  538loPI   C5A 8603   4.969  10.724   9.106  0.0549 -0.1714 -0.0714
  538loPI   C6A 8604   4.731  10.554   8.757  0.1340 -0.1686  0.0921
  538loPI   C1B 8605   5.337  10.452  10.712 -0.1379 -0.0340  0.0508
  538loPI   C2B 8606   5.442  10.414  10.347 -0.1217  0.0570  0.1173
  538loPI   C3B 8607   5.378  10.450  10.043 -0.0573  0.1336  0.0761
  538loPI   C4B 8608   5.438  10.499   9.587  0.2102  0.0226  0.3739
  539loPI    C1 8609   7.995   2.328  11.429  0.0517  0.2225  0.0475
  539loPI    C2 8610   8.281   2.113  11.251 -0.2008 -0.1146  0.0392
  539loPI    C3 8611   8.319   2.218  11.635 -0.0569 -0.1386  0.0319
  539loPI   PO4 8612   7.776   2.250  11.295 -0.0323  0.0529 -0.0938
  539loPI   GL1 8613   7.617   2.125  11.017  0.0069  0.2227 -0.1274
  539loPI   GL2 8614   7.991   2.165  10.853 -0.2421  0.1722 -0.2274
  539loPI   C1A 8615   7.428   2.094  10.533 -0.1969 -0.2671  0.0597
  539loPI   C2A 8616   7.428   2.053  10.111  0.1218  0.2262 -0.1186
  539loPI   C3A 8617   7.463   2.084   9.615  0.2652  0.2875 -0.0886
  539loPI   C4A 8618   7.412   2.001   9.178  0.0138  0.1291  0.1275
  539loPI   C5A 8619   7.148   1.746   8.820  0.2477  0.2680 -0.1581
  539loPI   C6A 8620   6.893   1.835   8.476 -0.0766 -0.1650  0.1401
  539loPI   C1B 8621   7.904   2.165  10.422 -0.2151  0.0284 -0.3148
  539loPI   C2B 8622   7.903   2.069   9.911  0.1785 -0.0923 -0.0999
  539loPI   C3B 8623   8.036   2.176   9.466  0.5409 -0.4684 -0.2819
  539loPI   C4B 8624   8.065   2.110   8.946  0.2133 -0.3361 -0.2647
  540loPI    C1 8625   9.125   5.772  11.908  0.2676 -0.0719  0.1739
  540loPI    C2 8626   8.787   5.732  12.119  0.0725 -0.0786 -0.1332
  540loPI    C3 8627   9.108   5.513  12.212 -0.1405 -0.3827 -0.1016
  540loPI   PO4 8628   9.053   5.765  11.680  0.0106  0.0260  0.1383
  540loPI   GL1 8629   9.090   5.913  11.358 -0.0748  0.1634  0.0176
  540loPI   GL2 8630   9.244   5.636  11.094  0.0972  0.0962  0.0119
  540loPI   C1A 8631   9.008   6.037  10.972  0.0393  0.2218 -0.1083
  540loPI   C2A 8632   8.940   5.956  10.561  0.0808 -0.1613  0.0246
  540loPI   C3A 8633   8.952   5.915  10.193  0.2523 -0.0837 -0.0887
  540loPI   C4A 8634   8.925   6.014   9.724  0.2007 -0.2263 -0.0942
  540loPI   C5A 8635   8.987   5.977   9.288  0.3256  0.1670  0.1261
  540loPI   C6A 8636   9.428   5.821   9.095  0.1166  0.0875 -0.0827
  540loPI   C1B 8637   9.330   5.576  10.731 -0.1462 -0.1167  0.0927
  540loPI   C2B 8638   9.209   5.537  10.358 -0.0694  0.0213 -0.3332
  540loPI   C3B 8639   9.220   5.546   9.925  0.0217  0.0144  0.1195
  540loPI   C4B 8640   9.319   5.687   9.540 -0.0436  0.0474  0.0192
  541POPI    C1 8641   1.109  13.402  11.777 -0.1731  0.2655 -0.0891
  541POPI    C2 8642   1.278  13.717  11.957  0.0845  0.0139  0.1192
  541POPI    C3 8643   1.300  13.355  12.126 -0.1316 -0.1337 -0.1614
  541POPI   PO4 8644   1.129  13.565  11.480 -0.1620 -0.0311 -0.1642
  541POPI   GL1 8645   1.087  13.897  11.215  0.0214  0.0553 -0.1924
  541POPI   GL2 8646   1.401  13.868  11.060  0.1682  0.0513  0.1540
  541POPI   C1A 8647   0.978  13.845  10.840  0.1185 -0.0911 -0.3206
  541POPI   D2A 8648   0.932  13.856  10.385 -0.0352 -0.2579 -0.0641
  541POPI   C3A 8649   1.003  13.948   9.897  0.0991  0.0455  0.4091
  541POPI   C4A 8650   0.931  13.912   9.470  0.3050 -0.1287  0.0589
  541POPI   C1B 8651   1.439  13.934  10.686  0.0316  0.0278  0.4018
  541POPI   C2B 8652   1.381  13.963  10.282 -0.0856 -0.0842 -0.2912
  541POPI   C3B 8653   1.517  14.023   9.821 -0.0557 -0.0159 -0.2086
  541POPI   C4B 8654   1.498  13.933   9.378  0.0154 -0.0062  0.0153
  542POPI    C1 8655  16.096  12.062  11.731  0.0520  0.0154  0.0081
  542POPI    C2 8656  15.894  11.727  11.816 -0.0195  0.0527 -0.0132
  542POPI    C3 8657  16.197  11.843  12.050  0.2653 -0.2375 -0.2287
  542POPI   PO4 8658  16.123  12.040  11.530  0.0016 -0.2125  0.1637
  542POPI   GL1 8659  16.105  12.254  11.201  0.0862 -0.1316 -0.1461
  542POPI   GL2 8660  16.430  12.084  11.174  0.1082 -0.2876  0.2933
  542POPI   C1A 8661  16.240  12.232  10.744  0.1448 -0.2541  0.1276
  542POPI   D2A 8662  16.215  12.121  10.225  0.1706 -0.1049 -0.0936
  542POPI   C3A 8663  16.158  12.179   9.816 -0.2096  0.0976 -0.0359
  542POPI   C4A 8664  16.205  12.191   9.390  0.1589 -0.3600 -0.1564
  542POPI   C1B 8665  16.538  11.864  10.767 -0.0307  0.3342 -0.1019
  542POPI   C2B 8666  16.503  11.795  10.418  0.1844 -0.1211  0.2190
  542POPI   C3B 8667  16.527  11.806   9.981  0.0734 -0.0860  0.0775
  542POPI   C4B 8668  16.553  11.800   9.622 -0.0329 -0.0292 -0.1197
  543POPI    C1 8669  12.147  13.025  11.774  0.2532 -0.1735  0.0108
  543POPI    C2 8670  12.248  13.091  12.155  0.0268  0.1459  0.0192
  543POPI    C3 8671  12.051  12.758  12.056  0.0781  0.0661  0.1819
  543POPI   PO4 8672  12.289  13.113  11.648  0.3178 -0.1030 -0.0737
  543POPI   GL1 8673  12.582  12.962  11.334  0.0862  0.1827 -0.1182
  543POPI   GL2 8674  12.680  12.690  11.303 -0.1840 -0.0688 -0.1359
  543POPI   C1A 8675  12.730  12.965  10.841 -0.0595  0.1487  0.1072
  543POPI   D2A 8676  12.733  12.911  10.355 -0.2971  0.0282 -0.3081
  543POPI   C3A 8677  12.643  12.960   9.972 -0.1628  0.5075 -0.1586
  543POPI   C4A 8678  12.644  12.888   9.589  0.3635  0.0706  0.2599
  543POPI   C1B 8679  12.971  12.528  10.946  0.0752  0.0459 -0.0907
  543POPI   C2B 8680  13.079  12.588  10.615  0.0538  0.1086  0.4451
  543POPI   C3B 8681  13.050  12.567  10.167 -0.1815  0.1518 -0.1397
  543POPI   C4B 8682  12.956  12.566   9.770  0.3169  0.0782 -0.1190
  544POPI    C1 8683   6.789  17.390  11.734  0.0932  0.0496  0.1059
  544POPI    C2 8684   6.514  17.100  11.742  0.1085  0.0275 -0.1002
  544POPI    C3 8685   6.678  17.230  12.083 -0.1383  0.0239  0.0221
  544POPI   PO4 8686   6.674  17.560  11.548  0.0519  0.0576  0.1254
  544POPI   GL1 8687   6.769  17.542  11.156 -0.0904 -0.0587  0.0098
  544POPI   GL2 8688   6.459  17.412  10.954  0.0737  0.0973 -0.2652
  544POPI   C1A 8689   6.998  17.671  10.745 -0.0860  0.1487  0.5093
  544POPI   D2A 8690   7.312  17.699  10.394 -0.0019  0.2376  0.0403
  544POPI   C3A 8691   7.240  17.670   9.934  0.2736  0.2762 -0.2092
  544POPI   C4A 8692   7.292  17.547   9.450  0.0024  0.0038 -0.0733
  544POPI   C1B 8693   6.575  17.409  10.588  0.0734 -0.3451 -0.2478
  544POPI   C2B 8694   6.723  17.458  10.181 -0.2731 -0.0534 -0.0745
  544POPI   C3B 8695   6.809  17.557   9.726  0.1204  0.1981 -0.0901
  544POPI   C4B 8696   6.746  17.562   9.246  0.0660  0.0969  0.0206
  545POPI    C1 8697  15.415  17.246  11.712 -0.0169  0.0542 -0.1139
  545POPI    C2 8698  15.282  17.240  12.089 -0.0898 -0.0574 -0.1409
  545POPI    C3 8699  15.668  17.315  12.014 -0.0965  0.0701 -0.0505
  545POPI   PO4 8700  15.203  17.387  11.543 -0.0149  0.0242 -0.1799
  545POPI   GL1 8701  15.257  17.660  11.262 -0.0610 -0.0678  0.1856
  545POPI   GL2 8702  15.562  17.769  11.277 -0.0975 -0.1490 -0.1088
  545POPI   C1A 8703  15.416  17.514  10.858 -0.1511  0.1133 -0.1209
  545POPI   D2A 8704  15.263  17.485  10.455  0.2023 -0.1183  0.3925
  545POPI   C3A 8705  15.455  17.609  10.049  0.1726 -0.0374  0.0402
  545POPI   C4A 8706  15.518  17.646   9.634  0.1269 -0.1863  0.1863
  545POPI   C1B 8707  15.666  17.984  10.814  0.0269 -0.1391  0.0511
  545POPI   C2B 8708  15.659  18.053  10.336 -0.2823 -0.1751  0.3051
  545POPI   C3B 8709  15.681  18.051   9.929  0.1425 -0.0065  0.0038
  545POPI   C4B 8710  15.711  18.108   9.476 -0.0019  0.3322 -0.2392
  546POPI    C1 8711   1.707   9.810  11.695  0.0587  0.0531 -0.0303
  546POPI    C2 8712   1.538  10.128  11.870 -0.2357 -0.0130 -0.1869
  546POPI    C3 8713   1.595   9.791  12.078  0.1018  0.1466 -0.0126
  546POPI   PO4 8714   1.644   9.864  11.455 -0.4858  0.4712 -0.0143
  546POPI   GL1 8715   1.807   9.901  11.163 -0.1762  0.0427 -0.3417
  546POPI   GL2 8716   1.792  10.246  11.134 -0.1694  0.4554  0.2087
  546POPI   C1A 8717   1.747   9.924  10.730  0.0279 -0.2172  0.2607
  546POPI   D2A 8718   1.739   9.901  10.171  0.0138 -0.0596 -0.0561
  546POPI   C3A 8719   1.789  10.087   9.797  0.1148  0.1019 -0.1424
  546POPI   C4A 8720   1.869  10.059   9.420 -0.0114 -0.0741  0.1029
  546POPI   C1B 8721   1.747  10.421  10.801 -0.1193  0.1151 -0.0835
  546POPI   C2B 8722   1.747  10.381  10.420  0.1071 -0.1706 -0.1308
  546POPI   C3B 8723   2.009  10.509  10.128 -0.0582 -0.0391  0.2461
  546POPI   C4B 8724   2.036  10.506   9.619 -0.2160  0.0373 -0.1382
  547POPI    C1 8725  12.782   8.972  11.728  0.2033 -0.1114 -0.1154
  547POPI    C2 8726  12.782   8.585  11.830  0.0094 -0.0807  0.0061
  547POPI    C3 8727  12.748   8.866  12.112 -0.1137  0.0172 -0.1053
  547POPI   PO4 8728  12.718   8.980  11.529 -0.2912  0.1563  0.0133
  547POPI   GL1 8729  12.823   9.065  11.167 -0.1439 -0.1043  0.2228
  547POPI   GL2 8730  12.537   8.941  10.997  0.2524 -0.3399 -0.2418
  547POPI   C1A 8731  12.993   8.885  10.769  0.0214 -0.3698  0.1209
  547POPI   D2A 8732  12.964   8.803  10.306 -0.3261 -0.0602  0.1245
  547POPI   C3A 8733  12.944   8.875   9.805  0.0838 -0.2821  0.1115
  547POPI   C4A 8734  12.941   8.857   9.304 -0.0509 -0.2936  0.0292
  547POPI   C1B 8735  12.405   8.820  10.549  0.1056 -0.1080 -0.0157
  547POPI   C2B 8736  12.480   8.799  10.131  0.2424  0.0965  0.2815
  547POPI   C3B 8737  12.484   8.785   9.619 -0.0333 -0.1009 -0.0809
  547POPI   C4B 8738  12.504   8.678   9.152 -0.1777  0.2936  0.0731
  548POPI    C1 8739   6.426   9.827  11.842  0.2973  0.1085  0.0210
  548POPI    C2 8740   6.364  10.040  12.175  0.1641  0.0356  0.0438
  548POPI    C3 8741   6.565   9.694  12.192  0.0651 -0.0210  0.0662
  548POPI   PO4 8742   6.403   9.957  11.603 -0.0846 -0.1283 -0.1951
  548POPI   GL1 8743   6.216  10.042  11.100 -0.1677 -0.2091 -0.0828
  548POPI   GL2 8744   6.545  10.066  11.137 -0.2694  0.0110  0.1359
  548POPI   C1A 8745   6.191  10.028  10.693  0.2212 -0.0319 -0.0735
  548POPI   D2A 8746   6.316  10.159  10.291 -0.1521  0.0704 -0.3368
  548POPI   C3A 8747   6.312  10.171   9.878 -0.1429 -0.2427 -0.0113
  548POPI   C4A 8748   6.283  10.153   9.410  0.0741  0.1390 -0.3937
  548POPI   C1B 8749   6.548   9.709  10.802  0.1273 -0.1250  0.1547
  548POPI   C2B 8750   6.553   9.717  10.341 -0.2916 -0.2083  0.0302
  548POPI   C3B 8751   6.703   9.767   9.903  0.1286 -0.0527 -0.2348
  548POPI   C4B 8752   6.612   9.835   9.498 -0.0627 -0.1120 -0.0054
  549POPI    C1 8753  16.515   3.060  11.624  0.2823  0.2784  0.0943
  549POPI    C2 8754  16.157   3.223  11.697  0.1278  0.0426 -0.1212
  549POPI    C3 8755  16.445   3.239  11.975 -0.1625 -0.0712  0.1932
  549POPI   PO4 8756  16.620   3.269  11.360 -0.1489  0.1808  0.0625
  549POPI   GL1 8757  16.386   3.314  11.108  0.0510  0.3697  0.0035
  549POPI   GL2 8758  16.174   3.550  10.905  0.1996  0.0263  0.0158
  549POPI   C1A 8759  16.554   3.132  10.709  0.0562  0.3155 -0.1558
  549POPI   D2A 8760  16.576   2.972  10.387  0.3447  0.2290  0.0153
  549POPI   C3A 8761  16.443   3.065  10.072 -0.3474  0.2013 -0.0507
  549POPI   C4A 8762  16.440   3.106   9.734  0.1240  0.1281  0.3902
  549POPI   C1B 8763  16.192   3.550  10.475  0.3015  0.0268  0.2389
  549POPI   C2B 8764  16.142   3.490   9.995  0.4449 -0.1770 -0.0583
  549POPI   C3B 8765  16.137   3.565   9.641  0.0763  0.0297  0.3399
  549POPI   C4B 8766  16.381   3.347   9.168 -0.0280 -0.2497  0.0855
  550POPI    C1 8767  12.743   4.039  11.512 -0.1431  0.1478 -0.0918
  550POPI    C2 8768  12.650   3.749  11.772  0.0323  0.0929 -0.0886
  550POPI    C3 8769  12.645   4.132  11.889  0.0861  0.0701 -0.0106
  550POPI   PO4 8770  12.830   3.914  11.349  0.0181 -0.2471  0.1361
  550POPI   GL1 8771  12.964   4.008  10.978 -0.2477  0.1898 -0.0148
  550POPI   GL2 8772  13.064   4.297  10.899 -0.1844  0.0724 -0.0364
  550POPI   C1A 8773  13.023   3.841  10.538 -0.1976 -0.0327 -0.1678
  550POPI   D2A 8774  13.054   3.804  10.070 -0.0974  0.0631 -0.4600
  550POPI   C3A 8775  12.968   3.830   9.574 -0.0417 -0.1762  0.3327
  550POPI   C4A 8776  13.050   3.873   9.205 -0.1292 -0.2704  0.1193
  550POPI   C1B 8777  13.218   4.330  10.551 -0.1805  0.0477 -0.3018
  550POPI   C2B 8778  13.245   4.411  10.217 -0.0772 -0.0475  0.0150
  550POPI   C3B 8779  13.194   4.384   9.736 -0.1656 -0.2916  0.1567
  550POPI   C4B 8780  13.264   4.353   9.285  0.0566  0.0614  0.1063
  551POPI    C1 8781  16.655  13.389  12.121  0.2019 -0.0311 -0.0443
  551POPI    C2 8782  16.752  13.152  12.428 -0.0275 -0.0959 -0.0203
  551POPI    C3 8783  16.420  13.080  12.217  0.0502  0.0374 -0.1903
  551POPI   PO4 8784  16.880  13.387  11.909 -0.2155 -0.2434  0.1541
  551POPI   GL1 8785  16.893  13.458  11.433  0.0949 -0.0778  0.0649
  551POPI   GL2 8786  16.650  13.403  11.252 -0.1661  0.1914  0.0657
  551POPI   C1A 8787  17.022  13.261  11.017 -0.0475  0.1751  0.0206
  551POPI   D2A 8788  17.112  13.180  10.623 -0.1252 -0.3265  0.0458
  551POPI   C3A 8789  17.080  13.245  10.175  0.0840 -0.3668  0.1710
  551POPI   C4A 8790  17.146  13.208   9.805 -0.1207  0.0530  0.0810
  551POPI   C1B 8791  16.740  13.656  10.819 -0.1047  0.2218  0.0316
  551POPI   C2B 8792  16.826  13.553  10.400  0.3172 -0.2118  0.0281
  551POPI   C3B 8793  16.818  13.606   9.953  0.0305  0.0016  0.0350
  551POPI   C4B 8794  16.911  13.556   9.558  0.2672  0.1341  0.1171
  552POPI    C1 8795  14.603  13.070  12.014 -0.3256 -0.0257 -0.0795
  552POPI    C2 8796  14.330  12.880  12.237 -0.1949 -0.0700  0.0448
  552POPI    C3 8797  14.654  12.684  12.107 -0.1219  0.0344  0.0681
  552POPI   PO4 8798  14.524  13.134  11.822  0.0674 -0.0382  0.1774
  552POPI   GL1 8799  14.494  13.093  11.430  0.1909  0.2925  0.4493
  552POPI   GL2 8800  14.704  13.303  11.312 -0.1611  0.1947 -0.0597
  552POPI   C1A 8801  14.508  12.929  11.007 -0.3190 -0.1986 -0.1497
  552POPI   D2A 8802  14.490  12.838  10.585 -0.0418 -0.1328  0.1723
  552POPI   C3A 8803  14.588  12.767  10.120  0.1902  0.1147 -0.1238
  552POPI   C4A 8804  14.571  12.747   9.736  0.3814  0.2009  0.0629
  552POPI   C1B 8805  14.695  13.411  10.852 -0.1252 -0.2459  0.2241
  552POPI   C2B 8806  14.735  13.328  10.421  0.2045 -0.1080  0.3195
  552POPI   C3B 8807  14.663  13.186   9.940 -0.0341  0.0730  0.2665
  552POPI   C4B 8808  14.638  13.265   9.527 -0.0812  0.0622  0.2477
  553POPI    C1 8809  13.899  12.505  12.070 -0.1384 -0.0318 -0.1854
  553POPI    C2 8810  13.707  12.293  12.349  0.0547 -0.0454 -0.0609
  553POPI    C3 8811  13.930  12.607  12.456 -0.1503  0.1625 -0.2348
  553POPI   PO4 8812  13.791  12.519  11.732  0.0966 -0.1285  0.1489
  553POPI   GL1 8813  13.996  12.552  11.325 -0.1534  0.1203  0.0632
  553POPI   GL2 8814  13.965  12.824  11.213  0.1544 -0.1452 -0.2408
  553POPI   C1A 8815  13.832  12.386  11.000  0.1250 -0.1566 -0.1523
  553POPI   D2A 8816  13.784  12.188  10.546  0.2334  0.0236  0.1765
  553POPI   C3A 8817  13.920  12.175  10.088  0.1129 -0.0063 -0.1455
  553POPI   C4A 8818  13.905  12.252   9.572 -0.1579  0.0924 -0.0852
  553POPI   C1B 8819  14.033  12.864  10.823  0.2539  0.1969  0.4024
  553POPI   C2B 8820  13.795  13.196  10.614  0.0216  0.1655 -0.0199
  553POPI   C3B 8821  13.741  13.105  10.205 -0.0249  0.0193  0.2401
  553POPI   C4B 8822  13.703  13.073   9.749 -0.2638 -0.1228 -0.3470
  554POPI    C1 8823   7.501  15.439  11.961 -0.1225 -0.0318 -0.1052
  554POPI    C2 8824   7.896  15.475  11.907 -0.1185  0.0523 -0.0233
  554POPI    C3 8825   7.754  15.229  12.189 -0.1258 -0.0015 -0.0735
  554POPI   PO4 8826   7.372  15.372  11.595  0.2026 -0.1403 -0.0230
  554POPI   GL1 8827   7.387  15.478  11.253  0.1794 -0.0394 -0.0013
  554POPI   GL2 8828   7.140  15.717  11.204  0.2861 -0.2232  0.0643
  554POPI   C1A 8829   7.380  15.389  10.795 -0.1352  0.0987  0.1594
  554POPI   D2A 8830   7.356  15.303  10.364  0.2451  0.1526 -0.1525
  554POPI   C3A 8831   7.299  15.415  10.021 -0.0156  0.1426  0.0462
  554POPI   C4A 8832   7.320  15.474   9.553 -0.2130  0.2876  0.1113
  554POPI   C1B 8833   7.031  15.816  10.803  0.6364  0.1255 -0.1462
  554POPI   C2B 8834   7.081  15.801  10.461 -0.1838  0.0697  0.1869
  554POPI   C3B 8835   6.981  15.840  10.002  0.1268  0.1118 -0.0902
  554POPI   C4B 8836   6.845  15.885   9.543 -0.2469  0.3239  0.3841
  555POPI    C1 8837  16.900   7.046  11.571  0.0247 -0.0144  0.0110
  555POPI    C2 8838  17.300   7.048  11.554  0.0207 -0.1061 -0.1089
  555POPI    C3 8839  17.114   6.893  11.873  0.0811 -0.0011 -0.0220
  555POPI   PO4 8840  16.823   6.986  11.356 -0.3353  0.2263  0.2875
  555POPI   GL1 8841  16.650   7.034  11.063  0.0717  0.0252 -0.1032
  555POPI   GL2 8842  16.865   7.344  10.944 -0.0872  0.1949 -0.1316
  555POPI   C1A 8843  16.553   6.872  10.657  0.0912  0.1497  0.0035
  555POPI   D2A 8844  16.481   6.718  10.291  0.2698  0.0225  0.0552
  555POPI   C3A 8845  16.566   6.747   9.914 -0.0594  0.1552  0.0332
  555POPI   C4A 8846  16.499   6.752   9.512 -0.0436 -0.0935  0.0450
  555POPI   C1B 8847  16.672   7.343  10.483 -0.2783  0.5478  0.0613
  555POPI   C2B 8848  16.624   7.296  10.120 -0.2461  0.1989 -0.0815
  555POPI   C3B 8849  16.762   7.298   9.797  0.1888  0.2490  0.2909
  555POPI   C4B 8850  16.718   7.196   9.368  0.0795  0.0668 -0.2060
  556POPI    C1 8851  16.274   9.221  11.786  0.0087 -0.0168  0.1514
  556POPI    C2 8852  15.940   9.147  11.993  0.0307  0.1218  0.2378
  556POPI    C3 8853  16.289   9.185  12.184  0.0957 -0.0196  0.1480
  556POPI   PO4 8854  16.162   9.371  11.574 -0.1141  0.1112 -0.3789
  556POPI   GL1 8855  15.925   9.348  11.220  0.1577 -0.1910 -0.0533
  556POPI   GL2 8856  16.197   9.379  11.070 -0.1514 -0.1435 -0.1178
  556POPI   C1A 8857  15.670   9.447  10.991 -0.1822 -0.2680 -0.1882
  556POPI   D2A 8858  15.565   9.346  10.565 -0.0765  0.3156 -0.0416
  556POPI   C3A 8859  15.566   9.373  10.025 -0.1981 -0.1149 -0.1682
  556POPI   C4A 8860  15.424   9.338   9.599  0.2637  0.0749  0.2263
  556POPI   C1B 8861  16.070   9.374  10.698  0.0578  0.2770 -0.1430
  556POPI   C2B 8862  15.997   9.458  10.272  0.0702 -0.2736  0.1697
  556POPI   C3B 8863  16.048   9.415   9.826  0.1589  0.0512 -0.3345
  556POPI   C4B 8864  16.071   9.423   9.426  0.3242  0.1063 -0.0660
  557POPI    C1 8865  15.363   7.264  11.343  0.2725  0.2555 -0.0039
  557POPI    C2 8866  15.528   6.975  11.566  0.1483 -0.0742 -0.3282
  557POPI    C3 8867  15.342   7.282  11.742  0.1997 -0.2388  0.0218
  557POPI   PO4 8868  15.293   7.138  11.117 -0.2642 -0.1886  0.2067
  557POPI   GL1 8869  15.210   6.899  10.738 -0.1471  0.1139 -0.1088
  557POPI   GL2 8870  15.485   6.966  10.686  0.0898 -0.1731  0.1071
  557POPI   C1A 8871  15.131   6.933  10.319  0.2853 -0.1557 -0.0275
  557POPI   D2A 8872  15.208   6.993   9.838  0.1100  0.1360 -0.1894
  557POPI   C3A 8873  15.139   6.905   9.501 -0.2353 -0.0673  0.0436
  557POPI   C4A 8874  14.964   6.776   9.083  0.0001  0.0947  0.2051
  557POPI   C1B 8875  15.629   6.999  10.335  0.0546 -0.1887 -0.2242
  557POPI   C2B 8876  15.725   7.113   9.845  0.2226  0.1379  0.0116
  557POPI   C3B 8877  15.598   7.047   9.428  0.1153 -0.1054 -0.0542
  557POPI   C4B 8878  15.272   7.237   9.142  0.1656 -0.0446 -0.1327
  558POPI    C1 8879   7.441  10.833  11.404  0.0181  0.0363  0.0141
  558POPI    C2 8880   7.264  11.049  11.691  0.1227  0.0709  0.0532
  558POPI    C3 8881   7.652  10.957  11.721  0.0800 -0.1196  0.0346
  558POPI   PO4 8882   7.202  10.715  11.294  0.2911 -0.2586 -0.3204
  558POPI   GL1 8883   7.239  10.615  10.944 -0.0773  0.1216  0.0698
  558POPI   GL2 8884   7.622  10.684  10.943 -0.0899  0.0429  0.0327
  558POPI   C1A 8885   7.472  10.603  10.460  0.0588  0.1408 -0.2973
  558POPI   D2A 8886   7.490  10.851  10.180  0.1224 -0.0123  0.0856
  558POPI   C3A 8887   7.482  10.782   9.788 -0.2334  0.3322  0.1386
  558POPI   C4A 8888   7.521  10.811   9.399 -0.2070 -0.0534  0.0708
  558POPI   C1B 8889   7.722  11.135  10.675  0.2319 -0.1749 -0.0727
  558POPI   C2B 8890   7.680  11.287  10.309  0.0812 -0.0017 -0.2163
  558POPI   C3B 8891   7.676  11.214   9.881 -0.1064 -0.0535 -0.2044
  558POPI   C4B 8892   7.750  11.278   9.530  0.4168  0.0068  0.3505
  559POPI    C1 8893   0.614   0.412  11.613 -0.0731 -0.2350 -0.1947
  559POPI    C2 8894   0.662   0.540  11.988 -0.1011 -0.0063 -0.2676
  559POPI    C3 8895   0.430   0.223  11.913  0.1827 -0.2701 -0.0568
  559POPI   PO4 8896   0.845   0.502  11.499 -0.0665 -0.0122 -0.2709
  559POPI   GL1 8897   1.060   0.197  11.219 -0.0814 -0.3166 -0.1311
  559POPI   GL2 8898   1.331   0.175  11.051  0.0147  0.1298  0.4408
  559POPI   C1A 8899   0.911   0.104  10.787 -0.0112 -0.0527 -0.3594
  559POPI   D2A 8900   0.955   0.077  10.352 -0.1876 -0.0391 -0.2007
  559POPI   C3A 8901   0.912   0.153   9.970  0.2947  0.0298 -0.0398
  559POPI   C4A 8902   0.953   0.055   9.646 -0.0493  0.0451 -0.2535
  559POPI   C1B 8903   1.413   0.147  10.605  0.0043  0.0056  0.0612
  559POPI   C2B 8904   1.414   0.186  10.127  0.1846 -0.2213  0.0282
  559POPI   C3B 8905   1.458   0.208   9.758  0.0994  0.3007 -0.1202
  559POPI   C4B 8906   1.521   0.332   9.297 -0.0701  0.1511 -0.1008
  560POPI    C1 8907   2.638  13.219  11.829  0.0495 -0.1293  0.0418
  560POPI    C2 8908   2.241  13.248  11.864  0.0691  0.1931  0.0275
  560POPI    C3 8909   2.466  13.188  12.189  0.0191  0.1373  0.0522
  560POPI   PO4 8910   2.616  13.140  11.562 -0.1735  0.0829 -0.2261
  560POPI   GL1 8911   2.300  13.010  11.294 -0.1941 -0.0417 -0.0212
  560POPI   GL2 8912   2.012  13.301  11.358 -0.0333  0.1881  0.1951
  560POPI   C1A 8913   2.066  13.122  10.897 -0.1126 -0.1647 -0.1732
  560POPI   D2A 8914   2.098  13.223  10.438 -0.1374 -0.1300 -0.1219
  560POPI   C3A 8915   2.097  13.179   9.976 -0.1183 -0.3788  0.0223
  560POPI   C4A 8916   2.142  13.257   9.597  0.0131 -0.2190  0.1624
  560POPI   C1B 8917   2.260  13.555  10.939  0.0859 -0.0134 -0.2302
  560POPI   C2B 8918   2.289  13.706  10.568 -0.2074 -0.1746 -0.3664
  560POPI   C3B 8919   2.294  13.717  10.128 -0.3225  0.2027  0.0470
  560POPI   C4B 8920   2.312  13.719   9.779 -0.0366 -0.1040  0.0098
  561POPI    C1 8921   8.604  14.750  11.544 -0.1875  0.1433  0.0273
  561POPI    C2 8922   8.888  14.881  11.793 -0.0644  0.2071 -0.1449
  561POPI    C3 8923   8.525  14.791  11.934  0.1532 -0.2530  0.1449
  561POPI   PO4 8924   8.561  14.933  11.337  0.2813  0.2971  0.1759
  561POPI   GL1 8925   8.551  15.035  10.901  0.0636  0.0756 -0.3240
  561POPI   GL2 8926   8.805  15.088  10.900 -0.1444 -0.1171  0.1288
  561POPI   C1A 8927   8.243  14.937  10.720  0.1762  0.0303 -0.0750
  561POPI   D2A 8928   8.126  14.932  10.276 -0.0451 -0.1667  0.0687
  561POPI   C3A 8929   8.151  14.984   9.890 -0.0064  0.0105  0.2530
  561POPI   C4A 8930   8.161  14.969   9.461  0.3003  0.3202 -0.0050
  561POPI   C1B 8931   8.781  15.030  10.464  0.1464 -0.3768  0.0388
  561POPI   C2B 8932   8.743  15.123  10.052  0.2363 -0.1230  0.0521
  561POPI   C3B 8933   8.647  14.945   9.659  0.1735 -0.0637  0.1211
  561POPI   C4B 8934   8.524  14.960   9.192  0.0488 -0.1314 -0.0490
  562POPI    C1 8935   6.583   1.582  11.916 -0.0504  0.0447 -0.0901
  562POPI    C2 8936   6.236   1.405  12.005  0.0628 -0.1781 -0.0836
  562POPI    C3 8937   6.474   1.536  12.298 -0.0184 -0.0169 -0.0882
  562POPI   PO4 8938   6.554   1.635  11.678  0.0178 -0.0940 -0.0624
  562POPI   GL1 8939   6.535   1.552  11.279 -0.0658  0.3072 -0.3849
  562POPI   GL2 8940   6.259   1.390  11.093  0.0757 -0.1323 -0.0004
  562POPI   C1A 8941   6.762   1.515  10.835  0.0728 -0.1511 -0.0626
  562POPI   D2A 8942   6.748   1.476  10.304  0.0152 -0.1015  0.1562
  562POPI   C3A 8943   6.778   1.491   9.862  0.1025  0.0495  0.2586
  562POPI   C4A 8944   6.587   1.448   9.423  0.0951 -0.5014  0.0149
  562POPI   C1B 8945   6.318   1.493  10.673  0.4339 -0.0734  0.2177
  562POPI   C2B 8946   6.293   1.390  10.146  0.0293  0.1414 -0.0231
  562POPI   C3B 8947   6.222   1.429   9.693  0.1064  0.0870 -0.2983
  562POPI   C4B 8948   6.184   1.382   9.152 -0.0195 -0.2149  0.0039
  563POPI    C1 8949   4.995   8.047  11.664  0.0722 -0.1646  0.0058
  563POPI    C2 8950   4.988   7.652  11.603  0.0014 -0.1658  0.0206
  563POPI    C3 8951   5.251   7.810  11.860  0.0161 -0.2054  0.0301
  563POPI   PO4 8952   5.035   8.117  11.413 -0.2027 -0.2672 -0.0083
  563POPI   GL1 8953   5.133   7.849  11.113  0.0783 -0.0698  0.0012
  563POPI   GL2 8954   5.391   7.994  11.027 -0.0422 -0.1832  0.3413
  563POPI   C1A 8955   5.205   7.675  10.691  0.2674  0.0397  0.4377
  563POPI   D2A 8956   5.305   7.745  10.204 -0.1550 -0.1492 -0.0515
  563POPI   C3A 8957   5.254   7.727   9.750  0.1830  0.0261 -0.2517
  563POPI   C4A 8958   5.328   7.738   9.346 -0.2003 -0.1254  0.3663
  563POPI   C1B 8959   5.385   8.178  10.640  0.2347 -0.1612 -0.2047
  563POPI   C2B 8960   5.445   8.278  10.188  0.0649 -0.3302  0.1812
  563POPI   C3B 8961   5.562   8.212   9.768 -0.0549  0.0994 -0.0197
  563POPI   C4B 8962   5.422   8.347   9.348  0.0175 -0.1784 -0.1910
  564POPI    C1 8963  12.602   9.998  11.436  0.0311  0.1627  0.2019
  564POPI    C2 8964  12.234   9.843  11.448 -0.0121  0.2511  0.0493
  564POPI    C3 8965  12.484   9.788  11.755  0.0168 -0.2246 -0.0519
  564POPI   PO4 8966  12.593  10.254  11.392 -0.3156  0.1862  0.3754
  564POPI   GL1 8967  12.448  10.415  10.960  0.1281 -0.1319  0.2214
  564POPI   GL2 8968  12.287  10.659  11.027 -0.1796 -0.0211  0.0093
  564POPI   C1A 8969  12.600  10.236  10.636  0.0480 -0.2713 -0.0491
  564POPI   D2A 8970  12.554  10.090  10.288 -0.2891 -0.0662  0.0495
  564POPI   C3A 8971  12.534  10.115   9.931  0.0759 -0.0972 -0.0300
  564POPI   C4A 8972  12.610  10.277   9.501  0.1562  0.0009 -0.1281
  564POPI   C1B 8973  12.302  10.685  10.574 -0.2939 -0.1808  0.0998
  564POPI   C2B 8974  12.242  10.521  10.176 -0.1340  0.3698 -0.2481
  564POPI   C3B 8975  12.275  10.677   9.744 -0.0539  0.1769  0.0451
  564POPI   C4B 8976  12.190  10.651   9.347 -0.0110 -0.1176 -0.2187
  565POPI    C1 8977   1.854   1.097  11.574 -0.0757  0.0219  0.0115
  565POPI    C2 8978   2.110   0.927  11.318 -0.1670 -0.0859 -0.0089
  565POPI    C3 8979   2.192   0.930  11.710  0.1533  0.4063 -0.0706
  565POPI   PO4 8980   1.655   1.051  11.489 -0.2274  0.1683 -0.1692
  565POPI   GL1 8981   1.689   0.799  11.073 -0.2705 -0.0747  0.1477
  565POPI   GL2 8982   1.602   0.595  10.923  0.1447  0.0747 -0.3367
  565POPI   C1A 8983   1.840   1.135  10.754 -0.4515  0.1767 -0.1826
  565POPI   D2A 8984   1.724   1.260  10.367 -0.0659 -0.2897 -0.2511
  565POPI   C3A 8985   1.870   1.149   9.915 -0.0839  0.3114 -0.2975
  565POPI   C4A 8986   1.865   1.251   9.497 -0.1559  0.0598 -0.0545
  565POPI   C1B 8987   1.596   0.626  10.487  0.1942 -0.1684 -0.1067
  565POPI   C2B 8988   1.648   0.602  10.064 -0.1055 -0.1391 -0.2348
  565POPI   C3B 8989   1.677   0.795   9.614 -0.0176 -0.2083 -0.1127
  565POPI   C4B 8990   1.769   0.809   9.118 -0.1490  0.1492 -0.0625
  566POPI    C1 8991   9.579  13.461  11.386  0.0603 -0.0746  0.0580
  566POPI    C2 8992   9.454  13.751  11.631 -0.0527 -0.0980  0.0285
  566POPI    C3 8993   9.555  13.394  11.779 -0.3603 -0.1933  0.0171
  566POPI   PO4 8994   9.464  13.445  11.156 -0.0936 -0.1078 -0.1259
  566POPI   GL1 8995   9.302  13.297  10.889 -0.3908 -0.1169 -0.2040
  566POPI   GL2 8996   8.928  13.106  10.906  0.0822  0.1205 -0.0334
  566POPI   C1A 8997   9.479  13.290  10.480  0.0745  0.2154 -0.0080
  566POPI   D2A 8998   9.579  13.344  10.075 -0.0895 -0.0047  0.1919
  566POPI   C3A 8999   9.424  13.420   9.739 -0.0524 -0.0996  0.1080
  566POPI   C4A 9000   9.500  13.378   9.298 -0.1075 -0.0227 -0.1644
  566POPI   C1B 9001   8.975  13.193  10.484  0.1445  0.1559  0.1623
  566POPI   C2B 9002   8.996  13.262  10.081 -0.1957  0.0490  0.2389
  566POPI   C3B 9003   8.907  13.241   9.632  0.2686 -0.0795 -0.0234
  566POPI   C4B 9004   9.043  13.311   9.141  0.0303 -0.0747 -0.2409
  567POPI    C1 9005  17.368  14.869  11.849  0.1087 -0.1823  0.2262
  567POPI    C2 9006  17.205  14.663  12.150 -0.2062 -0.0118  0.1774
  567POPI    C3 9007  17.416  14.995  12.225 -0.1385 -0.0641  0.2201
  567POPI   PO4 9008  17.439  14.620  11.684  0.0846  0.0601 -0.0341
  567POPI   GL1 9009  17.503  14.728  11.340 -0.3054 -0.2353  0.1320
  567POPI   GL2 9010  17.259  14.997  11.301  0.0863 -0.1122 -0.1941
  567POPI   C1A 9011  17.628  14.583  10.896  0.1877 -0.0418 -0.1831
  567POPI   D2A 9012  17.653  14.564  10.454 -0.0909  0.0209  0.0511
  567POPI   C3A 9013  17.716  14.649   9.989  0.0607 -0.2289 -0.1945
  567POPI   C4A 9014  17.622  14.602   9.554  0.1319 -0.1442 -0.1788
  567POPI   C1B 9015  17.356  15.038  10.876  0.1886  0.1252  0.0699
  567POPI   C2B 9016  17.412  15.032  10.401 -0.1179  0.0069 -0.0883
  567POPI   C3B 9017  17.394  15.102   9.889 -0.1645  0.1531  0.0484
  567POPI   C4B 9018  17.478  15.130   9.501  0.2413 -0.3356 -0.0452
  568POPI    C1 9019   6.912   9.292  12.004  0.1427  0.0012 -0.0213
  568POPI    C2 9020   7.099   9.641  12.066 -0.0382  0.0522  0.2550
  568POPI    C3 9021   6.930   9.447  12.373 -0.0745 -0.2027  0.0772
  568POPI   PO4 9022   6.870   9.231  11.765  0.0223  0.2305  0.0259
  568POPI   GL1 9023   6.910   9.008  11.355  0.1578  0.0069 -0.1733
  568POPI   GL2 9024   7.157   9.340  11.285 -0.2351  0.0151  0.0093
  568POPI   C1A 9025   7.109   8.885  10.917  0.1462  0.0815  0.1708
  568POPI   D2A 9026   7.157   8.903  10.449  0.2961 -0.2957 -0.2425
  568POPI   C3A 9027   7.108   8.882  10.018 -0.3759  0.0782 -0.0394
  568POPI   C4A 9028   7.257   8.979   9.667  0.1317  0.1610 -0.3704
  568POPI   C1B 9029   7.058   9.546  10.835 -0.2721 -0.0777  0.5113
  568POPI   C2B 9030   7.044   9.699  10.415 -0.1577  0.1234 -0.1928
  568POPI   C3B 9031   7.164   9.787  10.002 -0.2891 -0.0871 -0.2923
  568POPI   C4B 9032   7.109   9.913   9.641  0.1047 -0.1048 -0.1541
  569POPI    C1 9033   7.620  17.309  11.935 -0.0456  0.1546  0.1397
  569POPI    C2 9034   7.227  17.251  11.979  0.0066 -0.1606  0.2085
  569POPI    C3 9035   7.474  17.195  12.289  0.0948  0.1510  0.1971
  569POPI   PO4 9036   7.568  17.477  11.685 -0.0592  0.1864  0.1820
  569POPI   GL1 9037   7.689  17.507  11.283  0.1103  0.1418 -0.2143
  569POPI   GL2 9038   7.713  17.183  11.170  0.1502  0.0884  0.4069
  569POPI   C1A 9039   7.935  17.756  10.979  0.0663  0.1121 -0.2379
  569POPI   D2A 9040   8.338  17.813  10.796  0.1912  0.1136 -0.2186
  569POPI   C3A 9041   8.320  17.800  10.340  0.1031  0.2271 -0.0551
  569POPI   C4A 9042   8.289  17.739   9.909 -0.0461 -0.0835  0.4316
  569POPI   C1B 9043   7.710  17.174  10.765  0.1495  0.1853  0.2669
  569POPI   C2B 9044   7.642  17.228  10.404  0.0344 -0.0710  0.3297
  569POPI   C3B 9045   7.643  17.182   9.951 -0.1433 -0.1279  0.0993
  569POPI   C4B 9046   7.603  17.172   9.414 -0.1043  0.0411 -0.2956
  570POPI    C1 9047   6.213  12.736  11.599 -0.2260 -0.0642 -0.0128
  570POPI    C2 9048   6.316  12.465  11.875 -0.2810  0.0047  0.0758
  570POPI    C3 9049   5.999  12.702  11.935 -0.0575  0.2935  0.1349
  570POPI   PO4 9050   6.243  12.559  11.351 -0.1516 -0.0630 -0.1259
  570POPI   GL1 9051   6.168  12.236  10.972 -0.1308  0.5161 -0.0589
  570POPI   GL2 9052   6.068  11.917  10.924 -0.0349  0.1939 -0.0052
  570POPI   C1A 9053   6.249  12.448  10.635  0.0587  0.2398 -0.1999
  570POPI   D2A 9054   6.257  12.479  10.239  0.2880 -0.4392  0.1891
  570POPI   C3A 9055   6.315  12.349   9.816 -0.2060 -0.0162  0.1994
  570POPI   C4A 9056   6.150  12.382   9.428  0.0029 -0.0642 -0.0670
  570POPI   C1B 9057   6.002  11.976  10.547 -0.2182 -0.2111 -0.0290
  570POPI   C2B 9058   6.153  11.986  10.134  0.1051 -0.0441  0.0141
  570POPI   C3B 9059   6.000  11.886   9.809 -0.0048 -0.1472 -0.0040
  570POPI   C4B 9060   5.944  11.894   9.440  0.0794 -0.2764  0.1048
  571POPI    C1 9061  12.297   8.139  11.390 -0.0798  0.1992 -0.0272
  571POPI    C2 9062  12.279   7.892  11.704 -0.2260  0.2513  0.0063
  571POPI    C3 9063  12.585   8.147  11.666  0.0199 -0.0565 -0.1210
  571POPI   PO4 9064  12.354   8.031  11.216  0.0808  0.0234  0.0479
  571POPI   GL1 9065  12.197   8.006  10.846  0.2727  0.0228 -0.3499
  571POPI   GL2 9066  11.939   8.118  10.715 -0.0660  0.2915 -0.1754
  571POPI   C1A 9067  12.251   7.759  10.435 -0.0251  0.1070 -0.3010
  571POPI   D2A 9068  12.110   7.815  10.105 -0.0036  0.3163  0.1368
  571POPI   C3A 9069  12.111   7.744   9.705  0.0073 -0.1267 -0.0196
  571POPI   C4A 9070  12.073   7.829   9.286 -0.1081 -0.1155  0.0881
  571POPI   C1B 9071  11.828   8.209  10.273 -0.2462 -0.1125 -0.0945
  571POPI   C2B 9072  11.726   8.212   9.849  0.0185 -0.0241  0.0270
  571POPI   C3B 9073  11.727   8.206   9.529 -0.0997 -0.0686 -0.0406
  571POPI   C4B 9074  11.756   8.214   9.088 -0.0900 -0.1613  0.1079
  572POPI    C1 9075   0.063  12.143  12.046 -0.1220  0.1366  0.2223
  572POPI    C2 9076   0.182  11.761  12.040 -0.1946  0.1158 -0.1787
  572POPI    C3 9077  -0.201  11.851  12.113 -0.1432  0.1248  0.0906
  572POPI   PO4 9078   0.159  12.251  11.821 -0.1688  0.0298  0.3846
  572POPI   GL1 9079   0.252  12.404  11.365  0.1776  0.3893  0.0182
  572POPI   GL2 9080  -0.043  12.398  11.381  0.3716 -0.2055 -0.1773
  572POPI   C1A 9081   0.363  12.437  10.971  0.0839 -0.1621  0.1349
  572POPI   D2A 9082   0.307  12.388  10.592 -0.1965  0.2264 -0.0285
  572POPI   C3A 9083   0.406  12.469  10.166  0.1975  0.0329  0.0870
  572POPI   C4A 9084   0.370  12.473   9.683  0.1210  0.1289  0.1028
  572POPI   C1B 9085  -0.125  12.412  10.956  0.4043  0.0020  0.0065
  572POPI   C2B 9086  -0.204  12.308  10.643  0.0014 -0.1573  0.1359
  572POPI   C3B 9087  -0.068  12.382  10.224  0.2284 -0.2321 -0.2448
  572POPI   C4B 9088  -0.136  12.438   9.745 -0.3106  0.4210  0.0335
  573POPI    C1 9089   6.328   7.420  11.790  0.1146  0.0099 -0.1340
  573POPI    C2 9090   6.577   7.131  11.908 -0.1527 -0.2079 -0.0923
  573POPI    C3 9091   6.447   7.402  12.171  0.1622  0.0032 -0.1492
  573POPI   PO4 9092   6.444   7.527  11.636  0.2441 -0.1189  0.1948
  573POPI   GL1 9093   6.601   7.476  11.149 -0.0865 -0.2209  0.2153
  573POPI   GL2 9094   6.363   7.652  11.137 -0.0015  0.0897  0.2846
  573POPI   C1A 9095   6.540   7.476  10.631 -0.2380  0.2007 -0.1176
  573POPI   D2A 9096   6.562   7.490  10.156 -0.3548  0.0038  0.1196
  573POPI   C3A 9097   6.670   7.534   9.710  0.0332  0.0206 -0.1951
  573POPI   C4A 9098   6.891   7.465   9.345 -0.2341  0.0460  0.0506
  573POPI   C1B 9099   6.262   7.829  10.754  0.1553  0.0455 -0.0584
  573POPI   C2B 9100   6.216   7.848  10.315 -0.0020  0.0751  0.0999
  573POPI   C3B 9101   6.372   7.981   9.870 -0.1271  0.0252  0.0514
  573POPI   C4B 9102   6.410   7.940   9.378  0.0422 -0.2165 -0.1677
  574DPPI    C1 9103   8.049   1.387  11.637  0.0996  0.3990 -0.0968
  574DPPI    C2 9104   7.669   1.377  11.511  0.0788 -0.0289 -0.0151
  574DPPI    C3 9105   7.754   1.504  11.881 -0.0215 -0.2315  0.0799
  574DPPI   PO4 9106   8.147   1.338  11.385  0.0943 -0.1302 -0.1591
  574DPPI   GL1 9107   7.985   1.252  11.025 -0.1831 -0.1150 -0.0109
  574DPPI   GL2 9108   8.171   0.932  10.904 -0.0243  0.2279 -0.0319
  574DPPI   C1A 9109   8.085   1.230  10.517  0.1933 -0.1861 -0.3218
  574DPPI   C2A 9110   8.045   1.176  10.045 -0.2279  0.0838 -0.1058
  574DPPI   C3A 9111   8.203   1.172   9.655 -0.0341 -0.2731 -0.0592
  574DPPI   C4A 9112   8.156   0.914   9.264  0.0549 -0.2335 -0.1715
  574DPPI   C1B 9113   7.970   0.751  10.624 -0.1148  0.0403  0.1652
  574DPPI   C2B 9114   7.918   0.689  10.247 -0.1229 -0.1789 -0.1010
  574DPPI   C3B 9115   7.975   0.686   9.809  0.2793  0.3292  0.1077
  574DPPI   C4B 9116   8.244   0.497   9.431  0.2577  0.2001 -0.0253
  575DPPI    C1 9117  17.296   8.569  11.670 -0.0461 -0.0296 -0.0911
  575DPPI    C2 9118  17.649   8.582  11.482  0.0251  0.3471  0.0584
  575DPPI    C3 9119  17.618   8.401  11.838  0.0119  0.1106 -0.0607
  575DPPI   PO4 9120  17.145   8.491  11.523 -0.2976 -0.1182 -0.3400
  575DPPI   GL1 9121  16.960   8.455  11.111 -0.3388 -0.0814 -0.1099
  575DPPI   GL2 9122  17.273   8.380  11.041 -0.0083 -0.0387  0.1463
  575DPPI   C1A 9123  16.784   8.567  10.678 -0.1792  0.0384 -0.2765
  575DPPI   C2A 9124  16.792   8.577  10.175 -0.2298  0.2257  0.2665
  575DPPI   C3A 9125  16.704   8.595   9.686  0.2081  0.0128 -0.1103
  575DPPI   C4A 9126  16.698   8.519   9.312  0.2406  0.3306 -0.0775
  575DPPI   C1B 9127  17.204   8.210  10.735 -0.2571 -0.2389  0.2270
  575DPPI   C2B 9128  17.053   8.171  10.298  0.1451 -0.0586 -0.0327
  575DPPI   C3B 9129  17.098   8.233   9.853 -0.0568 -0.1396  0.0081
  575DPPI   C4B 9130  17.017   8.151   9.385 -0.0731  0.1710 -0.1887
  576DPPI    C1 9131   8.515   1.616  11.670  0.0663 -0.2234  0.0302
  576DPPI    C2 9132   8.284   1.684  11.989  0.4596  0.1230  0.2510
  576DPPI    C3 9133   8.466   1.330  11.945 -0.2373 -0.2202 -0.0172
  576DPPI   PO4 9134   8.437   1.697  11.469  0.1968 -0.2928 -0.1556
  576DPPI   GL1 9135   8.443   1.682  11.070 -0.1503 -0.0946 -0.1812
  576DPPI   GL2 9136   8.247   1.755  10.933 -0.0636  0.0145 -0.3414
  576DPPI   C1A 9137   8.559   1.381  10.675  0.1181  0.1514  0.2985
  576DPPI   C2A 9138   8.594   1.273  10.207 -0.1184  0.2283 -0.1880
  576DPPI   C3A 9139   8.675   1.345   9.769  0.0618  0.2300 -0.1014
  576DPPI   C4A 9140   8.630   1.157   9.398 -0.1009  0.0609  0.0634
  576DPPI   C1B 9141   8.293   1.773  10.485  0.0288 -0.0672  0.0893
  576DPPI   C2B 9142   8.297   1.654  10.095 -0.1080 -0.0407  0.0870
  576DPPI   C3B 9143   8.342   1.778   9.701  0.1252  0.0104  0.3367
  576DPPI   C4B 9144   8.360   1.555   9.283  0.0274 -0.0913  0.2199
  577DPPI    C1 9145  12.861   6.662  11.547  0.1571 -0.4055  0.3139
  577DPPI    C2 9146  12.523   6.650  11.760 -0.1064  0.3842 -0.0224
  577DPPI    C3 9147  12.849   6.827  11.911 -0.0199  0.1552  0.0643
  577DPPI   PO4 9148  12.774   6.690  11.305 -0.1347 -0.1144  0.1292
  577DPPI   GL1 9149  12.837   6.913  11.017  0.0645 -0.0538  0.0260
  577DPPI   GL2 9150  12.825   7.257  10.926 -0.3909  0.0798 -0.0580
  577DPPI   C1A 9151  12.798   6.953  10.538 -0.0401 -0.0798  0.0262
  577DPPI   C2A 9152  12.708   7.020  10.077  0.3453  0.1112  0.1162
  577DPPI   C3A 9153  12.766   7.026   9.548 -0.0468  0.3067 -0.1866
  577DPPI   C4A 9154  12.912   6.884   9.223 -0.0156 -0.0355  0.1415
  577DPPI   C1B 9155  12.960   7.489  10.604 -0.2830 -0.2029  0.0805
  577DPPI   C2B 9156  13.016   7.517  10.232 -0.2690  0.0302 -0.2323
  577DPPI   C3B 9157  12.892   7.439   9.780 -0.0753  0.0732 -0.1148
  577DPPI   C4B 9158  12.958   7.593   9.386 -0.3002  0.0363  0.1842
  578DPPI    C1 9159   6.816   5.321  11.725 -0.0166  0.2041  0.0767
  578DPPI    C2 9160   6.799   5.493  12.086 -0.0728  0.1732  0.0887
  578DPPI    C3 9161   6.475   5.486  11.851 -0.0302  0.2130  0.0286
  578DPPI   PO4 9162   7.064   5.320  11.553  0.2309  0.0901 -0.1894
  578DPPI   GL1 9163   7.059   5.325  11.153  0.2217  0.1161  0.2270
  578DPPI   GL2 9164   7.035   5.639  11.072 -0.3711  0.1748  0.0205
  578DPPI   C1A 9165   7.085   5.271  10.739  0.1675 -0.0820 -0.1537
  578DPPI   C2A 9166   7.224   5.200  10.415  0.2033  0.0262  0.1036
  578DPPI   C3A 9167   7.325   5.225  10.044 -0.1092 -0.0109  0.0872
  578DPPI   C4A 9168   7.373   5.214   9.598 -0.1053  0.3314  0.0990
  578DPPI   C1B 9169   6.964   5.765  10.662  0.3010 -0.1299  0.0826
  578DPPI   C2B 9170   6.906   5.669  10.234 -0.0257  0.4478 -0.0713
  578DPPI   C3B 9171   6.953   5.567   9.799  0.1730  0.1939 -0.0578
  578DPPI   C4B 9172   7.002   5.615   9.282 -0.1304  0.0649  0.1699
  579DPPI    C1 9173   4.702   4.283  11.551 -0.0148 -0.0402  0.2086
  579DPPI    C2 9174   4.580   4.599  11.762  0.0223  0.2242 -0.1555
  579DPPI    C3 9175   4.945   4.447  11.823 -0.0959  0.0758  0.2115
  579DPPI   PO4 9176   4.678   4.267  11.305  0.2196 -0.3040 -0.2747
  579DPPI   GL1 9177   4.802   4.128  11.016 -0.0146  0.1215 -0.0056
  579DPPI   GL2 9178   4.699   3.882  10.863 -0.0784 -0.2215  0.2102
  579DPPI   C1A 9179   4.962   4.450  10.678  0.1888 -0.1674 -0.0124
  579DPPI   C2A 9180   5.064   4.541  10.224  0.0682  0.0975 -0.3180
  579DPPI   C3A 9181   4.999   4.436   9.793 -0.2216 -0.1539 -0.1470
  579DPPI   C4A 9182   4.980   4.373   9.314 -0.0259 -0.2515 -0.0337
  579DPPI   C1B 9183   4.750   3.983  10.429 -0.0254  0.1780 -0.3290
  579DPPI   C2B 9184   4.784   3.958  10.006 -0.0694  0.1200 -0.1740
  579DPPI   C3B 9185   4.881   3.969   9.586 -0.0736 -0.3395 -0.2185
  579DPPI   C4B 9186   4.829   3.969   9.120  0.2427  0.0457 -0.0056
  580DPPI    C1 9187   9.702   6.645  11.800 -0.0955 -0.0192 -0.0871
  580DPPI    C2 9188   9.410   6.597  12.071  0.0884  0.0359  0.1239
  580DPPI    C3 9189   9.749   6.386  12.102  0.1251  0.0683 -0.0446
  580DPPI   PO4 9190   9.581   6.657  11.578 -0.0531 -0.2034  0.2738
  580DPPI   GL1 9191   9.565   6.528  11.188 -0.1337  0.1054 -0.0462
  580DPPI   GL2 9192   9.421   6.291  11.213 -0.1624  0.3304 -0.0927
  580DPPI   C1A 9193   9.725   6.553  10.791 -0.0488 -0.0998  0.2696
  580DPPI   C2A 9194   9.733   6.539  10.341 -0.4297 -0.0255 -0.1060
  580DPPI   C3A 9195   9.655   6.519   9.874  0.2823 -0.2383 -0.0819
  580DPPI   C4A 9196   9.633   6.575   9.438  0.0155 -0.0196  0.0468
  580DPPI   C1B 9197   9.517   6.128  10.816 -0.3749 -0.0113 -0.2155
  580DPPI   C2B 9198   9.490   5.992  10.365  0.2710 -0.0467  0.0765
  580DPPI   C3B 9199   9.462   6.058   9.959  0.4039 -0.0282  0.2584
  580DPPI   C4B 9200   9.388   6.145   9.480  0.1201  0.2585 -0.3157
  581DPPI    C1 9201   5.178   6.311  11.741  0.3016 -0.0261 -0.2534
  581DPPI    C2 9202   4.847   6.174  11.918  0.2028  0.0826 -0.3520
  581DPPI    C3 9203   5.205   6.035  12.029  0.1429  0.1481 -0.0679
  581DPPI   PO4 9204   5.181   6.273  11.462  0.0992  0.1550 -0.2025
  581DPPI   GL1 9205   4.969   6.256  11.078 -0.2228 -0.0090 -0.1433
  581DPPI   GL2 9206   4.653   6.155  11.026  0.0050  0.1830 -0.0703
  581DPPI   C1A 9207   5.114   6.433  10.733 -0.0500  0.0459  0.0373
  581DPPI   C2A 9208   5.154   6.398  10.359 -0.0997 -0.3219  0.0739
  581DPPI   C3A 9209   5.140   6.433   9.939 -0.1619  0.0526 -0.0644
  581DPPI   C4A 9210   5.306   6.330   9.502  0.1916 -0.3312  0.1566
  581DPPI   C1B 9211   4.654   6.225  10.636  0.0116  0.0704  0.1358
  581DPPI   C2B 9212   4.655   6.289  10.165  0.1130  0.0667  0.0390
  581DPPI   C3B 9213   4.761   6.244   9.678 -0.2619 -0.1323 -0.0983
  581DPPI   C4B 9214   4.731   6.240   9.273 -0.1532 -0.2883  0.0051
  582DPPI    C1 9215   1.107   4.085  11.725  0.0766 -0.2348  0.1770
  582DPPI    C2 9216   1.416   4.003  11.966  0.0541 -0.1088  0.2498
  582DPPI    C3 9217   1.181   4.317  12.042  0.0955 -0.0191  0.0171
  582DPPI   PO4 9218   1.220   3.995  11.473 -0.1413  0.2667  0.0433
  582DPPI   GL1 9219   1.407   4.084  11.189 -0.0058  0.1836 -0.3314
  582DPPI   GL2 9220   1.742   3.939  11.132  0.1231  0.0957 -0.1175
  582DPPI   C1A 9221   1.416   3.831  10.808 -0.1386 -0.0450 -0.0922
  582DPPI   C2A 9222   1.386   3.894  10.395  0.0908  0.2958  0.0285
  582DPPI   C3A 9223   1.392   3.890   9.956 -0.0018 -0.0550 -0.1179
  582DPPI   C4A 9224   1.357   3.902   9.514  0.1806  0.0256 -0.1440
  582DPPI   C1B 9225   1.877   3.892  10.720  0.0422 -0.2052 -0.2833
  582DPPI   C2B 9226   1.847   3.927  10.311 -0.1197  0.1204  0.0458
  582DPPI   C3B 9227   1.915   3.929   9.914 -0.1348  0.1302  0.0372
  582DPPI   C4B 9228   1.889   3.929   9.480 -0.2120 -0.0636  0.2304
  583DPPI    C1 9229   1.286  15.558  11.879  0.2687 -0.0871 -0.1982
  583DPPI    C2 9230   1.086  15.894  11.964  0.0276 -0.2646 -0.0528
  583DPPI    C3 9231   1.466  15.854  12.080 -0.0318 -0.1562  0.1859
  583DPPI   PO4 9232   1.232  15.434  11.634 -0.1953 -0.0625 -0.1827
  583DPPI   GL1 9233   1.218  15.560  11.217  0.0877  0.1227  0.1105
  583DPPI   GL2 9234   1.258  15.212  11.154 -0.1567 -0.0053  0.1238
  583DPPI   C1A 9235   1.259  15.762  10.850  0.1304  0.1855 -0.2978
  583DPPI   C2A 9236   1.195  15.783  10.441  0.1054  0.0361 -0.0327
  583DPPI   C3A 9237   1.161  15.663  10.010 -0.0426 -0.1044  0.0072
  583DPPI   C4A 9238   1.295  15.698   9.553 -0.2911  0.1413 -0.0036
  583DPPI   C1B 9239   1.374  15.304  10.794  0.0022  0.0641  0.1676
  583DPPI   C2B 9240   1.413  15.280  10.388 -0.2777 -0.3568  0.2167
  583DPPI   C3B 9241   1.460  15.284   9.890  0.0563  0.1791 -0.1133
  583DPPI   C4B 9242   1.653  15.340   9.367  0.3761  0.1449 -0.0420
  584DPPI    C1 9243   2.943   2.306  11.739 -0.1862 -0.0479 -0.0137
  584DPPI    C2 9244   3.195   2.077  11.950 -0.0783 -0.1665 -0.2676
  584DPPI    C3 9245   2.951   2.332  12.139  0.1080 -0.1759 -0.0086
  584DPPI   PO4 9246   2.944   2.184  11.466  0.1145 -0.1085 -0.4237
  584DPPI   GL1 9247   2.884   2.358  11.068 -0.2307  0.2854 -0.1570
  584DPPI   GL2 9248   3.011   2.646  11.031 -0.0669 -0.0922  0.2433
  584DPPI   C1A 9249   2.622   2.333  10.752 -0.1278  0.1089 -0.1859
  584DPPI   C2A 9250   2.515   2.319  10.344 -0.0426  0.0885 -0.2494
  584DPPI   C3A 9251   2.685   2.306   9.902 -0.0430 -0.2257  0.1282
  584DPPI   C4A 9252   2.583   2.382   9.467  0.1010  0.0154  0.4425
  584DPPI   C1B 9253   2.856   2.736  10.569  0.1413  0.2993 -0.0764
  584DPPI   C2B 9254   2.912   2.751  10.119  0.1604  0.0433 -0.1772
  584DPPI   C3B 9255   2.933   2.787   9.645  0.0333 -0.1510  0.0686
  584DPPI   C4B 9256   2.691   2.777   9.202 -0.1605  0.2128  0.0943
  585DPPI    C1 9257  13.976   7.859  11.913 -0.2305 -0.1268 -0.2747
  585DPPI    C2 9258  13.742   7.588  12.092 -0.0350 -0.0524  0.1040
  585DPPI    C3 9259  14.089   7.695  12.260  0.0232  0.2271 -0.1841
  585DPPI   PO4 9260  13.967   7.838  11.661  0.1085 -0.0522  0.1626
  585DPPI   GL1 9261  14.203   7.790  11.212 -0.3725  0.3312 -0.2326
  585DPPI   GL2 9262  14.560   7.892  11.164 -0.5187 -0.2350 -0.0080
  585DPPI   C1A 9263  14.023   7.681  10.740 -0.1463 -0.0320  0.1852
  585DPPI   C2A 9264  13.987   7.569  10.344  0.0519  0.0735 -0.3328
  585DPPI   C3A 9265  13.960   7.724   9.929 -0.2409  0.2714  0.0976
  585DPPI   C4A 9266  14.067   7.654   9.582 -0.0779 -0.2168 -0.0767
  585DPPI   C1B 9267  14.551   7.691  10.784  0.2328  0.3892  0.0607
  585DPPI   C2B 9268  14.463   7.681  10.338 -0.2186 -0.1716 -0.3461
  585DPPI   C3B 9269  14.517   7.747   9.918 -0.0839  0.0172  0.0438
  585DPPI   C4B 9270  14.518   7.663   9.419 -0.3129 -0.1278  0.2802
  586DPPI    C1 9271  10.408   4.465  11.617  0.0592  0.2549 -0.1320
  586DPPI    C2 9272  10.137   4.654  11.844  0.0605 -0.0495  0.1293
  586DPPI    C3 9273  10.497   4.818  11.783 -0.0097  0.1266  0.1848
  586DPPI   PO4 9274  10.396   4.442  11.357 -0.4048 -0.3023 -0.0128
  586DPPI   GL1 9275  10.368   4.702  10.924 -0.0036  0.1259 -0.3370
  586DPPI   GL2 9276  10.687   4.575  10.952 -0.2358 -0.1719 -0.0673
  586DPPI   C1A 9277  10.509   4.752  10.461 -0.0926  0.0753 -0.4227
  586DPPI   C2A 9278  10.533   4.766  10.043 -0.0824  0.1239 -0.2296
  586DPPI   C3A 9279  10.445   4.883   9.660 -0.0130 -0.0129  0.0228
  586DPPI   C4A 9280  10.495   4.864   9.210 -0.0851 -0.0322  0.1153
  586DPPI   C1B 9281  10.817   4.403  10.601  0.1468 -0.0561  0.0983
  586DPPI   C2B 9282  10.863   4.388  10.160 -0.1307 -0.1175  0.0729
  586DPPI   C3B 9283  10.840   4.412   9.704 -0.0528  0.0005 -0.2290
  586DPPI   C4B 9284  10.760   4.433   9.179  0.1686 -0.0932 -0.1153
  587DPPI    C1 9285   3.091   1.516  12.006  0.0202 -0.1216  0.0207
  587DPPI    C2 9286   3.480   1.605  12.033  0.0349 -0.1336 -0.1413
  587DPPI    C3 9287   3.306   1.380  12.314  0.0206  0.3151  0.2201
  587DPPI   PO4 9288   3.101   1.389  11.738 -0.0541 -0.1585  0.0229
  587DPPI   GL1 9289   3.175   1.367  11.262 -0.1017 -0.1720  0.0218
  587DPPI   GL2 9290   2.929   1.264  11.000  0.2112 -0.2452  0.0139
  587DPPI   C1A 9291   3.477   1.490  10.950  0.0133 -0.3523 -0.2492
  587DPPI   C2A 9292   3.318   1.435  10.516 -0.3044 -0.0516 -0.1387
  587DPPI   C3A 9293   3.375   1.583  10.007  0.0963  0.1994  0.0757
  587DPPI   C4A 9294   3.370   1.529   9.688 -0.0092 -0.3192  0.2506
  587DPPI   C1B 9295   2.801   1.411  10.620  0.3034  0.2389  0.3835
  587DPPI   C2B 9296   2.750   1.413  10.194  0.1386 -0.0231 -0.1364
  587DPPI   C3B 9297   2.889   1.432   9.790 -0.1779  0.0050  0.1851
  587DPPI   C4B 9298   2.929   1.510   9.418  0.1554 -0.2803 -0.0942
  588DPPI    C1 9299  10.168  14.386  11.701  0.0898 -0.0592 -0.0492
  588DPPI    C2 9300   9.961  14.634  11.937  0.1398 -0.0676  0.0035
  588DPPI    C3 9301  10.147  14.316  12.094 -0.0465 -0.2215 -0.0840
  588DPPI   PO4 9302  10.036  14.364  11.494  0.1621 -0.0512 -0.0420
  588DPPI   GL1 9303   9.779  14.579  11.202  0.0633  0.0482  0.3358
  588DPPI   GL2 9304   9.476  14.627  11.136  0.0810  0.2661  0.1858
  588DPPI   C1A 9305   9.821  14.365  10.749 -0.0098 -0.0996  0.0944
  588DPPI   C2A 9306   9.897  14.249  10.298  0.0701 -0.1416 -0.0896
  588DPPI   C3A 9307   9.893  14.298   9.834 -0.1567 -0.0985  0.0481
  588DPPI   C4A 9308   9.878  14.311   9.451 -0.2274 -0.0447 -0.1167
  588DPPI   C1B 9309   9.517  14.750  10.656  0.1825  0.2504 -0.1123
  588DPPI   C2B 9310   9.616  14.805  10.186 -0.0484  0.6074 -0.0911
  588DPPI   C3B 9311   9.552  14.658   9.780 -0.0095 -0.4229 -0.2115
  588DPPI   C4B 9312   9.499  14.758   9.385 -0.0338  0.0620  0.0522
  589DPPI    C1 9313  13.640   3.376  11.620 -0.1026 -0.1651  0.0770
  589DPPI    C2 9314  13.924   3.483  11.881 -0.0047  0.3981 -0.2437
  589DPPI    C3 9315  13.549   3.426  12.006  0.1495  0.1123  0.1050
  589DPPI   PO4 9316  13.669   3.612  11.406  0.1145  0.3255  0.0241
  589DPPI   GL1 9317  13.817   3.566  10.966  0.4261  0.0140 -0.1421
  589DPPI   GL2 9318  13.893   3.843  11.017 -0.0045 -0.2098  0.1257
  589DPPI   C1A 9319  13.856   3.414  10.590  0.0673  0.1401  0.0256
  589DPPI   C2A 9320  13.879   3.486  10.133  0.4195 -0.0520  0.0927
  589DPPI   C3A 9321  13.769   3.511   9.724 -0.3062 -0.1566 -0.0202
  589DPPI   C4A 9322  13.753   3.506   9.216  0.1130  0.3402 -0.1621
  589DPPI   C1B 9323  14.057   3.969  10.698  0.2432  0.0394 -0.1163
  589DPPI   C2B 9324  14.074   4.010  10.196 -0.2663 -0.4177 -0.0607
  589DPPI   C3B 9325  13.971   3.976   9.744  0.0114  0.0154  0.0643
  589DPPI   C4B 9326  14.018   3.971   9.265 -0.0476  0.0305 -0.0195
  590DPPI    C1 9327   9.815   8.750  11.359  0.0729 -0.0435  0.1170
  590DPPI    C2 9328   9.912   8.474  11.632 -0.0517 -0.0625  0.1426
  590DPPI    C3 9329   9.707   8.799  11.741  0.1246  0.0578  0.1188
  590DPPI   PO4 9330   9.763   8.579  11.126 -0.1947 -0.1218  0.0336
  590DPPI   GL1 9331  10.020   8.347  10.818  0.0403 -0.0340  0.2177
  590DPPI   GL2 9332   9.930   8.081  10.846 -0.0256 -0.4117 -0.0444
  590DPPI   C1A 9333   9.939   8.310  10.402  0.1118 -0.1866  0.1982
  590DPPI   C2A 9334   9.867   8.351  10.044 -0.2200 -0.2159  0.0881
  590DPPI   C3A 9335   9.936   8.459   9.644 -0.1914 -0.0627  0.1800
  590DPPI   C4A 9336   9.967   8.446   9.240  0.1679  0.0161 -0.1007
  590DPPI   C1B 9337   9.772   7.856  10.581  0.2034 -0.0082  0.1368
  590DPPI   C2B 9338   9.820   7.889  10.180  0.0401 -0.0583  0.0493
  590DPPI   C3B 9339   9.810   7.909   9.742  0.1944 -0.4150 -0.0081
  590DPPI   C4B 9340   9.646   7.993   9.348  0.0283 -0.3343  0.3812
  591DPPI    C1 9341   7.729   0.496  11.686 -0.1614 -0.0708  0.1173
  591DPPI    C2 9342   8.083   0.413  11.518 -0.1521  0.0919  0.0554
  591DPPI    C3 9343   7.998   0.274  11.884  0.0596  0.2285  0.1591
  591DPPI   PO4 9344   7.578   0.552  11.493 -0.0218 -0.2616 -0.0276
  591DPPI   GL1 9345   7.208   0.431  11.131 -0.2601  0.0839  0.0354
  591DPPI   GL2 9346   6.989   0.610  11.086  0.1380  0.1380 -0.2905
  591DPPI   C1A 9347   7.457   0.230  10.887 -0.1896  0.0926 -0.1197
  591DPPI   C2A 9348   7.817   0.234  10.518 -0.2089  0.0513  0.0218
  591DPPI   C3A 9349   7.805   0.244  10.051 -0.2275  0.1045  0.2359
  591DPPI   C4A 9350   7.726   0.241   9.661  0.0027  0.2446  0.0947
  591DPPI   C1B 9351   6.972   0.729  10.643 -0.2338  0.4424  0.2176
  591DPPI   C2B 9352   6.949   0.591  10.165 -0.0145 -0.3128 -0.0072
  591DPPI   C3B 9353   6.897   0.635   9.734 -0.0178 -0.0201  0.1906
  591DPPI   C4B 9354   6.793   0.745   9.381  0.0958  0.1152  0.1310
  592DPPI    C1 9355   2.567   9.444  11.600 -0.0774  0.1039 -0.0443
  592DPPI    C2 9356   2.723   9.811  11.626  0.2002 -0.0230  0.1356
  592DPPI    C3 9357   2.660   9.596  11.958  0.3559 -0.2664  0.0102
  592DPPI   PO4 9358   2.656   9.370  11.335  0.0587  0.2870  0.0037
  592DPPI   GL1 9359   2.684   9.644  11.042  0.2141  0.0594  0.3455
  592DPPI   GL2 9360   2.966   9.717  11.186  0.1216 -0.4308 -0.0748
  592DPPI   C1A 9361   2.632   9.633  10.599 -0.0538  0.0123  0.1950
  592DPPI   C2A 9362   2.628   9.615  10.143  0.1280 -0.1517  0.6399
  592DPPI   C3A 9363   2.585   9.682   9.728 -0.4373  0.2524  0.0429
  592DPPI   C4A 9364   2.372   9.923   9.307  0.0441  0.2266  0.0847
  592DPPI   C1B 9365   3.120   9.637  10.720  0.0280  0.0980 -0.0287
  592DPPI   C2B 9366   3.143   9.608  10.354 -0.2963 -0.0511  0.2903
  592DPPI   C3B 9367   3.070   9.730   9.913 -0.1150 -0.1176  0.1060
  592DPPI   C4B 9368   3.259   9.847   9.462 -0.0253  0.1035 -0.1216
  593DPPI    C1 9369   7.523   7.598  12.200 -0.1672 -0.0162  0.0881
  593DPPI    C2 9370   7.544   7.217  12.079 -0.1100 -0.0006  0.0480
  593DPPI    C3 9371   7.696   7.323  12.434  0.0230  0.0154 -0.0135
  593DPPI   PO4 9372   7.542   7.705  11.858 -0.0034  0.2615 -0.1898
  593DPPI   GL1 9373   7.477   7.740  11.424 -0.0073  0.1995  0.0079
  593DPPI   GL2 9374   7.327   8.021  11.326  0.1649 -0.1074 -0.1081
  593DPPI   C1A 9375   7.632   7.664  11.072 -0.0792  0.0783 -0.1134
  593DPPI   C2A 9376   7.630   7.624  10.593  0.1633  0.0015  0.2219
  593DPPI   C3A 9377   7.646   7.626  10.099 -0.0528  0.3388 -0.0880
  593DPPI   C4A 9378   7.720   7.711   9.664 -0.4259 -0.1515  0.0288
  593DPPI   C1B 9379   7.279   8.031  10.926 -0.0343 -0.0632  0.1778
  593DPPI   C2B 9380   7.283   8.067  10.532 -0.0970  0.0261  0.3447
  593DPPI   C3B 9381   7.364   8.064  10.104  0.1280 -0.1319  0.0957
  593DPPI   C4B 9382   7.371   8.112   9.582  0.2470 -0.0916  0.0964
  594PYPI    C1 9383   8.807  16.313  12.001  0.0026 -0.0790  0.0585
  594PYPI    C2 9384   8.597  16.605  12.178 -0.0432 -0.0556 -0.0337
  594PYPI    C3 9385   8.997  16.617  12.179 -0.0433 -0.0490  0.0566
  594PYPI   PO4 9386   8.816  16.273  11.773  0.0335  0.0882  0.2532
  594PYPI   GL1 9387   8.888  16.326  11.389 -0.0883 -0.0457  0.2215
  594PYPI   GL2 9388   9.053  16.158  11.250 -0.1124 -0.5021 -0.1439
  594PYPI   C1A 9389   8.838  16.494  11.004  0.0887  0.3453 -0.0825
  594PYPI   C2A 9390   8.853  16.551  10.576 -0.0174  0.1088  0.0720
  594PYPI   D3A 9391   8.805  16.549  10.187 -0.1992  0.1692  0.4005
  594PYPI   C4A 9392   8.725  16.369   9.817  0.0082  0.0495 -0.0200
  594PYPI   C1B 9393   9.154  16.049  10.819  0.0575 -0.1618 -0.0374
  594PYPI   C2B 9394   9.136  16.143  10.435 -0.1344  0.0203 -0.0763
  594PYPI   C3B 9395   9.092  16.067  10.079 -0.1479  0.0493  0.0877
  594PYPI   C4B 9396   9.054  16.013   9.587 -0.2333 -0.1705 -0.1223
  595PYPI    C1 9397   5.061   4.849  11.554  0.0549  0.0229  0.0625
  595PYPI    C2 9398   4.904   4.927  11.914  0.0320 -0.0230  0.0626
  595PYPI    C3 9399   5.289   5.010  11.841  0.0508 -0.0633  0.1145
  595PYPI   PO4 9400   4.939   4.714  11.366 -0.1742 -0.0151 -0.0697
  595PYPI   GL1 9401   4.774   4.762  10.979  0.0632 -0.0933  0.2201
  595PYPI   GL2 9402   4.781   5.075  10.914 -0.2212 -0.1124  0.0137
  595PYPI   C1A 9403   4.684   4.833  10.511  0.1630  0.1773  0.1227
  595PYPI   C2A 9404   4.724   4.943  10.115 -0.1941  0.2242  0.0140
  595PYPI   D3A 9405   4.616   4.719   9.689  0.2454  0.0247  0.3827
  595PYPI   C4A 9406   4.692   4.821   9.278  0.2329  0.1461  0.0985
  595PYPI   C1B 9407   4.848   5.331  10.664  0.2898 -0.0426  0.2849
  595PYPI   C2B 9408   4.851   5.395  10.242  0.2527  0.1317 -0.0326
  595PYPI   C3B 9409   4.905   5.373   9.825  0.2989 -0.0814 -0.1601
  595PYPI   C4B 9410   4.828   5.188   9.535  0.0092 -0.1084 -0.1195
  596PYPI    C1 9411   4.257   8.584  11.792 -0.0077 -0.2054  0.1265
  596PYPI    C2 9412   4.042   8.376  11.528  0.0088  0.2086 -0.2243
  596PYPI    C3 9413   3.973   8.333  11.920 -0.3695 -0.0318 -0.3111
  596PYPI   PO4 9414   4.377   8.773  11.562 -0.0517 -0.5370  0.2152
  596PYPI   GL1 9415   4.081   8.790  11.188  0.2022  0.0133 -0.1062
  596PYPI   GL2 9416   4.000   8.442  11.052 -0.3789 -0.0370 -0.0383
  596PYPI   C1A 9417   4.284   8.964  10.751 -0.1219 -0.2342  0.0638
  596PYPI   C2A 9418   4.338   8.986  10.340 -0.2173 -0.0598  0.2344
  596PYPI   D3A 9419   4.335   8.959   9.914 -0.1374  0.0979  0.0520
  596PYPI   C4A 9420   4.377   8.931   9.458 -0.1960 -0.0933  0.2724
  596PYPI   C1B 9421   4.115   8.500  10.620  0.0617 -0.1418 -0.0007
  596PYPI   C2B 9422   4.134   8.573  10.168 -0.3632  0.0670 -0.2674
  596PYPI   C3B 9423   4.107   8.520   9.762  0.0470  0.4672  0.0013
  596PYPI   C4B 9424   4.155   8.452   9.374 -0.4004 -0.4660 -0.0403
  597PYPI    C1 9425   3.146   9.801  12.012  0.0059  0.0373 -0.1493
  597PYPI    C2 9426   3.167  10.150  12.206  0.2323 -0.0646  0.0132
  597PYPI    C3 9427   2.891   9.879  12.311  0.2734 -0.0690  0.1108
  597PYPI   PO4 9428   3.230   9.889  11.755 -0.1899 -0.2892  0.0075
  597PYPI   GL1 9429   3.410  10.033  11.388 -0.1359  0.0749  0.1192
  597PYPI   GL2 9430   3.458   9.726  11.162 -0.2515  0.2343  0.0399
  597PYPI   C1A 9431   3.322  10.215  11.006 -0.1712  0.1952 -0.2911
  597PYPI   C2A 9432   3.374  10.252  10.575 -0.1168  0.1514 -0.2005
  597PYPI   D3A 9433   3.314  10.122  10.191  0.1720  0.1708 -0.1618
  597PYPI   C4A 9434   3.324  10.230   9.856 -0.3798  0.2944  0.1303
  597PYPI   C1B 9435   3.665   9.755  10.774  0.0689 -0.0156 -0.1038
  597PYPI   C2B 9436   3.702   9.860  10.375  0.0514  0.0701  0.4093
  597PYPI   C3B 9437   3.743   9.791   9.918  0.2815  0.0016 -0.1461
  597PYPI   C4B 9438   3.803   9.782   9.491 -0.0209 -0.1805  0.2692
  598PYPI    C1 9439  16.673  10.900  11.629  0.2318 -0.0032  0.0089
  598PYPI    C2 9440  16.778  10.967  12.009 -0.0177 -0.1099  0.0990
  598PYPI    C3 9441  16.595  10.626  11.910  0.0834 -0.1004 -0.1257
  598PYPI   PO4 9442  16.493  11.136  11.586 -0.0597 -0.2933 -0.0663
  598PYPI   GL1 9443  16.411  11.330  11.205  0.2095 -0.0215 -0.2341
  598PYPI   GL2 9444  16.613  11.532  11.107 -0.3774 -0.3218  0.2431
  598PYPI   C1A 9445  16.360  11.290  10.712 -0.0588  0.0782 -0.1731
  598PYPI   C2A 9446  16.316  11.293  10.340  0.1906  0.0258  0.1747
  598PYPI   D3A 9447  16.747  11.375  10.154 -0.1493  0.0411 -0.2407
  598PYPI   C4A 9448  16.911  11.395   9.804  0.0539  0.0127  0.1506
  598PYPI   C1B 9449  16.807  11.453  10.650  0.0099 -0.0554 -0.0634
  598PYPI   C2B 9450  17.218  11.401  10.289 -0.0307 -0.0481  0.0036
  598PYPI   C3B 9451  17.419  11.421   9.818 -0.0864 -0.2075 -0.0121
  598PYPI   C4B 9452  17.287  11.229   9.385 -0.0054  0.3007 -0.1180
  599PYPI    C1 9453  14.437   5.646  11.881  0.0276 -0.0360 -0.1381
  599PYPI    C2 9454  14.144   5.844  12.069  0.1131 -0.0563  0.0176
  599PYPI    C3 9455  14.522   5.874  12.198  0.1309 -0.3004  0.0280
  599PYPI   PO4 9456  14.423   5.765  11.615  0.2638  0.1009 -0.2122
  599PYPI   GL1 9457  14.152   5.635  11.225  0.2519  0.2148 -0.1449
  599PYPI   GL2 9458  14.463   5.562  11.095 -0.0095  0.3512  0.2273
  599PYPI   C1A 9459  13.976   5.443  10.942 -0.0105  0.0358  0.0534
  599PYPI   C2A 9460  13.981   5.382  10.508  0.3103  0.2024  0.1223
  599PYPI   D3A 9461  14.073   5.385  10.032 -0.3320 -0.2389  0.3979
  599PYPI   C4A 9462  14.074   5.292   9.654 -0.1488  0.3067  0.1488
  599PYPI   C1B 9463  14.498   5.531  10.693  0.0082 -0.1104  0.0710
  599PYPI   C2B 9464  14.477   5.442  10.342  0.1454 -0.1097 -0.0876
  599PYPI   C3B 9465  14.558   5.495  10.003 -0.1394 -0.0733 -0.0588
  599PYPI   C4B 9466  14.578   5.496   9.614  0.0556 -0.1410  0.1135
  600PYPI    C1 9467  14.519   0.028  11.755  0.0361  0.0752 -0.0988
  600PYPI    C2 9468  14.131   0.030  11.661 -0.0025 -0.1025  0.0508
  600PYPI    C3 9469  14.250  -0.117  12.013  0.2019 -0.0596  0.0006
  600PYPI   PO4 9470  14.651  -0.092  11.460 -0.1578  0.2479  0.0923
  600PYPI   GL1 9471  14.888  -0.065  11.102 -0.0433  0.1529 -0.3538
  600PYPI   GL2 9472  15.006  -0.366  11.268 -0.2811  0.2853  0.1677
  600PYPI   C1A 9473  14.905  -0.080  10.709 -0.0015 -0.1751  0.0665
  600PYPI   C2A 9474  14.807  -0.140  10.307  0.1585  0.0937  0.1402
  600PYPI   D3A 9475  14.950   0.038   9.947  0.1580 -0.0243  0.0169
  600PYPI   C4A 9476  14.904   0.016   9.555  0.1677 -0.1249  0.3259
  600PYPI   C1B 9477  15.215  -0.398  10.886  0.0298  0.0861  0.0463
  600PYPI   C2B 9478  15.173  -0.417  10.484  0.0642  0.1863  0.0740
  600PYPI   C3B 9479  15.263  -0.386  10.092  0.2205  0.0669 -0.1396
  600PYPI   C4B 9480  15.254  -0.297   9.708  0.1266 -0.0582 -0.0389
  601PYPI    C1 9481  11.360   7.008  11.651  0.1392 -0.0017  0.1507
  601PYPI    C2 9482  11.673   7.195  11.814  0.1549 -0.1263  0.2656
  601PYPI    C3 9483  11.336   7.149  12.024  0.0352  0.0651  0.1190
  601PYPI   PO4 9484  11.407   7.060  11.411 -0.1379 -0.0952 -0.0025
  601PYPI   GL1 9485  11.390   6.932  11.056 -0.0110 -0.0909 -0.0097
  601PYPI   GL2 9486  11.473   7.179  10.916 -0.1366  0.2674  0.3448
  601PYPI   C1A 9487  11.255   6.765  10.663 -0.0121  0.2514 -0.1561
  601PYPI   C2A 9488  11.196   6.837  10.230 -0.4736 -0.1769  0.1730
  601PYPI   D3A 9489  11.218   6.732   9.804 -0.0611  0.0876  0.1878
  601PYPI   C4A 9490  11.172   6.684   9.399  0.0574 -0.2339 -0.0768
  601PYPI   C1B 9491  11.416   7.236  10.453  0.0250  0.1915 -0.2801
  601PYPI   C2B 9492  11.468   7.226  10.010  0.3013 -0.0098  0.0390
  601PYPI   C3B 9493  11.387   7.172   9.612 -0.1777  0.0108 -0.2598
  601PYPI   C4B 9494  11.435   7.220   9.173 -0.0622 -0.1213 -0.0972
  602PYPI    C1 9495   4.284   4.226  11.843 -0.1172 -0.0467  0.3527
  602PYPI    C2 9496   4.498   3.888  11.833  0.0659  0.0707  0.2460
  602PYPI    C3 9497   4.588   4.174  12.098 -0.0283  0.0760  0.2727
  602PYPI   PO4 9498   4.195   4.258  11.538  0.0749 -0.1827  0.1244
  602PYPI   GL1 9499   4.162   4.299  11.130 -0.1433 -0.2479  0.2797
  602PYPI   GL2 9500   3.969   4.445  10.895  0.1051  0.2024 -0.1244
  602PYPI   C1A 9501   4.436   4.346  10.770 -0.0885  0.1491  0.1815
  602PYPI   C2A 9502   4.401   4.358  10.338 -0.2425  0.1897  0.1892
  602PYPI   D3A 9503   4.322   4.364   9.849  0.3227  0.0286  0.1153
  602PYPI   C4A 9504   4.540   4.261   9.490 -0.0940 -0.0185 -0.3326
  602PYPI   C1B 9505   3.852   4.250  10.471  0.0168  0.2558 -0.0466
  602PYPI   C2B 9506   3.823   4.266   9.973 -0.1884  0.2303 -0.1015
  602PYPI   C3B 9507   3.886   4.297   9.523 -0.0943 -0.2313 -0.2678
  602PYPI   C4B 9508   3.867   4.303   9.063  0.1479  0.0361 -0.0616
  603PYPI    C1 9509   6.486  13.199  11.664 -0.0499 -0.1250  0.1385
  603PYPI    C2 9510   6.810  13.183  11.899 -0.1007  0.0284  0.2200
  603PYPI    C3 9511   6.503  12.934  11.963 -0.0247 -0.0763  0.1802
  603PYPI   PO4 9512   6.526  13.107  11.391 -0.2894 -0.0214 -0.0272
  603PYPI   GL1 9513   6.486  12.807  10.980  0.0776 -0.1655 -0.2013
  603PYPI   GL2 9514   6.816  12.873  10.984  0.1928 -0.2194 -0.1356
  603PYPI   C1A 9515   6.482  12.838  10.500  0.0366 -0.2186 -0.2700
  603PYPI   C2A 9516   6.416  12.891  10.001 -0.1917  0.1754  0.0794
  603PYPI   D3A 9517   6.320  12.904   9.567 -0.1509 -0.2557 -0.0874
  603PYPI   C4A 9518   6.350  12.827   9.096 -0.0255  0.2410 -0.0328
  603PYPI   C1B 9519   6.964  12.991  10.648 -0.2168  0.3183  0.0566
  603PYPI   C2B 9520   6.968  13.036  10.175  0.3776  0.2493  0.0462
  603PYPI   C3B 9521   6.870  12.950   9.742  0.1899  0.1449 -0.0238
  603PYPI   C4B 9522   6.809  12.992   9.306  0.2971  0.2788 -0.4859
  604PYPI    C1 9523   1.441   7.844  11.631  0.2920 -0.0822 -0.1776
  604PYPI    C2 9524   1.818   7.972  11.664  0.2957 -0.1378  0.0080
  604PYPI    C3 9525   1.592   7.930  11.991  0.1508 -0.1729 -0.0956
  604PYPI   PO4 9526   1.491   7.687  11.427  0.0135 -0.0957  0.0164
  604PYPI   GL1 9527   1.147   7.810  11.100 -0.0398  0.2305  0.0099
  604PYPI   GL2 9528   1.281   7.572  10.975 -0.1282 -0.0110  0.1762
  604PYPI   C1A 9529   1.029   7.944  10.630  0.0786  0.2548  0.4606
  604PYPI   C2A 9530   1.017   7.958  10.174  0.1457 -0.3256 -0.1530
  604PYPI   D3A 9531   1.049   8.042   9.760 -0.0590  0.0276 -0.2298
  604PYPI   C4A 9532   1.159   8.345   9.551  0.0737 -0.0623  0.1058
  604PYPI   C1B 9533   1.370   7.520  10.650 -0.2062 -0.0118  0.3359
  604PYPI   C2B 9534   1.362   7.440  10.265  0.3145 -0.1035  0.1085
  604PYPI   C3B 9535   1.292   7.546   9.856 -0.1346  0.2203  0.1525
  604PYPI   C4B 9536   1.353   7.691   9.488  0.1318 -0.1527  0.1230
  605PYPI    C1 9537   7.111  12.349  11.590  0.0033 -0.2809 -0.0091
  605PYPI    C2 9538   7.185  12.006  11.782  0.2095 -0.1635  0.1254
  605PYPI    C3 9539   7.326  12.351  11.927  0.0832 -0.0320 -0.0594
  605PYPI   PO4 9540   6.888  12.213  11.438  0.0794 -0.0035 -0.0321
  605PYPI   GL1 9541   6.688  12.308  11.049  0.0250 -0.2935  0.3196
  605PYPI   GL2 9542   6.931  12.069  10.948  0.2605 -0.1212 -0.0414
  605PYPI   C1A 9543   6.764  12.411  10.657  0.3063 -0.3471 -0.0295
  605PYPI   C2A 9544   6.810  12.561  10.285  0.2128  0.0890  0.1976
  605PYPI   D3A 9545   6.775  12.514   9.884  0.3141  0.4170 -0.3381
  605PYPI   C4A 9546   6.718  12.455   9.474  0.1110 -0.1274  0.1156
  605PYPI   C1B 9547   7.100  12.102  10.470  0.0092  0.0788 -0.1022
  605PYPI   C2B 9548   7.121  12.164  10.053 -0.1404  0.1447  0.0204
  605PYPI   C3B 9549   7.016  11.996   9.600 -0.2795 -0.3553  0.0557
  605PYPI   C4B 9550   7.157  12.071   9.169  0.0938 -0.1666 -0.1372
  606PYPI    C1 9551  14.318   6.984  11.507  0.0709  0.0587  0.0206
  606PYPI    C2 9552  14.042   6.898  11.784 -0.0109  0.1103 -0.0441
  606PYPI    C3 9553  14.421   6.777  11.834 -0.0210  0.1354  0.0987
  606PYPI   PO4 9554  14.251   6.826  11.213  0.0120  0.2236 -0.0081
  606PYPI   GL1 9555  14.143   6.759  10.864  0.0283  0.0457  0.0291
  606PYPI   GL2 9556  13.879   6.693  10.893 -0.0149 -0.0517  0.0116
  606PYPI   C1A 9557  14.133   6.775  10.351 -0.1787 -0.0154  0.0603
  606PYPI   C2A 9558  14.130   6.654   9.962 -0.0006  0.0279 -0.1881
  606PYPI   D3A 9559  14.107   6.739   9.524 -0.1636  0.2223  0.1041
  606PYPI   C4A 9560  14.098   6.656   9.035 -0.1578 -0.1505 -0.0906
  606PYPI   C1B 9561  13.704   6.631  10.523  0.3197  0.3924  0.0142
  606PYPI   C2B 9562  13.634   6.611  10.064 -0.0710 -0.2838  0.1060
  606PYPI   C3B 9563  13.612   6.719   9.624  0.0078  0.2446  0.2038
  606PYPI   C4B 9564  13.546   6.683   9.145  0.0058 -0.1555 -0.1067
  607ERGO   ROH 9565   8.775  13.967  11.001  0.1006 -0.3085 -0.0323
  607ERGO    R1 9566   8.814  14.148  10.787  0.1023 -0.2661  0.0031
  607ERGO    R2 9567   8.969  14.087  10.567  0.0667 -0.2415 -0.0332
  607ERGO    R3 9568   8.745  14.156  10.430  0.0578 -0.1770  0.0145
  607ERGO    R4 9569   8.947  14.107  10.223  0.0250 -0.1154 -0.0231
  607ERGO    R5 9570   8.825  14.287  10.247  0.0422 -0.1185  0.0532
  607ERGO    C1 9571   8.723  14.184   9.894 -0.0076  0.0184  0.0276
  607ERGO    C2 9572   8.735  14.143   9.560 -0.4130 -0.1705  0.0280
  608ERGO   ROH 9573  12.918   0.107  11.128  0.0262 -0.0928  0.0775
  608ERGO    R1 9574  12.902   0.200  10.861 -0.0841 -0.0143  0.1106
  608ERGO    R2 9575  13.126   0.238  10.703 -0.1469  0.0645  0.0400
  608ERGO    R3 9576  12.993   0.074  10.531 -0.1861  0.0980  0.0385
  608ERGO    R4 9577  13.133   0.266  10.359 -0.1396  0.0700  0.0408
  608ERGO    R5 9578  12.920   0.219  10.356 -0.1519  0.1198  0.0409
  608ERGO    C1 9579  13.012   0.128   9.997 -0.1721  0.1046  0.0398
  608ERGO    C2 9580  13.133   0.109   9.626 -0.3633  0.1038  0.2191
  609ERGO   ROH 9581   5.394   3.098  11.010 -0.0082  0.0210  0.0145
  609ERGO    R1 9582   5.403   3.016  10.739  0.1844  0.0569  0.0093
  609ERGO    R2 9583   5.244   3.131  10.544  0.1183 -0.1120 -0.0296
  609ERGO    R3 9584   5.482   3.170  10.419  0.1174  0.1817  0.0499
  609ERGO    R4 9585   5.286   3.150  10.201  0.1856  0.0520 -0.0140
  609ERGO    R5 9586   5.469   3.033  10.222  0.3088  0.2306 -0.0045
  609ERGO    C1 9587   5.535   3.197   9.884  0.2239  0.4232  0.0698
  609ERGO    C2 9588   5.512   3.185   9.460  0.0652  0.0572  0.2889
  610ERGO   ROH 9589  12.600   6.523  10.850  0.2208  0.1914  0.0050
  610ERGO    R1 9590  12.676   6.445  10.589  0.3114  0.1805  0.0342
  610ERGO    R2 9591  12.493   6.388  10.391  0.3640 -0.2716  0.0982
  610ERGO    R3 9592  12.634   6.574  10.251  0.0011 -0.0816 -0.0303
  610ERGO    R4 9593  12.510   6.405  10.046  0.2743 -0.4135  0.0860
  610ERGO    R5 9594  12.722   6.453  10.064  0.1902 -0.0156  0.0197
  610ERGO    C1 9595  12.653   6.588   9.714 -0.1184 -0.3177 -0.0419
  610ERGO    C2 9596  12.582   6.583   9.390 -0.2395  0.2636  0.0828
  611ERGO   ROH 9597   2.171   6.346  10.872 -0.3174  0.2720 -0.0921
  611ERGO    R1 9598   2.295   6.306  10.621 -0.2293  0.2466 -0.0442
  611ERGO    R2 9599   2.166   6.184  10.409 -0.0979  0.0759 -0.0239
  611ERGO    R3 9600   2.236   6.411  10.278 -0.2106  0.0658 -0.1044
  611ERGO    R4 9601   2.225   6.205  10.069  0.0640 -0.0553 -0.0062
  611ERGO    R5 9602   2.392   6.338  10.112 -0.0624  0.1023  0.0154
  611ERGO    C1 9603   2.325   6.431   9.748  0.0524 -0.1413 -0.0714
  611ERGO    C2 9604   2.274   6.456   9.391  0.0791  0.0842  0.4673
  612ERGO   ROH 9605   4.242  13.489  10.974  0.1304  0.2213  0.0577
  612ERGO    R1 9606   4.194  13.435  10.700  0.0710  0.1287  0.0860
  612ERGO    R2 9607   4.018  13.584  10.547  0.0818  0.1141  0.0589
  612ERGO    R3 9608   4.235  13.612  10.385  0.0620 -0.0008  0.0116
  612ERGO    R4 9609   4.015  13.547  10.204 -0.0065  0.0965  0.0615
  612ERGO    R5 9610   4.206  13.444  10.217 -0.0543  0.0041  0.0268
  612ERGO    C1 9611   4.215  13.552   9.851 -0.0766 -0.0216  0.0186
  612ERGO    C2 9612   4.189  13.572   9.508 -0.0071 -0.4430 -0.0612
  613ERGO   ROH 9613  17.170   6.809  11.033  0.1221  0.0608  0.0110
  613ERGO    R1 9614  17.033   6.777  10.787  0.1378 -0.0860  0.0211
  613ERGO    R2 9615  17.009   6.981  10.602 -0.1401 -0.0950  0.0478
  613ERGO    R3 9616  17.117   6.798  10.434  0.0773  0.0598  0.0135
  613ERGO    R4 9617  16.981   6.988  10.258 -0.3246 -0.1636  0.0603
  613ERGO    R5 9618  16.954   6.772  10.261  0.0241 -0.2166  0.0956
  613ERGO    C1 9619  17.066   6.820   9.899 -0.2281 -0.0582  0.0352
  613ERGO    C2 9620  17.050   6.825   9.574  0.0046 -0.0847 -0.1437
  614ERGO   ROH 9621   1.506   8.075  10.864  0.0884  0.3488 -0.0330
  614ERGO    R1 9622   1.622   8.025  10.610 -0.0820  0.0234 -0.0524
  614ERGO    R2 9623   1.481   7.911  10.402 -0.3659  0.1916  0.0462
  614ERGO    R3 9624   1.564   8.133  10.267  0.0046 -0.0125 -0.0794
  614ERGO    R4 9625   1.483   7.944  10.058 -0.6958  0.1293  0.0347
  614ERGO    R5 9626   1.675   8.046  10.073 -0.4199 -0.3143 -0.2050
  614ERGO    C1 9627   1.561   8.171   9.731 -0.5400 -0.0985 -0.0900
  614ERGO    C2 9628   1.648   8.288   9.373  0.1279  0.2585 -0.1038
  615ERGO   ROH 9629   1.018  10.892  11.070 -0.0400 -0.0508  0.0813
  615ERGO    R1 9630   0.921  10.888  10.804  0.2434 -0.1569 -0.0251
  615ERGO    R2 9631   0.764  11.091  10.699 -0.1729 -0.4854 -0.0705
  615ERGO    R3 9632   0.956  11.096  10.507  0.0353  0.1044  0.1294
  615ERGO    R4 9633   0.706  11.139  10.362  0.0539 -0.5455 -0.1197
  615ERGO    R5 9634   0.855  10.987  10.319  0.5310 -0.1268 -0.0167
  615ERGO    C1 9635   0.852  11.171   9.985  0.3815 -0.0269  0.0394
  615ERGO    C2 9636   0.799  11.274   9.662  0.1907 -0.2071 -0.0346
  616ERGO   ROH 9637   9.581   3.284  10.683  0.2988 -0.1658  0.0169
  616ERGO    R1 9638   9.436   3.305  10.440  0.1257 -0.2935  0.1071
  616ERGO    R2 9639   9.512   3.475  10.236 -0.2974 -0.0307  0.1590
  616ERGO    R3 9640   9.503   3.248  10.087  0.0446  0.0309  0.0363
  616ERGO    R4 9641   9.484   3.465   9.891 -0.3749  0.1160  0.1599
  616ERGO    R5 9642   9.348   3.297   9.912 -0.0905 -0.1310  0.1078
  616ERGO    C1 9643   9.460   3.245   9.551 -0.0989  0.2593  0.0451
  616ERGO    C2 9644   9.463   3.267   9.250  0.2107 -0.0383  0.0837
  617ERGO   ROH 9645   6.253   6.561  10.935 -0.0171 -0.1156 -0.0729
  617ERGO    R1 9646   6.341   6.443  10.692  0.0283 -0.0560 -0.0848
  617ERGO    R2 9647   6.166   6.372  10.490  0.0600 -0.0802 -0.0984
  617ERGO    R3 9648   6.329   6.528  10.339  0.0188 -0.0129 -0.0755
  617ERGO    R4 9649   6.174   6.372  10.145  0.0176  0.0070 -0.1001
  617ERGO    R5 9650   6.391   6.388  10.155  0.0205  0.0401 -0.1195
  617ERGO    C1 9651   6.332   6.519   9.801 -0.0456  0.1209 -0.0797
  617ERGO    C2 9652   6.455   6.434   9.639  0.2243  0.0577  0.1993
  618ERGO   ROH 9653   5.630   5.898  10.675 -0.0773  0.0141  0.0694
  618ERGO    R1 9654   5.527   5.846  10.416  0.1013 -0.2405  0.0454
  618ERGO    R2 9655   5.491   6.045  10.227 -0.1780 -0.3495 -0.0256
  618ERGO    R3 9656   5.643   5.881  10.074  0.1672 -0.1351  0.0790
  618ERGO    R4 9657   5.517   6.063   9.883 -0.1873 -0.4942 -0.0338
  618ERGO    R5 9658   5.514   5.845   9.876  0.2500 -0.5102  0.0875
  618ERGO    C1 9659   5.675   5.919   9.539  0.1313 -0.3772  0.0595
  618ERGO    C2 9660   5.704   5.922   9.201 -0.1702  0.2160  0.2356
  619ERGO   ROH 9661   1.941  15.532  10.988  0.0199 -0.0208 -0.0405
  619ERGO    R1 9662   2.013  15.435  10.732 -0.0531 -0.0424 -0.0529
  619ERGO    R2 9663   1.829  15.403  10.529 -0.1161 -0.0818  0.0087
  619ERGO    R3 9664   2.003  15.559  10.390 -0.1744 -0.0803 -0.0632
  619ERGO    R4 9665   1.915  15.355  10.197 -0.0731 -0.2171  0.0384
  619ERGO    R5 9666   2.121  15.405  10.249 -0.0989 -0.1019  0.0251
  619ERGO    C1 9667   2.128  15.474   9.874 -0.1027 -0.2944 -0.0117
  619ERGO    C2 9668   2.150  15.434   9.483  0.1323 -0.1408 -0.1794
  620ERGO   ROH 9669  11.674  15.616  10.824 -0.0947  0.0245 -0.1631
  620ERGO    R1 9670  11.782  15.627  10.563 -0.0363  0.0180 -0.1396
  620ERGO    R2 9671  11.840  15.401  10.416  0.0384  0.0136 -0.1042
  620ERGO    R3 9672  11.681  15.519  10.230  0.0596 -0.0331 -0.1522
  620ERGO    R4 9673  11.859  15.345  10.075 -0.0549 -0.2223 -0.0722
  620ERGO    R5 9674  11.826  15.558  10.043  0.0421 -0.2270 -0.2078
  620ERGO    C1 9675  11.720  15.423   9.703 -0.0893 -0.4034 -0.0989
  620ERGO    C2 9676  11.738  15.433   9.384 -0.1073  0.3362  0.3505
  621ERGO   ROH 9677   6.436  15.013  11.248  0.2174  0.0757 -0.0107
  621ERGO    R1 9678   6.318  15.138  11.023 -0.1307 -0.1614  0.0321
  621ERGO    R2 9679   6.467  15.251  10.819 -0.4255  0.3422  0.0740
  621ERGO    R3 9680   6.318  15.087  10.662  0.0279 -0.0335  0.0138
  621ERGO    R4 9681   6.424  15.289  10.478 -0.2955  0.1596  0.0367
  621ERGO    R5 9682   6.215  15.234  10.504 -0.1992 -0.2957 -0.0872
  621ERGO    C1 9683   6.259  15.157  10.133  0.2058 -0.2994 -0.0416
  621ERGO    C2 9684   6.353  15.210   9.807 -0.5212  0.1981  0.1573
  622ERGO   ROH 9685  10.910   9.448  10.894 -0.0527 -0.1280 -0.1161
  622ERGO    R1 9686  10.864   9.365  10.627  0.1448 -0.0904 -0.1620
  622ERGO    R2 9687  10.705   9.508  10.452  0.0588 -0.2051 -0.1727
  622ERGO    R3 9688  10.926   9.498  10.294  0.1346  0.0884 -0.0939
  622ERGO    R4 9689  10.702   9.449  10.112  0.2352  0.2607 -0.2645
  622ERGO    R5 9690  10.879   9.324  10.137  0.2658  0.2848 -0.3588
  622ERGO    C1 9691  10.907   9.405   9.765  0.4091  0.8076 -0.2441
  622ERGO    C2 9692  10.908   9.418   9.375  0.0979  0.0825  0.0026
  623ERGO   ROH 9693  10.717   5.941  11.192 -0.0791 -0.0971  0.1226
  623ERGO    R1 9694  10.870   5.916  10.954 -0.0931 -0.0870  0.1129
  623ERGO    R2 9695  10.839   5.703  10.780 -0.1866 -0.0180  0.0467
  623ERGO    R3 9696  10.802   5.901  10.597 -0.1035  0.0558  0.1080
  623ERGO    R4 9697  10.861   5.662  10.438 -0.2855  0.0584  0.0307
  623ERGO    R5 9698  10.962   5.855  10.426 -0.1674  0.0004  0.0611
  623ERGO    C1 9699  10.838   5.824  10.067 -0.2651  0.1723  0.0788
  623ERGO    C2 9700  10.756   5.836   9.611  0.0594  0.2440  0.1106
  624ERGO   ROH 9701   7.215  17.314  11.305 -0.0347 -0.1085  0.1650
  624ERGO    R1 9702   7.193  17.164  11.066  0.1092 -0.1245  0.1597
  624ERGO    R2 9703   6.995  17.210  10.879 -0.0345 -0.4071  0.2273
  624ERGO    R3 9704   7.206  17.232  10.709 -0.1186 -0.0683  0.1626
  624ERGO    R4 9705   6.978  17.169  10.536 -0.1146 -0.1304  0.1969
  624ERGO    R5 9706   7.168  17.063  10.544 -0.0170  0.0400  0.0330
  624ERGO    C1 9707   7.167  17.166  10.177 -0.2402  0.3488  0.1185
  624ERGO    C2 9708   7.165  17.144   9.750 -0.0948  0.2421  0.0223
  625ERGO   ROH 9709  15.885  16.289  11.168 -0.2646  0.2885  0.1363
  625ERGO    R1 9710  15.962  16.237  10.901 -0.0469  0.2555  0.2034
  625ERGO    R2 9711  15.794  16.115  10.719  0.1828  0.0165  0.1445
  625ERGO    R3 9712  15.849  16.335  10.569  0.0600  0.0127  0.0925
  625ERGO    R4 9713  15.842  16.114  10.376  0.0273 -0.0129  0.1222
  625ERGO    R5 9714  16.004  16.257  10.404  0.0048  0.0312  0.0312
  625ERGO    C1 9715  15.922  16.320  10.037 -0.1785 -0.0335  0.0604
  625ERGO    C2 9716  15.873  16.321   9.639 -0.0930  0.0275  0.2143
  626ERGO   ROH 9717  13.439   3.957  10.838  0.0210 -0.1645 -0.0141
  626ERGO    R1 9718  13.578   3.961  10.592  0.0281 -0.0696 -0.0096
  626ERGO    R2 9719  13.538   3.770  10.395  0.1087 -0.0528 -0.0438
  626ERGO    R3 9720  13.490   3.988  10.240  0.0292 -0.0453 -0.0082
  626ERGO    R4 9721  13.508   3.765  10.051  0.1624 -0.0043 -0.0486
  626ERGO    R5 9722  13.621   3.950  10.043  0.0769  0.0518  0.0038
  626ERGO    C1 9723  13.446   3.966   9.705  0.1190  0.0309 -0.0181
  626ERGO    C2 9724  13.491   3.945   9.383 -0.2530 -0.1517  0.0321
  627ERGO   ROH 9725   5.472   3.562  10.768  0.0356 -0.3231  0.0455
  627ERGO    R1 9726   5.484   3.657  10.501 -0.1156 -0.3410  0.0316
  627ERGO    R2 9727   5.723   3.680  10.363 -0.1413  0.0665  0.0496
  627ERGO    R3 9728   5.593   3.527  10.179  0.1465 -0.2010  0.0596
  627ERGO    R4 9729   5.745   3.720  10.020 -0.0501 -0.0494  0.0411
  627ERGO    R5 9730   5.532   3.680  10.006  0.0028 -0.3561 -0.0338
  627ERGO    C1 9731   5.637   3.599   9.649  0.2732 -0.3680  0.0454
  627ERGO    C2 9732   5.710   3.615   9.292 -0.0321  0.0507 -0.0263
  628ERGO   ROH 9733   3.801  13.211  10.994  0.2105  0.0006 -0.0249
  628ERGO    R1 9734   3.956  13.074  10.800  0.2614  0.0548 -0.0225
  628ERGO    R2 9735   3.843  12.950  10.580  0.2787 -0.2101  0.1152
  628ERGO    R3 9736   4.021  13.105  10.443  0.0329 -0.0919 -0.0794
  628ERGO    R4 9737   3.877  12.956  10.236  0.1452 -0.4624  0.0956
  628ERGO    R5 9738   4.093  12.966  10.262  0.1471 -0.1587  0.0137
  628ERGO    C1 9739   4.063  13.104   9.908 -0.1633 -0.4984 -0.0987
  628ERGO    C2 9740   4.061  13.028   9.575 -0.1187  0.2602  0.1804
  629ERGO   ROH 9741  12.874   6.112  10.994 -0.2389 -0.2435 -0.1524
  629ERGO    R1 9742  12.941   6.018  10.735 -0.3184 -0.1999 -0.1891
  629ERGO    R2 9743  12.760   6.014  10.527 -0.2878  0.1576 -0.2275
  629ERGO    R3 9744  12.953   6.155  10.398 -0.0672 -0.0359 -0.1162
  629ERGO    R4 9745  12.803   6.023  10.184 -0.0148  0.0334 -0.1989
  629ERGO    R5 9746  13.019   6.015  10.216 -0.0428 -0.1395 -0.0297
  629ERGO    C1 9747  13.010   6.161   9.864  0.3512 -0.2205 -0.0778
  629ERGO    C2 9748  12.923   6.103   9.545  0.0240  0.1571  0.0841
  630ERGO   ROH 9749   5.054  13.362  11.018  0.1030 -0.1955 -0.0137
  630ERGO    R1 9750   5.136  13.287  10.758 -0.0408 -0.3273 -0.0216
  630ERGO    R2 9751   5.004  13.095  10.609 -0.4532 -0.0184 -0.0629
  630ERGO    R3 9752   4.993  13.293  10.423 -0.0136  0.0468 -0.0325
  630ERGO    R4 9753   5.059  13.052  10.271 -0.5406 -0.0968 -0.0684
  630ERGO    R5 9754   5.168  13.240  10.269 -0.1155 -0.3248 -0.0372
  630ERGO    C1 9755   5.080  13.213   9.899 -0.1789 -0.0811 -0.0429
  630ERGO    C2 9756   5.071  13.162   9.594 -0.1712 -0.0167  0.0740
  631ERGO   ROH 9757  12.504   3.848  10.959  0.0019  0.0901 -0.0377
  631ERGO    R1 9758  12.558   3.710  10.718 -0.1030 -0.0792  0.0341
  631ERGO    R2 9759  12.374   3.692  10.512 -0.1038 -0.0186  0.0309
  631ERGO    R3 9760  12.579   3.793  10.364 -0.0026 -0.2744 -0.0079
  631ERGO    R4 9761  12.388   3.689  10.167 -0.3089  0.1931  0.0189
  631ERGO    R5 9762  12.600   3.640  10.181 -0.3771 -0.1938 -0.1294
  631ERGO    C1 9763  12.588   3.782   9.827 -0.3334  0.0763 -0.0244
  631ERGO    C2 9764  12.426   3.760   9.528 -0.0203 -0.0987 -0.2081
  632ERGO   ROH 9765   5.256   3.965  10.813 -0.0833 -0.2106  0.0814
  632ERGO    R1 9766   5.245   4.096  10.562 -0.1019 -0.1242  0.1260
  632ERGO    R2 9767   5.463   4.112  10.393 -0.0569  0.0968  0.1923
  632ERGO    R3 9768   5.290   4.003  10.213  0.0718  0.0341  0.1069
  632ERGO    R4 9769   5.511   4.104  10.051  0.0562  0.1977  0.2058
  632ERGO    R5 9770   5.300   4.149  10.024  0.0449  0.0753  0.1438
  632ERGO    C1 9771   5.377   3.996   9.683  0.2428  0.1976  0.1335
  632ERGO    C2 9772   5.351   4.036   9.361  0.0033  0.0473 -0.3331
  633ERGO   ROH 9773  10.223   4.237  10.916  0.0586 -0.1764  0.0001
  633ERGO    R1 9774  10.342   4.244  10.659 -0.0225 -0.3072 -0.0425
  633ERGO    R2 9775  10.266   4.075  10.454 -0.3866 -0.1277 -0.0632
  633ERGO    R3 9776  10.232   4.308  10.318 -0.0483 -0.0277  0.0151
  633ERGO    R4 9777  10.298   4.110  10.112 -0.3395 -0.0622 -0.0520
  633ERGO    R5 9778  10.398   4.301  10.146 -0.0572 -0.2153  0.0113
  633ERGO    C1 9779  10.286   4.349   9.785  0.0056  0.0700  0.0282
  633ERGO    C2 9780  10.281   4.368   9.541 -0.0479  0.0338 -0.0595
  634ERGO   ROH 9781   1.478   5.245  10.855  0.0019  0.1837 -0.0151
  634ERGO    R1 9782   1.368   5.171  10.605  0.1413  0.0403 -0.0354
  634ERGO    R2 9783   1.302   5.355  10.411 -0.1885 -0.0287  0.0056
  634ERGO    R3 9784   1.463   5.201  10.255  0.1005  0.2934 -0.0267
  634ERGO    R4 9785   1.280   5.331  10.067 -0.3583 -0.2280  0.0287
  634ERGO    R5 9786   1.318   5.117  10.084  0.1835 -0.1421  0.1025
  634ERGO    C1 9787   1.418   5.172   9.720 -0.1859 -0.0415  0.0120
  634ERGO    C2 9788   1.397   5.282   9.339  0.1958  0.0472  0.2450
  635ERGO   ROH 9789  12.737  10.789  10.734 -0.0184  0.0907 -0.1020
  635ERGO    R1 9790  12.845  10.736  10.478 -0.0392 -0.0010 -0.0922
  635ERGO    R2 9791  12.723  10.565  10.297 -0.1242  0.0362 -0.0729
  635ERGO    R3 9792  12.740  10.781  10.132 -0.0081  0.0065 -0.1000
  635ERGO    R4 9793  12.745  10.550   9.952 -0.1042 -0.0147 -0.0694
  635ERGO    R5 9794  12.890  10.712   9.959 -0.0286 -0.0848 -0.0796
  635ERGO    C1 9795  12.774  10.743   9.597  0.0164 -0.0722 -0.0928
  635ERGO    C2 9796  12.716  10.685   9.228  0.2115 -0.2853 -0.2252
  636ERGO   ROH 9797   2.750   5.914  11.012  0.2318  0.0517 -0.0107
  636ERGO    R1 9798   2.699   5.828  10.747  0.1958  0.1106 -0.0234
  636ERGO    R2 9799   2.492   5.930  10.595  0.1050  0.0653  0.0651
  636ERGO    R3 9800   2.691   5.981  10.417  0.0339  0.2109  0.0265
  636ERGO    R4 9801   2.468   5.881  10.253  0.1013 -0.0211  0.0776
  636ERGO    R5 9802   2.672   5.805  10.255  0.1705  0.1637  0.0631
  636ERGO    C1 9803   2.641   5.901   9.887  0.0325  0.0652  0.0487
  636ERGO    C2 9804   2.506   5.992   9.566 -0.1414 -0.3310 -0.1503
  637ERGO   ROH 9805  11.806   2.865  11.043  0.0150  0.2448 -0.0843
  637ERGO    R1 9806  11.740   2.706  10.818  0.2119  0.0853 -0.0308
  637ERGO    R2 9807  11.533   2.769  10.646  0.1202 -0.2387 -0.0416
  637ERGO    R3 9808  11.728   2.751  10.457  0.1376 -0.0467 -0.0458
  637ERGO    R4 9809  11.478   2.761  10.305  0.1379 -0.0673 -0.0504
  637ERGO    R5 9810  11.634   2.610  10.288  0.2049  0.0078 -0.1309
  637ERGO    C1 9811  11.629   2.739   9.929  0.1644  0.2128 -0.0594
  637ERGO    C2 9812  11.624   2.613   9.602 -0.0603  0.0450 -0.3668
  638ERGO   ROH 9813   0.094  15.455  11.201  0.1193  0.0537 -0.0103
  638ERGO    R1 9814   0.134  15.581  10.951  0.2698 -0.0371 -0.0329
  638ERGO    R2 9815   0.301  15.477  10.757  0.0241 -0.3605 -0.0769
  638ERGO    R3 9816   0.079  15.498  10.601  0.0050  0.0292 -0.0103
  638ERGO    R4 9817   0.303  15.551  10.419  0.0580 -0.3714 -0.0796
  638ERGO    R5 9818   0.128  15.678  10.451  0.2840 -0.0546 -0.0285
  638ERGO    C1 9819   0.096  15.613  10.076  0.0597 -0.0121 -0.0186
  638ERGO    C2 9820   0.182  15.556   9.715  0.0105 -0.2193  0.0599
  639ERGO   ROH 9821  13.764  10.051  11.023 -0.3327 -0.1778 -0.2171
  639ERGO    R1 9822  13.933  10.048  10.795 -0.2029 -0.0587 -0.1245
  639ERGO    R2 9823  13.944   9.834  10.621  0.0800 -0.0728 -0.0958
  639ERGO    R3 9824  13.890  10.024  10.435  0.0152 -0.1400 -0.1461
  639ERGO    R4 9825  13.920   9.777  10.281  0.2491 -0.1422 -0.0967
  639ERGO    R5 9826  14.026   9.964  10.247  0.1289 -0.0728 -0.0853
  639ERGO    C1 9827  13.855   9.922   9.908  0.2867 -0.2457 -0.1444
  639ERGO    C2 9828  13.787   9.886   9.519  0.3871  0.0975  0.0166
  640ERGO   ROH 9829   9.283   4.491  10.875 -0.1626  0.0884  0.0088
  640ERGO    R1 9830   9.273   4.626  10.627  0.1036  0.2307  0.0701
  640ERGO    R2 9831   9.497   4.669  10.471  0.2097 -0.0709  0.1256
  640ERGO    R3 9832   9.347   4.547  10.279  0.0262  0.2669  0.0465
  640ERGO    R4 9833   9.563   4.679  10.131  0.4761 -0.3090  0.1665
  640ERGO    R5 9834   9.349   4.700  10.095  0.5456  0.2306  0.0113
  640ERGO    C1 9835   9.460   4.571   9.754  0.4590 -0.1305  0.1160
  640ERGO    C2 9836   9.369   4.561   9.465 -0.2873  0.3156  0.0686
  641ERGO   ROH 9837  17.359   3.764  11.113 -0.2254  0.1784  0.1014
  641ERGO    R1 9838  17.253   3.631  10.887 -0.1880  0.1563  0.0973
  641ERGO    R2 9839  17.119   3.765  10.685 -0.1465  0.1369  0.0599
  641ERGO    R3 9840  17.303   3.643  10.526 -0.1231  0.1134  0.1040
  641ERGO    R4 9841  17.081   3.708  10.347 -0.1241  0.0431  0.0725
  641ERGO    R5 9842  17.173   3.512  10.374 -0.1035  0.0578  0.1314
  641ERGO    C1 9843  17.231   3.561  10.000 -0.0890 -0.0335  0.1211
  641ERGO    C2 9844  17.132   3.666   9.692 -0.0074 -0.0014 -0.2432
  642ERGO   ROH 9845  15.905   3.287  11.272  0.2897  0.2055 -0.1301
  642ERGO    R1 9846  15.742   3.268  11.042  0.2734 -0.2272 -0.0939
  642ERGO    R2 9847  15.696   3.484  10.874 -0.4398 -0.2900 -0.0225
  642ERGO    R3 9848  15.786   3.312  10.683  0.0587  0.0276 -0.0893
  642ERGO    R4 9849  15.616   3.501  10.538 -0.2794 -0.2676 -0.0591
  642ERGO    R5 9850  15.600   3.284  10.535  0.2092 -0.3035 -0.2128
  642ERGO    C1 9851  15.654   3.349  10.164  0.2818  0.0436 -0.1432
  642ERGO    C2 9852  15.551   3.372   9.843 -0.1071 -0.0274  0.0289
  643ERGO   ROH 9853  17.369   8.711  10.676 -0.0245 -0.2182  0.1399
  643ERGO    R1 9854  17.228   8.716  10.430  0.0133 -0.2843  0.1165
  643ERGO    R2 9855  17.295   8.887  10.224 -0.2299 -0.0236  0.2470
  643ERGO    R3 9856  17.306   8.656  10.080  0.1859  0.0877  0.0870
  643ERGO    R4 9857  17.277   8.868   9.879 -0.2588  0.1796  0.2367
  643ERGO    R5 9858  17.151   8.691   9.900  0.0803 -0.0826  0.1422
  643ERGO    C1 9859  17.277   8.641   9.543  0.1148  0.4025  0.0805
  643ERGO    C2 9860  17.240   8.601   9.230 -0.0439 -0.1014 -0.2190
  644ERGO   ROH 9861   5.550  11.045  11.118 -0.0518  0.0816 -0.1422
  644ERGO    R1 9862   5.685  11.043  10.869 -0.0067  0.0672 -0.1177
  644ERGO    R2 9863   5.649  10.843  10.682 -0.0368  0.1003 -0.1477
  644ERGO    R3 9864   5.591  11.052  10.518  0.0603  0.1382 -0.1340
  644ERGO    R4 9865   5.660  10.831  10.337 -0.1040  0.0992 -0.1501
  644ERGO    R5 9866   5.749  11.031  10.338  0.0167  0.0465 -0.1618
  644ERGO    C1 9867   5.614  11.021   9.982 -0.0520  0.1342 -0.1386
  644ERGO    C2 9868   5.578  11.018   9.683  0.2517  0.2279  0.0363
  645ERGO   ROH 9869   2.392  10.072  11.270  0.2309 -0.0421  0.0149
  645ERGO    R1 9870   2.263  10.035  11.020  0.2116 -0.0754  0.0295
  645ERGO    R2 9871   2.238  10.237  10.834  0.0459 -0.0515  0.0736
  645ERGO    R3 9872   2.356  10.056  10.669  0.1381  0.0584  0.0183
  645ERGO    R4 9873   2.193  10.223  10.492  0.1080  0.0669  0.0602
  645ERGO    R5 9874   2.188  10.005  10.506  0.1854  0.0611 -0.0289
  645ERGO    C1 9875   2.278  10.045  10.137  0.2307  0.2390  0.0005
  645ERGO    C2 9876   2.344  10.108   9.775 -0.0014 -0.1245 -0.2827
  646ERGO   ROH 9877  12.180  16.511  10.753  0.2067  0.0956  0.0401
  646ERGO    R1 9878  12.093  16.546  10.486  0.0220 -0.1345  0.0695
  646ERGO    R2 9879  12.257  16.645  10.287 -0.2601  0.1585 -0.0113
  646ERGO    R3 9880  12.185  16.417  10.158  0.1450 -0.0167  0.0533
  646ERGO    R4 9881  12.276  16.598   9.946 -0.3988  0.2096 -0.0281
  646ERGO    R5 9882  12.084  16.493   9.955 -0.1822 -0.2242  0.1196
  646ERGO    C1 9883  12.219  16.355   9.626 -0.0992  0.0749  0.0228
  646ERGO    C2 9884  12.246  16.407   9.318  0.1446  0.1389 -0.3963
  647ERGO   ROH 9885   8.373  15.467  11.100  0.0291  0.1963  0.1348
  647ERGO    R1 9886   8.373  15.553  10.831  0.1643  0.2132  0.1386
  647ERGO    R2 9887   8.572  15.483  10.652  0.0774 -0.0647  0.1402
  647ERGO    R3 9888   8.362  15.396  10.503 -0.0481  0.2418  0.1321
  647ERGO    R4 9889   8.553  15.501  10.307  0.1133 -0.0472  0.1397
  647ERGO    R5 9890   8.343  15.557  10.326  0.1948  0.2642  0.1284
  647ERGO    C1 9891   8.346  15.430   9.966  0.0164  0.2510  0.1318
  647ERGO    C2 9892   8.423  15.384   9.610 -0.0002 -0.0730  0.0830
  648ERGO   ROH 9893   2.168   4.544  10.873 -0.3633 -0.2742  0.0390
  648ERGO    R1 9894   2.189   4.409  10.625 -0.3462 -0.2026 -0.0001
  648ERGO    R2 9895   1.972   4.374  10.456 -0.3241 -0.0883 -0.0660
  648ERGO    R3 9896   2.136   4.493  10.275 -0.2452 -0.0721  0.0174
  648ERGO    R4 9897   1.918   4.381  10.115 -0.2384  0.0838 -0.0761
  648ERGO    R5 9898   2.131   4.347  10.085 -0.2537  0.0205 -0.0454
  648ERGO    C1 9899   2.041   4.496   9.746 -0.1143  0.1992 -0.0038
  648ERGO    C2 9900   2.126   4.494   9.334  0.3165 -0.2040  0.1611
  649ERGO   ROH 9901  15.786   5.819  11.118  0.1069 -0.0138  0.0113
  649ERGO    R1 9902  15.762   5.670  10.878  0.1163 -0.0274  0.0184
  649ERGO    R2 9903  15.533   5.672  10.724  0.0851 -0.1134  0.0594
  649ERGO    R3 9904  15.705   5.744  10.526  0.0246 -0.0531  0.0284
  649ERGO    R4 9905  15.495   5.593  10.389  0.0321 -0.0812  0.0578
  649ERGO    R5 9906  15.709   5.556  10.379  0.0353 -0.0323  0.0053
  649ERGO    C1 9907  15.635   5.615  10.009 -0.0556 -0.0059  0.0278
  649ERGO    C2 9908  15.646   5.671   9.602  0.0871 -0.1942  0.0714
  650ERGO   ROH 9909  15.431   7.624  10.976  0.1943  0.0688 -0.1025
  650ERGO    R1 9910  15.485   7.550  10.708  0.0823  0.0868 -0.1311
  650ERGO    R2 9911  15.304   7.413  10.552  0.0766 -0.0510 -0.0127
  650ERGO    R3 9912  15.343   7.620  10.380 -0.1684 -0.0312 -0.0481
  650ERGO    R4 9913  15.298   7.386  10.208  0.0016 -0.0786 -0.0096
  650ERGO    R5 9914  15.468   7.523  10.200 -0.1334  0.0762 -0.0755
  650ERGO    C1 9915  15.332   7.564   9.846 -0.2722 -0.0762 -0.0409
  650ERGO    C2 9916  15.362   7.448   9.579  0.1377  0.1640 -0.1174
  651ERGO   ROH 9917  10.226   1.597  10.663  0.1873  0.0573  0.0688
  651ERGO    R1 9918  10.119   1.573  10.402  0.0496 -0.0277  0.1320
  651ERGO    R2 9919  10.202   1.731  10.191 -0.0912 -0.0661  0.0446
  651ERGO    R3 9920  10.244   1.491  10.071 -0.1153 -0.0898  0.0841
  651ERGO    R4 9921  10.194   1.678   9.850 -0.1062 -0.1227  0.0541
  651ERGO    R5 9922  10.090   1.490   9.887 -0.1208 -0.1076  0.0892
  651ERGO    C1 9923  10.228   1.422   9.538 -0.1375 -0.1780  0.0966
  651ERGO    C2 9924  10.296   1.565   9.276  0.0912  0.2578  0.0190
  652ERGO   ROH 9925   4.456  11.391  10.935 -0.0786  0.2855 -0.2420
  652ERGO    R1 9926   4.438  11.242  10.694 -0.0167  0.1044 -0.1358
  652ERGO    R2 9927   4.226  11.266  10.520 -0.0236 -0.1064 -0.1561
  652ERGO    R3 9928   4.422  11.316  10.338 -0.0422 -0.1596 -0.1920
  652ERGO    R4 9929   4.176  11.297  10.179 -0.1040  0.0696 -0.1304
  652ERGO    R5 9930   4.361  11.185  10.147 -0.1852 -0.0406 -0.2309
  652ERGO    C1 9931   4.332  11.361   9.810 -0.1682  0.1220 -0.1491
  652ERGO    C2 9932   4.243  11.210   9.457  0.0154  0.2570  0.0435
  653ERGO   ROH 9933  15.435  11.484  11.163  0.0711 -0.0934 -0.0815
  653ERGO    R1 9934  15.367  11.584  10.907 -0.0145 -0.0833 -0.0559
  653ERGO    R2 9935  15.554  11.693  10.735 -0.0882  0.0354 -0.0696
  653ERGO    R3 9936  15.454  11.509  10.562 -0.0276  0.0121 -0.0786
  653ERGO    R4 9937  15.568  11.718  10.391  0.0826 -0.0513 -0.0696
  653ERGO    R5 9938  15.365  11.639  10.382  0.0804 -0.0223 -0.1528
  653ERGO    C1 9939  15.481  11.559  10.028  0.2390 -0.1235 -0.0781
  653ERGO    C2 9940  15.642  11.578   9.734 -0.4229 -0.2390  0.0066
  654ERGO   ROH 9941   3.274  13.890  11.114 -0.1831 -0.0117 -0.0587
  654ERGO    R1 9942   3.308  13.962  10.843 -0.1602  0.0192 -0.0486
  654ERGO    R2 9943   3.505  13.853  10.682 -0.0355  0.1592 -0.0022
  654ERGO    R3 9944   3.295  13.793  10.521  0.0453  0.0146 -0.0540
  654ERGO    R4 9945   3.501  13.893  10.339  0.0004  0.1840  0.0010
  654ERGO    R5 9946   3.297  13.965  10.355 -0.0531  0.0258 -0.0379
  654ERGO    C1 9947   3.302  13.861   9.988  0.0972  0.0625 -0.0456
  654ERGO    C2 9948   3.455  13.866   9.793 -0.1192 -0.0800  0.0007
  655ERGO   ROH 9949   7.834   9.030  10.840 -0.1336 -0.1096  0.0005
  655ERGO    R1 9950   7.829   8.913  10.583 -0.1082 -0.0707 -0.0183
  655ERGO    R2 9951   7.624   8.959  10.402 -0.1225 -0.0925 -0.0092
  655ERGO    R3 9952   7.828   9.031  10.238 -0.1420 -0.0161  0.0004
  655ERGO    R4 9953   7.610   8.957  10.057 -0.1311 -0.0261 -0.0091
  655ERGO    R5 9954   7.813   8.878  10.054 -0.1145  0.0178 -0.0299
  655ERGO    C1 9955   7.793   9.023   9.702 -0.1543  0.0844  0.0002
  655ERGO    C2 9956   7.691   9.109   9.381  0.2658 -0.0950 -0.0444
  656ERGO   ROH 9957   3.268  14.606  10.949 -0.1802 -0.2926 -0.0623
  656ERGO    R1 9958   3.157  14.668  10.697 -0.1486 -0.2105 -0.0558
  656ERGO    R2 9959   3.262  14.864  10.531 -0.1872 -0.0880  0.0651
  656ERGO    R3 9960   3.268  14.661  10.350 -0.0700  0.0035 -0.0367
  656ERGO    R4 9961   3.219  14.902  10.191 -0.0933  0.0675  0.0691
  656ERGO    R5 9962   3.100  14.720  10.190 -0.0384  0.0314 -0.0596
  656ERGO    C1 9963   3.200  14.735   9.822  0.0714  0.2440 -0.0239
  656ERGO    C2 9964   3.270  14.640   9.480 -0.0953  0.0365 -0.0326
  657ERGO   ROH 9965  15.820   1.451  11.225 -0.1531 -0.0941  0.0836
  657ERGO    R1 9966  15.938   1.579  11.001 -0.2267  0.0800  0.1441
  657ERGO    R2 9967  16.068   1.440  10.801  0.0694  0.2679  0.2042
  657ERGO    R3 9968  15.894   1.574  10.640 -0.0450  0.0264  0.1212
  657ERGO    R4 9969  16.093   1.462  10.457  0.2541  0.3645  0.2220
  657ERGO    R5 9970  16.032   1.670  10.470 -0.0831  0.2740  0.2241
  657ERGO    C1 9971  15.945   1.600  10.106  0.2543  0.1939  0.1545
  657ERGO    C2 9972  15.953   1.633   9.886  0.0152  0.3023  0.2284
  658ERGO   ROH 9973   1.305   9.931  11.052  0.0882 -0.1210  0.0368
  658ERGO    R1 9974   1.204   9.979  10.792 -0.0321 -0.1369  0.0801
  658ERGO    R2 9975   1.329  10.146  10.612 -0.1739 -0.0611  0.0493
  658ERGO    R3 9976   1.317   9.927  10.450 -0.1388 -0.0492  0.0307
  658ERGO    R4 9977   1.319  10.156  10.266  0.0804 -0.0406  0.0404
  658ERGO    R5 9978   1.173   9.994  10.271  0.0153  0.0137 -0.0721
  658ERGO    C1 9979   1.301   9.957   9.914  0.2614 -0.0174  0.0179
  658ERGO    C2 9980   1.368   9.920   9.580 -0.1017 -0.1337  0.0755
  659ERGO   ROH 9981  15.940   6.852  10.754 -0.0995 -0.0292 -0.0281
  659ERGO    R1 9982  16.052   6.724  10.527  0.0003  0.0983 -0.0500
  659ERGO    R2 9983  15.897   6.597  10.336  0.1001  0.0516 -0.0895
  659ERGO    R3 9984  16.030   6.761  10.166  0.0123  0.1717 -0.0456
  659ERGO    R4 9985  15.883   6.578   9.992  0.3239 -0.0599 -0.0950
  659ERGO    R5 9986  16.097   6.620   9.986  0.2907  0.1936  0.0274
  659ERGO    C1 9987  16.000   6.721   9.631  0.3718 -0.0122 -0.0571
  659ERGO    C2 9988  15.957   6.720   9.284 -0.2997 -0.3047  0.0951
  660ERGO   ROH 9989   2.875   8.424  11.138  0.1383  0.3115  0.0575
  660ERGO    R1 9990   3.054   8.395  10.920  0.0118  0.2912 -0.0453
  660ERGO    R2 9991   3.041   8.183  10.744 -0.0006  0.1960  0.0698
  660ERGO    R3 9992   3.030   8.381  10.558 -0.2174  0.0979 -0.0254
  660ERGO    R4 9993   3.050   8.133  10.402  0.2629  0.0487  0.0957
  660ERGO    R5 9994   3.179   8.309  10.385 -0.0034  0.2520  0.0885
  660ERGO    C1 9995   3.045   8.290  10.028  0.2129 -0.1291  0.0215
  660ERGO    C2 9996   3.146   8.388   9.751  0.1063 -0.0306 -0.0750
  661ERGO   ROH 9997  17.376   4.926  10.938  0.1993 -0.2816 -0.0836
  661ERGO    R1 9998  17.263   4.904  10.680  0.1373 -0.2275 -0.0614
  661ERGO    R2 9999  17.250   5.118  10.504 -0.0998 -0.1333  0.0648
  661ERGO    R310000  17.378   4.945  10.337 -0.0025  0.0709 -0.0753
  661ERGO    R410001  17.249   5.140  10.159 -0.2513  0.0468  0.0758
  661ERGO    R510002  17.229   4.923  10.150 -0.0536  0.0315 -0.0297
  661ERGO    C110003  17.367   4.991   9.801 -0.2481  0.3433 -0.0494
  661ERGO    C210004  17.317   4.986   9.509  0.0681  0.0409  0.1708
  662ERGO   ROH10005   0.125  11.973  10.972  0.0825 -0.0091 -0.0429
  662ERGO    R110006   0.219  11.918  10.711  0.0453  0.0190 -0.0617
  662ERGO    R210007   0.074  11.768  10.529  0.0537 -0.0223 -0.0297
  662ERGO    R310008   0.109  11.986  10.370 -0.0428 -0.0139 -0.0412
  662ERGO    R410009   0.118  11.759  10.186  0.2049 -0.0390 -0.0113
  662ERGO    R510010   0.268  11.915  10.205  0.0830  0.0792  0.0339
  662ERGO    C110011   0.176  11.958   9.838  0.2024 -0.0408 -0.0114
  662ERGO    C210012   0.187  12.013   9.534  0.1219  0.0403  0.0068
  663ERGO   ROH10013   2.808   0.821  11.087  0.2079  0.1660 -0.1877
  663ERGO    R110014   2.679   0.745  10.847  0.2047  0.0337 -0.1441
  663ERGO    R210015   2.593   0.929  10.660  0.0070 -0.0592 -0.1408
  663ERGO    R310016   2.743   0.779  10.490  0.0804  0.0427 -0.1674
  663ERGO    R410017   2.578   0.945  10.315 -0.0482 -0.0364 -0.1377
  663ERGO    R510018   2.596   0.728  10.309  0.0830 -0.0314 -0.1545
  663ERGO    C110019   2.710   0.814   9.955 -0.0114  0.0725 -0.1608
  663ERGO    C210020   2.743   0.927   9.556 -0.1093  0.0652  0.1153
  664ERGO   ROH10021  14.833   0.429  11.056  0.0518  0.1249 -0.2104
  664ERGO    R110022  14.668   0.364  10.835 -0.0598  0.1908 -0.1475
  664ERGO    R210023  14.569   0.555  10.661  0.1415  0.2107 -0.2436
  664ERGO    R310024  14.685   0.398  10.473 -0.0712 -0.0407 -0.1712
  664ERGO    R410025  14.479   0.546  10.328  0.0435  0.0782 -0.2147
  664ERGO    R510026  14.505   0.330  10.332 -0.1812  0.0506 -0.0767
  664ERGO    C110027  14.537   0.393   9.957 -0.2131 -0.2350 -0.1298
  664ERGO    C210028  14.681   0.481   9.671  0.0766 -0.1949  0.0899
  665ERGO   ROH10029   0.977   3.030  11.106 -0.1856  0.0270 -0.0756
  665ERGO    R110030   1.057   2.901  10.867 -0.1468 -0.0364 -0.0290
  665ERGO    R210031   0.878   2.831  10.668 -0.0955  0.0496 -0.1086
  665ERGO    R310032   1.047   2.974  10.511  0.0600 -0.0558 -0.0392
  665ERGO    R410033   0.865   2.841  10.323 -0.1174  0.2736 -0.1025
  665ERGO    R510034   1.083   2.834  10.320 -0.1255  0.0158 -0.1268
  665ERGO    C110035   1.016   2.981   9.974  0.0158  0.3050 -0.0338
  665ERGO    C210036   0.861   2.878   9.684 -0.0469 -0.0734 -0.3611
  666ERGO   ROH10037  13.694  14.671  11.034  0.1085 -0.0682 -0.0003
  666ERGO    R110038  13.822  14.568  10.803  0.1175 -0.0091 -0.0229
  666ERGO    R210039  13.694  14.402  10.623  0.1488 -0.0362 -0.0276
  666ERGO    R310040  13.775  14.590  10.443  0.0714  0.0086 -0.0147
  666ERGO    R410041  13.734  14.347  10.284  0.3656 -0.0448 -0.0011
  666ERGO    R510042  13.914  14.470  10.290  0.2522  0.1137  0.0699
  666ERGO    C110043  13.834  14.491   9.918  0.4190 -0.0078  0.0266
  666ERGO    C210044  13.855  14.485   9.551  0.1920 -0.2832  0.2897
  667ERGO   ROH10045   4.589  10.866  10.938 -0.2703 -0.1123  0.0312
  667ERGO    R110046   4.682  10.788  10.682  0.0347  0.0223  0.0965
  667ERGO    R210047   4.512  10.706  10.480  0.3008 -0.2967 -0.0100
  667ERGO    R310048   4.639  10.901  10.339  0.0577 -0.0831  0.0591
  667ERGO    R410049   4.527  10.723  10.135  0.2613 -0.1364 -0.0046
  667ERGO    R510050   4.735  10.786  10.152  0.1867  0.1091  0.0060
  667ERGO    C110051   4.655  10.915   9.802  0.0100  0.1575  0.0634
  667ERGO    C210052   4.630  10.895   9.535 -0.0350  0.1877  0.0538
  668ERGO   ROH10053   6.037   0.905  11.143  0.0224  0.2068 -0.1054
  668ERGO    R110054   6.146   0.937  10.883  0.0081 -0.0710 -0.1494
  668ERGO    R210055   6.123   0.743  10.688 -0.2621 -0.1637 -0.0369
  668ERGO    R310056   6.018   0.948  10.543 -0.0540 -0.1183 -0.1264
  668ERGO    R410057   6.096   0.748  10.343 -0.2376 -0.2715 -0.0400
  668ERGO    R510058   6.154   0.958  10.346 -0.0339 -0.3281 -0.1223
  668ERGO    C110059   5.981   0.943  10.007 -0.0280 -0.2917 -0.1259
  668ERGO    C210060   5.950   0.846   9.601 -0.1469 -0.1462 -0.0042
  669ERGO   ROH10061   7.840   9.995  10.795  0.0838  0.1231 -0.0214
  669ERGO    R110062   7.757  10.179  10.597  0.0112  0.0810 -0.0319
  669ERGO    R210063   7.935  10.310  10.431 -0.0310  0.1991  0.0057
  669ERGO    R310064   7.779  10.206  10.234  0.0714  0.1043 -0.0247
  669ERGO    R410065   7.947  10.404  10.099 -0.1046  0.2737  0.0243
  669ERGO    R510066   7.730  10.392  10.092 -0.0883  0.0837  0.0108
  669ERGO    C110067   7.808  10.360   9.720 -0.0512  0.2280  0.0066
  669ERGO    C210068   7.864  10.359   9.364  0.1305 -0.1211  0.1481
  670ERGO   ROH10069  10.598   3.013  10.913  0.0983 -0.2019  0.0584
  670ERGO    R110070  10.539   3.115  10.656 -0.2714 -0.4551  0.0359
  670ERGO    R210071  10.735   3.177  10.471 -0.4769  0.1449  0.0065
  670ERGO    R310072  10.591   3.011  10.311  0.0377 -0.3835  0.0563
  670ERGO    R410073  10.774   3.149  10.129 -0.5939  0.4387 -0.0350
  670ERGO    R510074  10.558   3.136  10.110 -0.5995 -0.4056  0.1215
  670ERGO    C110075  10.662   2.976   9.780 -0.1788  0.1138 -0.0124
  670ERGO    C210076  10.718   2.991   9.449 -0.1581 -0.1076  0.3321
  671ERGO   ROH10077   0.941   8.379  10.973 -0.0311 -0.1564 -0.1266
  671ERGO    R110078   0.768   8.415  10.751 -0.0132 -0.1332 -0.1374
  671ERGO    R210079   0.823   8.592  10.547 -0.0440 -0.0385 -0.0672
  671ERGO    R310080   0.789   8.372  10.390  0.0519  0.0048 -0.1495
  671ERGO    R410081   0.753   8.599  10.208 -0.2780  0.0546 -0.0183
  671ERGO    R510082   0.614   8.433  10.239 -0.1056 -0.0847 -0.0033
  671ERGO    C110083   0.680   8.397   9.865 -0.3243  0.1495 -0.0670
  671ERGO    C210084   0.664   8.295   9.510 -0.4036 -0.3175 -0.0012
  672ERGO   ROH10085   3.148   1.871  11.033  0.0797  0.0066 -0.0707
  672ERGO    R110086   3.062   1.783  10.778 -0.1266  0.0541 -0.0204
  672ERGO    R210087   2.917   1.943  10.606  0.0899  0.2367 -0.0441
  672ERGO    R310088   3.116   1.882  10.432 -0.0435 -0.1521 -0.0669
  672ERGO    R410089   2.903   1.994  10.265  0.0414 -0.0219 -0.0816
  672ERGO    R510090   3.002   1.802  10.237 -0.2073 -0.1682  0.0364
  672ERGO    C110091   3.083   1.966   9.902 -0.1120 -0.5374 -0.1249
  672ERGO    C210092   3.072   2.019   9.471  0.0818 -0.2368  0.0618
  673ERGO   ROH10093   6.193  16.966  11.134 -0.1427 -0.1162  0.1065
  673ERGO    R110094   6.048  17.018  10.897 -0.0456 -0.0595  0.0586
  673ERGO    R210095   6.160  17.149  10.680  0.0762 -0.1015  0.0931
  673ERGO    R310096   6.077  16.929  10.545  0.0353 -0.0700  0.0678
  673ERGO    R410097   6.065  17.146  10.348 -0.0244 -0.0232  0.1212
  673ERGO    R510098   5.904  17.009  10.401 -0.0083 -0.0357  0.1390
  673ERGO    C110099   5.932  16.937  10.027 -0.1213  0.0519  0.1139
  673ERGO    C210100   6.050  17.006   9.655 -0.2470  0.0019  0.2020
  674loPI    C110101  11.115  12.450   5.492 -0.0371  0.1699  0.1503
  674loPI    C210102  10.797  12.684   5.428 -0.0072  0.1493 -0.0799
  674loPI    C310103  10.754  12.287   5.439  0.0244  0.1419 -0.2042
  674loPI   PO410104  11.239  12.567   5.700 -0.0578 -0.2855 -0.0631
  674loPI   GL110105  11.279  12.545   6.120 -0.1154 -0.2951  0.1026
  674loPI   GL210106  11.565  12.259   6.300  0.0066  0.1007 -0.1665
  674loPI   C1A10107  11.169  12.430   6.542 -0.1013  0.2448  0.0007
  674loPI   C2A10108  11.147  12.230   6.970  0.1533  0.2525  0.0090
  674loPI   C3A10109  11.079  12.353   7.388 -0.0147  0.2866  0.1018
  674loPI   C4A10110  11.111  12.324   7.842 -0.1234  0.0848  0.0637
  674loPI   C5A10111  11.040  12.300   8.201 -0.0491  0.1022  0.1632
  674loPI   C6A10112  11.355  12.116   8.499 -0.2091  0.0377  0.0520
  674loPI   C1B10113  11.728  12.376   6.684  0.1983  0.0214 -0.2363
  674loPI   C2B10114  11.656  12.327   7.181  0.0450  0.0284 -0.1980
  674loPI   C3B10115  11.537  12.386   7.601  0.0213  0.1527 -0.0853
  674loPI   C4B10116  11.586  12.391   8.020 -0.1302  0.3111 -0.0127
  675loPI    C110117  14.501   6.831   5.689  0.0582  0.1526  0.0481
  675loPI    C210118  14.256   6.664   5.420  0.0418 -0.1935  0.2721
  675loPI    C310119  14.644   6.566   5.425  0.2243  0.4462 -0.1623
  675loPI   PO410120  14.301   6.851   5.887 -0.3126  0.0088  0.0457
  675loPI   GL110121  14.106   6.630   6.204  0.0283 -0.0544 -0.0951
  675loPI   GL210122  14.095   6.343   6.275  0.2603  0.0262  0.1922
  675loPI   C1A10123  13.905   6.885   6.492 -0.0223 -0.0806 -0.0322
  675loPI   C2A10124  13.925   6.917   6.936 -0.0362 -0.3670  0.2051
  675loPI   C3A10125  13.957   6.870   7.338 -0.2779  0.0755  0.4416
  675loPI   C4A10126  13.923   6.887   7.771  0.0325 -0.1164  0.0843
  675loPI   C5A10127  13.852   6.739   8.121  0.2183  0.1867 -0.0560
  675loPI   C6A10128  13.750   6.778   8.640 -0.0986  0.0368  0.0458
  675loPI   C1B10129  14.179   6.499   6.738 -0.1767  0.0020 -0.2523
  675loPI   C2B10130  14.261   6.439   7.110  0.0413 -0.0313 -0.0635
  675loPI   C3B10131  14.196   6.479   7.553  0.0061 -0.1484 -0.0049
  675loPI   C4B10132  14.265   6.471   8.042 -0.2879 -0.0458  0.0581
  676loPI    C110133   1.643   3.975   5.842  0.0718 -0.0710 -0.0493
  676loPI    C210134   1.369   4.254   5.758  0.0637  0.0089  0.2323
  676loPI    C310135   1.400   3.929   5.527 -0.0270  0.1697 -0.0108
  676loPI   PO410136   1.719   4.011   6.161  0.0658 -0.1700  0.2998
  676loPI   GL110137   1.778   3.895   6.491 -0.0247  0.0384  0.1807
  676loPI   GL210138   1.942   4.219   6.557 -0.3027 -0.2961 -0.1202
  676loPI   C1A10139   1.660   3.859   6.902 -0.0464  0.1375 -0.0070
  676loPI   C2A10140   1.510   3.800   7.242  0.2428  0.1290  0.3608
  676loPI   C3A10141   1.487   3.854   7.653  0.1531 -0.1009 -0.2482
  676loPI   C4A10142   1.612   3.855   8.126 -0.2295  0.0900  0.1438
  676loPI   C5A10143   1.746   3.825   8.553  0.1100  0.0283 -0.1786
  676loPI   C6A10144   1.742   3.957   8.999 -0.1398  0.0390  0.0576
  676loPI   C1B10145   1.813   4.303   7.014 -0.1642 -0.2128 -0.1630
  676loPI   C2B10146   1.802   4.267   7.469 -0.1825 -0.3069  0.3303
  676loPI   C3B10147   1.865   4.275   7.889  0.0279 -0.2686  0.0848
  676loPI   C4B10148   1.976   4.264   8.385 -0.0831 -0.1911  0.2351
  677loPI    C110149   0.613   4.090   5.985 -0.2301  0.0526  0.0350
  677loPI    C210150   0.902   4.360   5.922 -0.2194  0.0295 -0.0156
  677loPI    C310151   0.776   4.128   5.621 -0.1445 -0.1051  0.0561
  677loPI   PO410152   0.647   3.943   6.142 -0.1303 -0.0546  0.3360
  677loPI   GL110153   0.576   3.644   6.530  0.2010 -0.1289  0.0890
  677loPI   GL210154   0.720   3.402   6.752  0.0622  0.1572  0.0922
  677loPI   C1A10155   0.481   3.905   6.811 -0.2026  0.0392 -0.0021
  677loPI   C2A10156   0.386   3.909   7.205  0.0953  0.2408  0.0287
  677loPI   C3A10157   0.465   3.851   7.577  0.0977  0.0771 -0.1197
  677loPI   C4A10158   0.504   3.881   7.979 -0.4255 -0.2186  0.2581
  677loPI   C5A10159   0.591   3.826   8.395  0.0906  0.2509  0.2100
  677loPI   C6A10160   0.312   3.728   8.741 -0.0291 -0.2400  0.1201
  677loPI   C1B10161   0.758   3.361   7.150 -0.3481 -0.0609 -0.1167
  677loPI   C2B10162   0.726   3.396   7.551 -0.0324 -0.2767  0.0489
  677loPI   C3B10163   0.764   3.500   8.093  0.2410  0.2165  0.0654
  677loPI   C4B10164   0.597   3.344   8.534  0.0150 -0.2106  0.0734
  678loPI    C110165   1.558  13.154   6.326  0.2236  0.0456 -0.0937
  678loPI    C210166   1.267  12.899   6.226  0.0302  0.2535 -0.0675
  678loPI    C310167   1.636  12.847   6.081  0.0405 -0.1520  0.0918
  678loPI   PO410168   1.594  13.158   6.499  0.0548  0.0898  0.2712
  678loPI   GL110169   1.779  13.041   6.792 -0.1393  0.0788  0.0080
  678loPI   GL210170   1.952  12.799   6.847  0.3209 -0.1889 -0.2095
  678loPI   C1A10171   1.721  13.202   7.203 -0.0804 -0.0609  0.0221
  678loPI   C2A10172   1.746  13.147   7.624 -0.0016  0.1314 -0.0652
  678loPI   C3A10173   1.766  13.055   8.061  0.1383  0.0747 -0.1762
  678loPI   C4A10174   1.659  13.020   8.526  0.0700  0.2562  0.2905
  678loPI   C5A10175   1.777  12.780   8.941  0.1260 -0.1329 -0.1417
  678loPI   C6A10176   1.972  12.867   9.291 -0.1706  0.1635 -0.1414
  678loPI   C1B10177   2.120  12.773   7.165  0.0385 -0.3061 -0.0632
  678loPI   C2B10178   2.082  12.684   7.631  0.2413 -0.1149  0.0927
  678loPI   C3B10179   2.101  12.716   8.094  0.0328 -0.4489  0.1729
  678loPI   C4B10180   2.012  12.405   8.501  0.0964  0.1909  0.0494
  679loPI    C110181   8.361   0.352   5.638  0.1105  0.1320  0.0245
  679loPI    C210182   8.103   0.051   5.590  0.1616  0.0801  0.0730
  679loPI    C310183   8.483   0.007   5.476  0.1133  0.2110 -0.1432
  679loPI   PO410184   8.269   0.472   5.832 -0.0939  0.3094 -0.1161
  679loPI   GL110185   8.282   0.754   6.116 -0.1456  0.0050 -0.0110
  679loPI   GL210186   8.505   0.432   6.251 -0.0367 -0.2327 -0.1711
  679loPI   C1A10187   8.270   0.759   6.537 -0.1062 -0.0920  0.2547
  679loPI   C2A10188   8.210   0.847   6.961 -0.1258  0.0782  0.1750
  679loPI   C3A10189   8.132   0.871   7.326 -0.0863  0.0217  0.2292
  679loPI   C4A10190   8.127   0.817   7.731  0.2902  0.4275 -0.2278
  679loPI   C5A10191   8.065   0.856   8.139 -0.1149 -0.0490  0.3652
  679loPI   C6A10192   7.825   0.787   8.414  0.2411 -0.1814  0.1584
  679loPI   C1B10193   8.342   0.263   6.622  0.3636  0.1669  0.0654
  679loPI   C2B10194   8.388   0.373   7.056  0.1709  0.2583 -0.1095
  679loPI   C3B10195   8.346   0.377   7.449  0.5033  0.0633  0.0008
  679loPI   C4B10196   8.330   0.397   7.947 -0.1519  0.2231 -0.3188
  680loPI    C110197  14.068   7.319   5.702  0.2355 -0.1527 -0.1275
  680loPI    C210198  14.069   7.538   5.368 -0.0980 -0.1982 -0.1614
  680loPI    C310199  14.288   7.205   5.388  0.2209  0.0051 -0.1961
  680loPI   PO410200  13.869   7.279   5.788 -0.2956  0.1433  0.2305
  680loPI   GL110201  13.865   7.228   6.164 -0.1146 -0.1224  0.0617
  680loPI   GL210202  13.992   7.561   6.291  0.0252 -0.1620 -0.0697
  680loPI   C1A10203  14.103   7.315   6.702  0.1564 -0.1102 -0.1717
  680loPI   C2A10204  14.186   7.345   7.144  0.2412 -0.2072  0.0689
  680loPI   C3A10205  14.154   7.303   7.513  0.1530 -0.0587  0.2856
  680loPI   C4A10206  14.179   7.348   7.842 -0.2292  0.1861  0.1207
  680loPI   C5A10207  14.077   7.297   8.216  0.2131 -0.0779 -0.2637
  680loPI   C6A10208  14.186   6.921   8.458  0.0165  0.0593  0.0273
  680loPI   C1B10209  13.669   7.399   6.623  0.3091 -0.1117 -0.0093
  680loPI   C2B10210  13.661   7.375   7.052 -0.1289 -0.1180 -0.0365
  680loPI   C3B10211  13.677   7.249   7.414  0.0745 -0.0206 -0.0959
  680loPI   C4B10212  13.604   7.307   7.978  0.0004  0.1044 -0.0681
  681loPI    C110213   5.053  13.983   6.042  0.0577  0.0774 -0.1381
  681loPI    C210214   5.401  13.807   5.954 -0.0605 -0.1632 -0.1324
  681loPI    C310215   5.057  13.617   5.880 -0.1900  0.0535 -0.0941
  681loPI   PO410216   5.129  14.133   6.281  0.0104  0.0426 -0.0177
  681loPI   GL110217   5.033  13.926   6.606 -0.0776 -0.0919 -0.1772
  681loPI   GL210218   4.830  14.085   6.764  0.2554 -0.0582 -0.1342
  681loPI   C1A10219   5.087  13.707   6.998  0.2216 -0.2516 -0.1922
  681loPI   C2A10220   5.119  13.733   7.419  0.1066 -0.1710 -0.2765
  681loPI   C3A10221   5.169  13.759   7.852 -0.4322  0.0926 -0.1071
  681loPI   C4A10222   5.033  13.738   8.227 -0.0958 -0.0077 -0.2299
  681loPI   C5A10223   4.905  13.488   8.624 -0.1163  0.4448 -0.1477
  681loPI   C6A10224   4.685  13.090   8.919 -0.1524  0.0373  0.2276
  681loPI   C1B10225   4.898  14.143   7.224 -0.1434 -0.1138  0.1093
  681loPI   C2B10226   4.828  14.141   7.654 -0.3623 -0.1111  0.0794
  681loPI   C3B10227   4.852  14.187   8.020 -0.0210 -0.0618  0.2123
  681loPI   C4B10228   4.824  14.156   8.423 -0.0709 -0.1116 -0.1592
  682loPI    C110229   4.807   8.638   5.930  0.1500  0.0346 -0.1599
  682loPI    C210230   4.438   8.765   6.017  0.2020  0.0081  0.1065
  682loPI    C310231   4.654   8.956   5.741 -0.0309 -0.0109 -0.0925
  682loPI   PO410232   4.895   8.645   6.131 -0.2814  0.1290  0.0612
  682loPI   GL110233   4.574   8.535   6.489  0.3572 -0.0927 -0.1118
  682loPI   GL210234   4.310   8.621   6.532 -0.0186  0.2709  0.0716
  682loPI   C1A10235   4.737   8.862   6.788  0.0121 -0.0531  0.0262
  682loPI   C2A10236   4.750   8.867   7.205 -0.1581  0.1417 -0.0845
  682loPI   C3A10237   4.729   8.872   7.643  0.2425  0.1357  0.0880
  682loPI   C4A10238   4.760   8.883   8.040  0.0286  0.2902 -0.0649
  682loPI   C5A10239   4.795   8.886   8.433 -0.2283 -0.1092  0.0556
  682loPI   C6A10240   4.662   9.062   8.865 -0.1655  0.2205  0.2270
  682loPI   C1B10241   4.268   8.745   6.962  0.0168 -0.0641  0.2348
  682loPI   C2B10242   4.292   8.812   7.351  0.1159  0.0432  0.0439
  682loPI   C3B10243   4.221   8.849   7.812 -0.1766  0.1711  0.2283
  682loPI   C4B10244   4.288   8.914   8.315  0.1468 -0.0949 -0.1002
  683loPI    C110245   9.778   1.093   5.682  0.0663  0.1042  0.0162
  683loPI    C210246   9.841   1.391   5.423  0.2938  0.0854  0.0479
  683loPI    C310247   9.805   1.015   5.290  0.0515  0.1193  0.0121
  683loPI   PO410248   9.959   1.169   5.865  0.1869  0.0076  0.0315
  683loPI   GL110249   9.879   1.096   6.320 -0.0285 -0.1032 -0.0185
  683loPI   GL210250  10.215   1.197   6.311 -0.2649 -0.0520  0.0917
  683loPI   C1A10251   9.948   1.235   6.817 -0.1719  0.0329  0.0095
  683loPI   C2A10252   9.961   1.223   7.296 -0.0703 -0.1733  0.2654
  683loPI   C3A10253   9.881   1.237   7.623 -0.0015  0.0294 -0.3003
  683loPI   C4A10254   9.793   1.486   7.968 -0.0514 -0.3037 -0.2536
  683loPI   C5A10255   9.479   1.785   8.164 -0.2215 -0.1789  0.1716
  683loPI   C6A10256   9.055   1.788   8.349  0.0559 -0.3431 -0.2816
  683loPI   C1B10257  10.413   1.151   6.633 -0.1210 -0.1291  0.2242
  683loPI   C2B10258  10.478   1.220   7.027 -0.2465  0.1289 -0.3205
  683loPI   C3B10259  10.491   1.277   7.376  0.2608 -0.3623 -0.1501
  683loPI   C4B10260  10.343   1.295   7.832  0.2233  0.1206  0.0564
  684loPI    C110261   6.068   3.332   5.851 -0.1680 -0.3016  0.2735
  684loPI    C210262   6.460   3.258   5.870 -0.0543  0.1871 -0.0043
  684loPI    C310263   6.232   3.059   5.608  0.0609  0.1097 -0.0470
  684loPI   PO410264   6.110   3.624   5.956  0.1553  0.0070  0.3991
  684loPI   GL110265   5.936   3.852   6.223  0.0161 -0.0439  0.1216
  684loPI   GL210266   5.667   4.048   6.253 -0.3481 -0.1563  0.0673
  684loPI   C1A10267   6.240   3.986   6.482 -0.1880 -0.0633  0.1999
  684loPI   C2A10268   6.317   4.072   6.918  0.1095  0.0046 -0.0648
  684loPI   C3A10269   6.324   4.067   7.391  0.1128  0.2898 -0.1669
  684loPI   C4A10270   6.240   4.029   7.819 -0.1553 -0.1719  0.1807
  684loPI   C5A10271   6.274   3.888   8.232 -0.0788  0.1024  0.0952
  684loPI   C6A10272   6.378   3.549   8.494 -0.2982 -0.2658  0.1423
  684loPI   C1B10273   5.809   4.059   6.691  0.0896  0.1057 -0.0629
  684loPI   C2B10274   5.792   3.995   7.094 -0.1607  0.1940 -0.2113
  684loPI   C3B10275   5.782   3.969   7.515 -0.0889 -0.2120 -0.1176
  684loPI   C4B10276   5.762   4.005   7.934 -0.0772 -0.0397 -0.0365
  685loPI    C110277  12.724  15.577   5.671 -0.0278 -0.0660  0.0437
  685loPI    C210278  13.055  15.448   5.487 -0.0440  0.1805 -0.1642
  685loPI    C310279  12.704  15.442   5.295 -0.1549 -0.0393  0.0405
  685loPI   PO410280  12.756  15.484   5.888 -0.2169  0.3322 -0.0850
  685loPI   GL110281  12.934  15.381   6.277 -0.1405  0.1780 -0.0038
  685loPI   GL210282  13.208  15.524   6.425 -0.0795  0.1364  0.1564
  685loPI   C1A10283  12.818  15.566   6.668 -0.0652 -0.0156 -0.2342
  685loPI   C2A10284  12.833  15.615   7.089  0.2710 -0.0951  0.2918
  685loPI   C3A10285  12.907  15.722   7.384 -0.2278 -0.0937  0.5234
  685loPI   C4A10286  12.904  15.659   7.815 -0.0786  0.2292 -0.1211
  685loPI   C5A10287  12.945  15.673   8.276 -0.0549  0.0314  0.0664
  685loPI   C6A10288  12.945  15.832   8.706 -0.1375 -0.0060 -0.0180
  685loPI   C1B10289  13.273  15.643   6.838 -0.1635 -0.0943 -0.4645
  685loPI   C2B10290  13.355  15.598   7.212  0.0330  0.0335  0.1039
  685loPI   C3B10291  13.391  15.644   7.647  0.0933 -0.5034 -0.1601
  685loPI   C4B10292  13.397  15.722   8.034 -0.0213  0.0642 -0.3291
  686loPI    C110293   6.902   5.869   5.595 -0.1266  0.2405  0.2108
  686loPI    C210294   7.193   6.061   5.399 -0.1689  0.0393 -0.0561
  686loPI    C310295   6.861   5.950   5.205 -0.1842 -0.2211  0.1151
  686loPI   PO410296   6.826   5.956   5.860 -0.0413  0.2208  0.0153
  686loPI   GL110297   6.849   6.017   6.332  0.3058 -0.1771  0.0195
  686loPI   GL210298   7.153   5.835   6.413 -0.3802 -0.1026 -0.2675
  686loPI   C1A10299   6.951   6.231   6.861 -0.1775  0.0584 -0.2245
  686loPI   C2A10300   6.948   6.184   7.309  0.0302  0.1273 -0.1843
  686loPI   C3A10301   6.889   6.235   7.767 -0.0184  0.0945  0.2065
  686loPI   C4A10302   6.882   6.350   8.194  0.0553  0.0713  0.0486
  686loPI   C5A10303   7.037   6.416   8.643  0.0015  0.2004  0.2891
  686loPI   C6A10304   7.023   6.739   9.003  0.0380  0.2205  0.1129
  686loPI   C1B10305   7.239   5.823   6.778  0.1274 -0.1938 -0.0764
  686loPI   C2B10306   7.225   5.782   7.210  0.2376 -0.1026 -0.1799
  686loPI   C3B10307   7.209   5.782   7.609 -0.0777 -0.0995 -0.2553
  686loPI   C4B10308   7.204   5.856   8.050 -0.1824  0.1132 -0.0023
  687loPI    C110309   7.375  16.853   5.900 -0.0553 -0.0314  0.0144
  687loPI    C210310   7.184  16.592   5.665  0.0436  0.0517 -0.1600
  687loPI    C310311   7.584  16.587   5.687  0.0213 -0.2228  0.3216
  687loPI   PO410312   7.313  16.823   6.164 -0.2123  0.0743  0.1920
  687loPI   GL110313   7.415  16.707   6.585  0.0758 -0.1888  0.1507
  687loPI   GL210314   7.291  16.437   6.521  0.0293 -0.1003  0.1977
  687loPI   C1A10315   7.424  16.824   6.895  0.1591  0.1736 -0.1786
  687loPI   C2A10316   7.329  16.846   7.168 -0.0626 -0.1929 -0.0895
  687loPI   C3A10317   7.303  16.880   7.618 -0.3396 -0.3463 -0.1429
  687loPI   C4A10318   7.313  16.881   8.081  0.1020  0.1170 -0.0303
  687loPI   C5A10319   7.230  16.948   8.547  0.0008 -0.1888 -0.1077
  687loPI   C6A10320   7.041  16.900   8.875  0.4329 -0.0819 -0.0317
  687loPI   C1B10321   7.240  16.379   6.967 -0.0778  0.1237 -0.3557
  687loPI   C2B10322   7.143  16.445   7.477 -0.2697  0.0110  0.1882
  687loPI   C3B10323   7.107  16.407   7.952 -0.1080  0.2115  0.3157
  687loPI   C4B10324   7.130  16.466   8.381  0.0290 -0.0831 -0.1200
  688loPI    C110325  16.324   3.801   6.076  0.0475 -0.2677  0.0499
  688loPI    C210326  16.050   3.811   5.785 -0.0213  0.2853  0.1211
  688loPI    C310327  16.411   3.653   5.715 -0.2367 -0.1387 -0.0748
  688loPI   PO410328  16.200   3.732   6.283 -0.1078 -0.0628 -0.0987
  688loPI   GL110329  16.355   3.576   6.615  0.1693  0.1512 -0.1248
  688loPI   GL210330  16.331   3.841   6.799 -0.0978  0.0040  0.4283
  688loPI   C1A10331  16.110   3.382   6.962 -0.4843  0.1007 -0.0969
  688loPI   C2A10332  16.163   3.292   7.455 -0.1842 -0.2196  0.1135
  688loPI   C3A10333  16.142   3.271   7.992 -0.0410 -0.1151  0.0077
  688loPI   C4A10334  16.053   3.235   8.367 -0.0782 -0.0158  0.0344
  688loPI   C5A10335  16.038   3.294   8.733  0.3438 -0.4877 -0.0407
  688loPI   C6A10336  16.059   2.971   9.044 -0.1907 -0.3220  0.3764
  688loPI   C1B10337  16.389   3.796   7.219 -0.3061 -0.2269  0.3104
  688loPI   C2B10338  16.314   3.805   7.653 -0.0337  0.2957 -0.1418
  688loPI   C3B10339  16.326   3.721   8.040 -0.1322 -0.1462  0.2751
  688loPI   C4B10340  16.409   3.727   8.462 -0.1199  0.2642 -0.2396
  689loPI    C110341   0.225  12.410   6.042  0.0078 -0.1777 -0.1893
  689loPI    C210342   0.318  12.659   5.743 -0.0953  0.2225  0.1033
  689loPI    C310343  -0.062  12.621   5.861 -0.0850 -0.1037  0.0410
  689loPI   PO410344   0.405  12.476   6.249  0.1283  0.1790  0.0657
  689loPI   GL110345   0.287  12.588   6.627  0.3663  0.2371  0.0549
  689loPI   GL210346   0.613  12.598   6.743 -0.1577  0.0104 -0.0422
  689loPI   C1A10347  -0.013  12.548   6.942 -0.4770 -0.0175  0.0128
  689loPI   C2A10348   0.012  12.520   7.368 -0.1632 -0.1460  0.1196
  689loPI   C3A10349  -0.003  12.459   7.746 -0.2229  0.0648  0.0409
  689loPI   C4A10350  -0.115  12.487   8.287  0.4138  0.0034  0.0760
  689loPI   C5A10351  -0.170  12.346   8.741  0.1048 -0.0057 -0.2790
  689loPI   C6A10352  -0.330  12.507   9.194 -0.0914  0.1231 -0.1108
  689loPI   C1B10353   0.474  12.617   7.127  0.1963 -0.0030 -0.2600
  689loPI   C2B10354   0.567  12.595   7.512  0.1396  0.2124 -0.0702
  689loPI   C3B10355   0.534  12.485   7.912  0.0463 -0.3654 -0.1795
  689loPI   C4B10356   0.455  12.442   8.334 -0.2611  0.1187 -0.3622
  690loPI    C110357  11.755   8.959   5.609 -0.1085  0.0959  0.0665
  690loPI    C210358  11.457   8.834   5.373  0.1056 -0.2012 -0.0528
  690loPI    C310359  11.782   9.003   5.212  0.0532  0.0179  0.0680
  690loPI   PO410360  11.599   9.025   5.846  0.4410 -0.2629  0.3234
  690loPI   GL110361  11.400   8.795   6.258  0.1220 -0.1415  0.0264
  690loPI   GL210362  11.347   8.630   6.492  0.2508  0.3934  0.0570
  690loPI   C1A10363  11.543   9.061   6.649 -0.1565 -0.1471  0.0771
  690loPI   C2A10364  11.506   9.096   7.035 -0.0502  0.0567  0.2919
  690loPI   C3A10365  11.601   9.144   7.491 -0.1449 -0.0954 -0.1148
  690loPI   C4A10366  11.400   9.171   7.912 -0.0941 -0.0080 -0.3862
  690loPI   C5A10367  11.396   9.239   8.332  0.0928  0.1068 -0.1669
  690loPI   C6A10368  11.396   9.411   8.741 -0.1154  0.2676 -0.1122
  690loPI   C1B10369  11.293   8.660   6.898 -0.3423  0.3539  0.1933
  690loPI   C2B10370  11.253   8.697   7.254  0.0810 -0.1870 -0.0219
  690loPI   C3B10371  11.322   8.663   7.712  0.0335 -0.2132  0.0221
  690loPI   C4B10372  11.197   8.751   8.093 -0.0565 -0.0514  0.1545
  691loPI    C110373   3.440   4.905   5.925  0.1445  0.0899 -0.1247
  691loPI    C210374   3.257   4.554   5.983 -0.1530  0.2206 -0.2500
  691loPI    C310375   3.430   4.633   5.631  0.2182  0.0679 -0.1071
  691loPI   PO410376   3.338   5.022   6.162  0.1597  0.0661 -0.0709
  691loPI   GL110377   3.243   5.250   6.468  0.1541 -0.2198 -0.0166
  691loPI   GL210378   3.516   5.272   6.540 -0.0506 -0.1702  0.0350
  691loPI   C1A10379   2.879   5.156   6.654 -0.1858  0.1460 -0.0644
  691loPI   C2A10380   2.852   5.247   7.084  0.0142  0.0136 -0.2897
  691loPI   C3A10381   2.776   5.202   7.521  0.3077 -0.1902 -0.1025
  691loPI   C4A10382   2.840   5.151   7.909  0.0549 -0.0447 -0.0441
  691loPI   C5A10383   2.712   5.304   8.316 -0.0700 -0.0770  0.1924
  691loPI   C6A10384   2.463   5.078   8.624 -0.0212 -0.0407 -0.2184
  691loPI   C1B10385   3.362   5.299   7.019  0.1999  0.1713  0.0328
  691loPI   C2B10386   3.490   5.276   7.447 -0.0262  0.0176 -0.1108
  691loPI   C3B10387   3.333   5.214   7.874 -0.2217 -0.1228  0.1007
  691loPI   C4B10388   3.180   5.132   8.314  0.1539 -0.1188  0.1106
  692loPI    C110389  15.875   4.524   6.022 -0.2626  0.0106  0.0861
  692loPI    C210390  15.763   4.247   5.757 -0.2204  0.0207  0.0575
  692loPI    C310391  15.952   4.577   5.633 -0.0481 -0.0545  0.1185
  692loPI   PO410392  15.641   4.538   6.152 -0.0029 -0.0857  0.1689
  692loPI   GL110393  15.600   4.471   6.637 -0.2157  0.1304  0.3372
  692loPI   GL210394  15.705   4.192   6.671 -0.3590  0.0612 -0.1987
  692loPI   C1A10395  15.802   4.710   6.949 -0.0765  0.0194 -0.1538
  692loPI   C2A10396  15.857   4.695   7.432  0.0879  0.1408 -0.1185
  692loPI   C3A10397  15.762   4.610   7.868  0.0468  0.1568 -0.2011
  692loPI   C4A10398  15.737   4.594   8.287  0.2061 -0.2247  0.1680
  692loPI   C5A10399  16.022   4.590   8.579 -0.3393  0.2656  0.1749
  692loPI   C6A10400  16.469   4.634   8.602  0.2217 -0.2659  0.3457
  692loPI   C1B10401  15.594   4.247   7.140  0.1637  0.2270  0.1935
  692loPI   C2B10402  15.576   4.198   7.665  0.0339  0.0410 -0.1218
  692loPI   C3B10403  15.417   4.206   8.145 -0.0814 -0.0843  0.2072
  692loPI   C4B10404  15.523   4.133   8.553  0.0577 -0.1856 -0.2036
  693loPI    C110405  12.823  16.697   5.558  0.1762  0.0041 -0.0738
  693loPI    C210406  12.540  16.716   5.276 -0.1355 -0.1108  0.2252
  693loPI    C310407  12.656  17.048   5.466 -0.0360 -0.0570  0.0723
  693loPI   PO410408  12.733  16.443   5.746 -0.1428  0.1939  0.4146
  693loPI   GL110409  12.836  16.412   6.259  0.0637  0.1492  0.0729
  693loPI   GL210410  12.937  16.801   6.306 -0.0017  0.1139 -0.2481
  693loPI   C1A10411  12.556  16.166   6.475 -0.2430 -0.0130 -0.1531
  693loPI   C2A10412  12.524  15.942   6.803 -0.0335 -0.2106 -0.4126
  693loPI   C3A10413  12.589  16.061   7.225 -0.0052 -0.1894  0.2317
  693loPI   C4A10414  12.601  16.128   7.667 -0.1010 -0.1893 -0.0239
  693loPI   C5A10415  12.665  16.040   8.049  0.1688  0.0456  0.2049
  693loPI   C6A10416  12.464  15.594   8.355 -0.0136  0.1016  0.2588
  693loPI   C1B10417  12.796  16.598   6.707  0.2388 -0.1779  0.3274
  693loPI   C2B10418  12.813  16.484   7.129  0.1080  0.2070 -0.1318
  693loPI   C3B10419  12.852  16.603   7.491 -0.0667  0.0703 -0.0371
  693loPI   C4B10420  12.839  16.519   7.947 -0.1790  0.0313 -0.1497
  694loPI    C110421  13.247   5.227   5.887 -0.0420 -0.1870  0.0847
  694loPI    C210422  13.185   4.873   5.713 -0.3452 -0.0863 -0.0193
  694loPI    C310423  13.144   5.209   5.501 -0.2139  0.0184  0.1192
  694loPI   PO410424  13.410   5.232   6.065  0.0667 -0.2488 -0.1382
  694loPI   GL110425  13.441   5.238   6.563  0.1151  0.1752  0.1493
  694loPI   GL210426  13.221   5.500   6.703 -0.0423  0.1115  0.0877
  694loPI   C1A10427  13.423   5.123   6.948  0.3962  0.0032 -0.0644
  694loPI   C2A10428  13.455   5.102   7.371 -0.1836 -0.0611  0.0097
  694loPI   C3A10429  13.496   5.118   7.768 -0.0591  0.2093  0.1705
  694loPI   C4A10430  13.472   5.167   8.181  0.1493 -0.1226  0.2348
  694loPI   C5A10431  13.633   5.269   8.523  0.2560 -0.3125 -0.0194
  694loPI   C6A10432  13.546   5.559   8.856  0.0369 -0.1620 -0.0503
  694loPI   C1B10433  13.195   5.479   7.131  0.0176  0.0568 -0.0261
  694loPI   C2B10434  13.189   5.503   7.428  0.3485 -0.2644  0.0584
  694loPI   C3B10435  13.165   5.564   7.884 -0.0810 -0.0032  0.0771
  694loPI   C4B10436  13.157   5.501   8.410  0.0811  0.1930 -0.2701
  695loPI    C110437  14.560  15.134   5.648 -0.0123 -0.0912  0.0616
  695loPI    C210438  14.752  15.366   5.385 -0.1773  0.1803  0.1765
  695loPI    C310439  14.860  14.983   5.429 -0.0294  0.1798 -0.1540
  695loPI   PO410440  14.532  15.312   5.957  0.1955  0.0704 -0.1123
  695loPI   GL110441  14.491  15.283   6.348  0.2134 -0.3760  0.0574
  695loPI   GL210442  14.697  15.077   6.458  0.0292  0.1255  0.0346
  695loPI   C1A10443  14.610  15.607   6.703  0.2249 -0.1023  0.0404
  695loPI   C2A10444  14.453  15.669   7.090  0.3418  0.0033  0.2387
  695loPI   C3A10445  14.516  15.727   7.561 -0.1148 -0.0143 -0.0120
  695loPI   C4A10446  14.432  15.691   8.011  0.3944 -0.2010 -0.1380
  695loPI   C5A10447  14.364  15.816   8.457 -0.1344  0.0466  0.0564
  695loPI   C6A10448  14.194  16.169   8.631  0.1742  0.1579  0.2363
  695loPI   C1B10449  14.700  15.146   6.878  0.2600  0.0013  0.1767
  695loPI   C2B10450  14.737  15.255   7.277  0.3045  0.3271 -0.0457
  695loPI   C3B10451  14.727  15.213   7.653  0.0365  0.2630  0.2321
  695loPI   C4B10452  14.762  15.188   8.048 -0.1373 -0.0156 -0.0480
  696loPI    C110453   0.716   9.396   5.826 -0.1002 -0.1529 -0.1082
  696loPI    C210454   0.427   9.330   5.558 -0.1649  0.0834 -0.0993
  696loPI    C310455   0.764   9.515   5.447 -0.1335  0.0573 -0.0479
  696loPI   PO410456   0.596   9.392   6.102 -0.2346 -0.3330  0.1094
  696loPI   GL110457   0.824   9.405   6.373 -0.1941  0.0545  0.0303
  696loPI   GL210458   0.668   9.642   6.595  0.1624 -0.0773  0.2179
  696loPI   C1A10459   0.863   9.224   6.873 -0.1622  0.3390 -0.0702
  696loPI   C2A10460   0.889   9.305   7.406  0.1115 -0.1040  0.4342
  696loPI   C3A10461   0.817   9.321   7.803  0.1665 -0.0573 -0.1020
  696loPI   C4A10462   0.765   9.337   8.181 -0.1642  0.0383 -0.0371
  696loPI   C5A10463   0.714   9.409   8.648 -0.2548 -0.2773 -0.0828
  696loPI   C6A10464   0.320   9.395   8.901  0.0884 -0.2169  0.0696
  696loPI   C1B10465   0.583   9.742   7.067 -0.0811  0.1552  0.3146
  696loPI   C2B10466   0.691   9.789   7.489 -0.1180 -0.2155  0.0468
  696loPI   C3B10467   0.478   9.703   7.947  0.0748  0.2472  0.1339
  696loPI   C4B10468   0.459   9.830   8.492  0.0174  0.2545 -0.1411
  697loPI    C110469   4.737   9.828   5.848  0.0912 -0.0285  0.1600
  697loPI    C210470   4.632  10.181   6.005 -0.1796 -0.1115  0.1716
  697loPI    C310471   4.587  10.115   5.613  0.1103 -0.0472  0.1249
  697loPI   PO410472   4.745   9.728   6.148  0.0108 -0.0263  0.2631
  697loPI   GL110473   4.634   9.966   6.435  0.3180 -0.1921 -0.1763
  697loPI   GL210474   4.437  10.218   6.518  0.1803  0.1421 -0.1277
  697loPI   C1A10475   4.837   9.735   6.878 -0.2083  0.0879 -0.2739
  697loPI   C2A10476   4.654   9.695   7.344  0.0519 -0.2994 -0.2270
  697loPI   C3A10477   4.619   9.695   7.679 -0.3452  0.0101  0.0319
  697loPI   C4A10478   4.705   9.706   8.077 -0.1107 -0.0607 -0.1454
  697loPI   C5A10479   4.616   9.795   8.524 -0.4615 -0.0535 -0.0898
  697loPI   C6A10480   4.809   9.666   9.029  0.1925 -0.1702  0.3177
  697loPI   C1B10481   4.421  10.062   6.934  0.1308  0.4568  0.0326
  697loPI   C2B10482   4.364  10.105   7.298  0.0781  0.0980 -0.1874
  697loPI   C3B10483   4.363  10.121   7.783 -0.0732  0.0799 -0.2558
  697loPI   C4B10484   4.342  10.170   8.304 -0.3566  0.1139 -0.1459
  698loPI    C110485   8.038   1.923   5.760  0.1113  0.0131 -0.0955
  698loPI    C210486   7.705   1.702   5.769  0.1519 -0.0401  0.2742
  698loPI    C310487   7.707   2.053   5.577 -0.0528 -0.1379  0.0888
  698loPI   PO410488   8.041   1.922   6.027 -0.0233  0.0877  0.0234
  698loPI   GL110489   7.965   1.655   6.316 -0.0558 -0.4139 -0.1050
  698loPI   GL210490   8.203   1.614   6.464  0.0858  0.1241  0.0314
  698loPI   C1A10491   7.721   1.702   6.688 -0.0832  0.1278 -0.0537
  698loPI   C2A10492   7.735   1.749   7.140 -0.0075 -0.0061 -0.0308
  698loPI   C3A10493   7.639   1.747   7.544 -0.0639 -0.2561  0.1074
  698loPI   C4A10494   7.580   1.649   7.908  0.2802  0.1467  0.0127
  698loPI   C5A10495   7.524   1.683   8.341 -0.2973  0.2419  0.2187
  698loPI   C6A10496   7.668   1.837   8.647  0.2423 -0.0119 -0.2558
  698loPI   C1B10497   8.153   1.756   6.911  0.0644 -0.0199  0.0524
  698loPI   C2B10498   8.185   1.660   7.393  0.1359 -0.0499 -0.0473
  698loPI   C3B10499   8.106   1.743   7.809 -0.0016  0.1027  0.2112
  698loPI   C4B10500   8.140   1.745   8.206  0.0551  0.0154  0.1523
  699loPI    C110501   1.365  12.166   6.030 -0.1058  0.2311 -0.0536
  699loPI    C210502   1.211  12.306   5.688  0.2641  0.4027 -0.1560
  699loPI    C310503   1.476  12.006   5.680 -0.0737  0.0914  0.0198
  699loPI   PO410504   1.460  12.373   6.156  0.2998  0.1265 -0.0165
  699loPI   GL110505   1.588  12.610   6.582  0.0817 -0.0164 -0.3621
  699loPI   GL210506   1.505  12.346   6.737  0.0733  0.1473  0.2982
  699loPI   C1A10507   1.484  12.732   7.001  0.1166  0.0384 -0.1690
  699loPI   C2A10508   1.582  12.676   7.422  0.0802  0.1789 -0.2946
  699loPI   C3A10509   1.581  12.612   7.809 -0.0287  0.0152 -0.0320
  699loPI   C4A10510   1.589  12.603   8.199 -0.0879 -0.0101 -0.3246
  699loPI   C5A10511   1.494  12.415   8.616  0.2447 -0.0751  0.2529
  699loPI   C6A10512   1.437  12.364   8.990  0.1929  0.1162 -0.3428
  699loPI   C1B10513   1.349  12.298   7.150 -0.1077  0.1240 -0.1119
  699loPI   C2B10514   1.303  12.212   7.473 -0.0719 -0.0728  0.1229
  699loPI   C3B10515   1.339  12.134   7.928 -0.0225 -0.0345 -0.0545
  699loPI   C4B10516   1.248  12.001   8.330  0.0388  0.0850 -0.0947
  700loPI    C110517  11.105   7.875   5.922 -0.0429  0.0740  0.0608
  700loPI    C210518  10.842   7.685   5.688  0.1627 -0.0761 -0.0514
  700loPI    C310519  11.213   7.755   5.556  0.2036  0.0652  0.1352
  700loPI   PO410520  11.079   7.781   6.175  0.3081 -0.4422 -0.4240
  700loPI   GL110521  11.281   7.978   6.500 -0.0954 -0.2458  0.0404
  700loPI   GL210522  11.310   7.687   6.630 -0.0782  0.0390 -0.2798
  700loPI   C1A10523  11.101   8.156   6.740 -0.0352  0.3276  0.0563
  700loPI   C2A10524  10.996   8.175   7.136 -0.4098  0.0770 -0.0586
  700loPI   C3A10525  11.028   8.269   7.581  0.2276  0.0126 -0.1174
  700loPI   C4A10526  10.985   8.306   8.007 -0.0014  0.0017 -0.1954
  700loPI   C5A10527  11.008   8.365   8.474 -0.2735 -0.1121  0.0631
  700loPI   C6A10528  11.098   8.012   8.684 -0.3537 -0.0358 -0.0276
  700loPI   C1B10529  11.237   7.753   6.980  0.0333 -0.0323 -0.0211
  700loPI   C2B10530  11.249   7.781   7.312  0.3914 -0.0752 -0.0266
  700loPI   C3B10531  11.292   7.885   7.713 -0.3678  0.1738  0.0121
  700loPI   C4B10532  11.270   7.820   8.237 -0.2352 -0.4720  0.0620
  701loPI    C110533  13.365  16.048   5.765  0.0494  0.2138  0.1813
  701loPI    C210534  12.969  15.990   5.775  0.0769 -0.0229 -0.0114
  701loPI    C310535  13.133  16.199   5.475  0.1426 -0.3141 -0.1820
  701loPI   PO410536  13.408  16.093   6.071 -0.2020 -0.0695  0.1770
  701loPI   GL110537  13.275  16.215   6.318 -0.2445  0.1903  0.2464
  701loPI   GL210538  13.163  16.029   6.570  0.0901  0.1253  0.2057
  701loPI   C1A10539  13.331  16.565   6.703 -0.1494  0.0351  0.0290
  701loPI   C2A10540  13.347  16.514   7.154  0.0051  0.1238  0.0633
  701loPI   C3A10541  13.352  16.524   7.606 -0.1594 -0.2056  0.1993
  701loPI   C4A10542  13.514  16.488   8.084  0.0249 -0.0088 -0.0452
  701loPI   C5A10543  13.319  16.625   8.408  0.0142  0.1868 -0.3368
  701loPI   C6A10544  13.268  16.849   8.761 -0.1998  0.0769 -0.0777
  701loPI   C1B10545  13.043  16.036   6.989 -0.3778  0.0857 -0.1321
  701loPI   C2B10546  13.163  16.133   7.404  0.0394 -0.2809  0.2078
  701loPI   C3B10547  13.140  16.139   7.822  0.1210 -0.5770  0.1121
  701loPI   C4B10548  13.168  16.140   8.295  0.3462 -0.3958 -0.1540
  702loPI    C110549  10.915   1.277   5.858 -0.4084  0.0916 -0.0538
  702loPI    C210550  10.800   1.041   5.556  0.3594 -0.2663 -0.0903
  702loPI    C310551  11.045   1.349   5.487 -0.0884  0.1376  0.0646
  702loPI   PO410552  11.023   1.066   5.979  0.4076 -0.3703  0.1199
  702loPI   GL110553  11.325   0.968   6.252 -0.2253  0.1179 -0.0976
  702loPI   GL210554  11.562   1.034   6.315 -0.1483 -0.0384  0.0482
  702loPI   C1A10555  11.289   0.952   6.707  0.0108  0.0509 -0.2407
  702loPI   C2A10556  11.286   0.881   7.124  0.3714 -0.5273 -0.0269
  702loPI   C3A10557  11.203   0.938   7.582  0.0331 -0.1197  0.2251
  702loPI   C4A10558  11.197   0.914   7.978 -0.0306 -0.0371  0.0492
  702loPI   C5A10559  10.967   0.803   8.435  0.0892  0.3295 -0.0671
  702loPI   C6A10560  10.708   0.898   8.675 -0.5558 -0.3556  0.4042
  702loPI   C1B10561  11.788   0.939   6.605  0.0816 -0.1347 -0.1007
  702loPI   C2B10562  11.807   0.880   7.133 -0.1554 -0.4834  0.2871
  702loPI   C3B10563  11.721   0.893   7.564  0.2469  0.3477  0.2882
  702loPI   C4B10564  11.803   0.949   7.999 -0.2316  0.1908 -0.1430
  703loPI    C110565  14.590  12.174   6.076 -0.0716 -0.0002 -0.2576
  703loPI    C210566  14.763  12.493   5.909 -0.0675 -0.0156 -0.2828
  703loPI    C310567  14.421  12.351   5.759 -0.2603  0.1951 -0.0512
  703loPI   PO410568  14.513  12.219   6.293 -0.2461 -0.3429  0.1930
  703loPI   GL110569  14.577  12.033   6.672  0.1715  0.1255  0.1009
  703loPI   GL210570  14.880  12.272   6.720  0.2277 -0.2244 -0.0755
  703loPI   C1A10571  14.563  11.873   7.064 -0.3127  0.2132  0.1186
  703loPI   C2A10572  14.547  11.909   7.550 -0.0818  0.2140 -0.2681
  703loPI   C3A10573  14.540  11.958   7.920  0.1359 -0.0017  0.2243
  703loPI   C4A10574  14.519  12.054   8.291  0.3370  0.2339 -0.0940
  703loPI   C5A10575  14.334  12.344   8.650  0.1774 -0.2552 -0.0988
  703loPI   C6A10576  14.100  12.296   9.044 -0.2009  0.0348  0.3159
  703loPI   C1B10577  14.759  12.368   7.080 -0.0443  0.0238  0.1109
  703loPI   C2B10578  14.698  12.367   7.474 -0.1330  0.0083 -0.0942
  703loPI   C3B10579  14.751  12.499   7.943 -0.1241  0.0937 -0.1720
  703loPI   C4B10580  14.752  12.509   8.426  0.1896  0.1303 -0.1436
  704loPI    C110581  11.620  11.526   5.549  0.1034 -0.1312  0.0086
  704loPI    C210582  11.629  11.861   5.332 -0.1312 -0.0902  0.0594
  704loPI    C310583  11.779  11.522   5.182  0.0330  0.0180 -0.0243
  704loPI   PO410584  11.660  11.685   5.844 -0.1460  0.0599 -0.0553
  704loPI   GL110585  11.738  11.663   6.270 -0.2463  0.1456 -0.0715
  704loPI   GL210586  12.034  11.929   6.452  0.1726 -0.0583 -0.0071
  704loPI   C1A10587  11.818  11.426   6.687 -0.2560  0.1877  0.2526
  704loPI   C2A10588  11.704  11.366   7.160 -0.2259  0.0412  0.1557
  704loPI   C3A10589  11.715  11.429   7.548 -0.1943 -0.1057 -0.1637
  704loPI   C4A10590  11.594  11.486   8.018 -0.0139 -0.3787  0.2004
  704loPI   C5A10591  11.525  11.534   8.433  0.1358  0.2677 -0.0884
  704loPI   C6A10592  11.720  11.811   8.737 -0.1643  0.1883 -0.2119
  704loPI   C1B10593  12.047  11.852   6.856 -0.1664 -0.1628  0.1429
  704loPI   C2B10594  11.924  11.882   7.348 -0.2571 -0.0123  0.0436
  704loPI   C3B10595  11.838  11.897   7.785  0.1105 -0.0362 -0.2012
  704loPI   C4B10596  11.833  11.966   8.225  0.2558  0.1067  0.1270
  705loPI    C110597   2.995   8.428   6.019 -0.1534  0.0485 -0.0795
  705loPI    C210598   3.314   8.388   5.782 -0.1412 -0.0034 -0.0544
  705loPI    C310599   2.946   8.358   5.629 -0.1328 -0.1493 -0.0474
  705loPI   PO410600   3.092   8.423   6.261  0.0927  0.2363 -0.0031
  705loPI   GL110601   3.318   8.366   6.648 -0.1725 -0.0720 -0.0976
  705loPI   GL210602   3.327   8.083   6.652 -0.1921  0.4615 -0.1976
  705loPI   C1A10603   3.454   8.327   7.115  0.1948 -0.0735 -0.1103
  705loPI   C2A10604   3.516   8.307   7.525  0.0367  0.1342 -0.1610
  705loPI   C3A10605   3.426   8.390   7.978 -0.0443  0.2296  0.0417
  705loPI   C4A10606   3.514   8.315   8.331 -0.2021  0.1944 -0.2617
  705loPI   C5A10607   3.552   8.358   8.761 -0.0479 -0.2475 -0.3524
  705loPI   C6A10608   3.748   8.355   9.116  0.2319  0.1132  0.0962
  705loPI   C1B10609   3.188   7.866   6.965 -0.2673 -0.0703 -0.0920
  705loPI   C2B10610   3.233   7.907   7.372 -0.0515  0.0094 -0.0302
  705loPI   C3B10611   3.153   7.935   7.798 -0.1476  0.2294 -0.2210
  705loPI   C4B10612   3.276   7.918   8.143  0.0363 -0.1232  0.2535
  706loPI    C110613  10.344   6.561   5.730 -0.2661  0.0133 -0.1106
  706loPI    C210614  10.518   6.608   5.373 -0.0169  0.2106  0.0336
  706loPI    C310615  10.327   6.915   5.544 -0.3711  0.0417 -0.0481
  706loPI   PO410616  10.530   6.495   5.878  0.1054  0.0190 -0.3533
  706loPI   GL110617  10.596   6.503   6.314 -0.2537  0.1711  0.0877
  706loPI   GL210618  10.324   6.703   6.391 -0.0504  0.0743 -0.1150
  706loPI   C1A10619  10.643   6.274   6.789  0.0564 -0.0489 -0.1614
  706loPI   C2A10620  10.545   6.324   7.210 -0.1620  0.2473  0.4607
  706loPI   C3A10621  10.550   6.438   7.617  0.2073  0.0841 -0.1701
  706loPI   C4A10622  10.630   6.371   8.062 -0.2496  0.1624 -0.2663
  706loPI   C5A10623  10.684   6.169   8.504 -0.1025  0.0262  0.3820
  706loPI   C6A10624  10.948   6.338   8.879  0.4705 -0.2864 -0.1194
  706loPI   C1B10625  10.280   6.790   6.851  0.2627 -0.0951  0.2419
  706loPI   C2B10626  10.222   6.753   7.303 -0.0797 -0.0111  0.1874
  706loPI   C3B10627  10.277   6.854   7.735  0.0630  0.0085  0.0999
  706loPI   C4B10628  10.395   6.828   8.213 -0.2330  0.2959  0.0979
  707loPI    C110629   0.616  17.367   5.928 -0.1853 -0.0774 -0.0614
  707loPI    C210630   0.230  17.299   5.851 -0.1996  0.0791 -0.1312
  707loPI    C310631   0.404  17.636   5.721 -0.1044  0.1278  0.1173
  707loPI   PO410632   0.679  17.430   6.176  0.0833 -0.1251 -0.0364
  707loPI   GL110633   0.954  17.330   6.580  0.0625 -0.2376 -0.1553
  707loPI   GL210634   0.659  17.095   6.605  0.0898 -0.1014 -0.1118
  707loPI   C1A10635   0.916  17.193   7.084 -0.2377  0.1677 -0.0516
  707loPI   C2A10636   0.879  17.200   7.563  0.2406  0.1635  0.2068
  707loPI   C3A10637   0.848  17.146   8.044 -0.1549  0.0008  0.2121
  707loPI   C4A10638   1.020  17.209   8.475  0.1343  0.1626 -0.2103
  707loPI   C5A10639   1.237  17.071   8.904  0.3145 -0.0732  0.0477
  707loPI   C6A10640   1.051  16.789   9.248 -0.2576  0.4536  0.1054
  707loPI   C1B10641   1.046  16.819   6.729 -0.1538 -0.0162  0.0318
  707loPI   C2B10642   1.222  16.766   7.196  0.0976 -0.1260 -0.1325
  707loPI   C3B10643   1.178  16.819   7.565 -0.0162 -0.0580  0.0865
  707loPI   C4B10644   1.041  16.692   7.951 -0.0317 -0.1598  0.0827
  708loPI    C110645   3.969   5.380   5.610 -0.0137 -0.0406  0.0846
  708loPI    C210646   4.056   5.739   5.457 -0.2781  0.0702  0.1892
  708loPI    C310647   3.950   5.439   5.215 -0.1336  0.0833  0.1085
  708loPI   PO410648   3.840   5.406   5.859 -0.0127 -0.1917  0.0293
  708loPI   GL110649   4.097   5.535   6.260 -0.1426  0.0558 -0.0109
  708loPI   GL210650   3.836   5.624   6.378 -0.0189  0.0027 -0.0655
  708loPI   C1A10651   4.408   5.323   6.580 -0.1279  0.0068 -0.0583
  708loPI   C2A10652   4.534   5.233   7.011  0.1225 -0.1707  0.0638
  708loPI   C3A10653   4.444   5.202   7.394 -0.0078 -0.0422  0.1462
  708loPI   C4A10654   4.359   5.304   7.808 -0.3480  0.2661  0.1194
  708loPI   C5A10655   4.211   5.128   8.246  0.0634  0.0148  0.0493
  708loPI   C6A10656   3.989   5.172   8.664 -0.3178 -0.2364 -0.1840
  708loPI   C1B10657   3.694   5.615   6.805 -0.0242 -0.3118 -0.1145
  708loPI   C2B10658   3.561   5.713   7.245  0.3908 -0.1225  0.0019
  708loPI   C3B10659   3.566   5.699   7.692 -0.1669 -0.0220 -0.1910
  708loPI   C4B10660   3.456   5.690   7.981 -0.0447  0.0186  0.1385
  709loPI    C110661   0.078  10.973   6.063 -0.1724  0.0400  0.1210
  709loPI    C210662   0.378  11.156   6.253 -0.0438 -0.0024 -0.0387
  709loPI    C310663   0.218  11.322   5.926  0.0099 -0.1279 -0.1296
  709loPI   PO410664  -0.111  10.958   6.373  0.0808 -0.1554  0.0555
  709loPI   GL110665  -0.355  10.611   6.589  0.2492 -0.0696 -0.0475
  709loPI   GL210666   0.018  10.649   6.713 -0.0240  0.0993  0.2366
  709loPI   C1A10667  -0.438  10.712   6.948  0.1890  0.1723 -0.0170
  709loPI   C2A10668  -0.462  10.707   7.268 -0.0166  0.1059 -0.1353
  709loPI   C3A10669  -0.509  10.605   7.769  0.1628 -0.0494 -0.1097
  709loPI   C4A10670  -0.639  10.648   8.227 -0.1973 -0.0074  0.0846
  709loPI   C5A10671  -0.574  10.632   8.692  0.0458 -0.0953 -0.1621
  709loPI   C6A10672  -0.657  10.326   9.052  0.0920 -0.1266  0.0593
  709loPI   C1B10673   0.034  10.586   7.145  0.0188 -0.2154 -0.1589
  709loPI   C2B10674  -0.037  10.702   7.586 -0.0508  0.0538  0.0538
  709loPI   C3B10675  -0.079  10.641   8.080 -0.2237 -0.0821 -0.1005
  709loPI   C4B10676  -0.055  10.722   8.516  0.3512 -0.0127  0.0622
  710loPI    C110677  15.068  13.982   6.431  0.1103 -0.1325 -0.1331
  710loPI    C210678  15.069  14.172   6.079  0.0321  0.0582 -0.0322
  710loPI    C310679  14.914  13.804   6.108  0.2165 -0.0383 -0.2369
  710loPI   PO410680  14.955  14.138   6.605  0.3304 -0.2472 -0.1134
  710loPI   GL110681  14.999  14.261   6.996 -0.3152 -0.1776  0.1996
  710loPI   GL210682  14.698  14.248   7.061 -0.1917  0.0277  0.0238
  710loPI   C1A10683  15.366  14.249   7.300 -0.0620 -0.0592 -0.1644
  710loPI   C2A10684  15.325  14.279   7.678  0.1606  0.2055  0.1994
  710loPI   C3A10685  15.164  14.226   8.044 -0.1795 -0.1639  0.0598
  710loPI   C4A10686  15.126  14.295   8.420 -0.0623  0.1572 -0.0764
  710loPI   C5A10687  15.294  14.429   8.753  0.0188  0.4049  0.0893
  710loPI   C6A10688  15.456  14.224   9.132  0.2288  0.0836 -0.0017
  710loPI   C1B10689  14.613  14.321   7.457 -0.3574 -0.1418 -0.0583
  710loPI   C2B10690  14.624  14.307   7.936  0.0882  0.6099 -0.1271
  710loPI   C3B10691  14.629  14.310   8.402 -0.2139  0.1010  0.1628
  710loPI   C4B10692  14.797  14.514   8.734 -0.0426 -0.0944 -0.1084
  711loPI    C110693   1.210   6.028   5.713  0.0515  0.1149 -0.3269
  711loPI    C210694   0.976   5.749   5.548  0.0226  0.1303 -0.3120
  711loPI    C310695   1.174   6.007   5.316  0.2018 -0.0254 -0.3343
  711loPI   PO410696   1.341   5.957   5.972  0.0686  0.3621  0.0589
  711loPI   GL110697   1.131   5.952   6.389  0.0477 -0.0231  0.3006
  711loPI   GL210698   1.392   6.239   6.365 -0.1231  0.2178  0.0703
  711loPI   C1A10699   1.046   5.689   6.777  0.1216 -0.0061  0.0145
  711loPI   C2A10700   1.025   5.653   7.200  0.0317  0.0496  0.0992
  711loPI   C3A10701   0.986   5.671   7.654  0.0675 -0.2783 -0.0001
  711loPI   C4A10702   0.945   5.757   8.099 -0.0202  0.3038  0.0682
  711loPI   C5A10703   0.703   6.049   8.433 -0.0318 -0.0382 -0.0514
  711loPI   C6A10704   0.587   6.023   8.881 -0.1768 -0.0049  0.1650
  711loPI   C1B10705   1.249   6.111   6.854  0.0040 -0.1450  0.0266
  711loPI   C2B10706   1.286   6.112   7.372 -0.2748 -0.0624  0.2719
  711loPI   C3B10707   1.199   6.124   7.768 -0.2984 -0.0452  0.1002
  711loPI   C4B10708   1.144   6.310   8.260  0.1043  0.1572 -0.1193
  712loPI    C110709  17.189   8.907   5.746 -0.1642 -0.0362 -0.2044
  712loPI    C210710  17.325   9.237   5.565 -0.2291  0.1222  0.0324
  712loPI    C310711  17.315   8.891   5.366  0.0732  0.2086 -0.1393
  712loPI   PO410712  17.240   9.005   5.988 -0.1328  0.0765  0.1888
  712loPI   GL110713  17.148   8.812   6.335  0.3392  0.0175  0.0792
  712loPI   GL210714  16.842   8.743   6.474  0.0785  0.1488 -0.2862
  712loPI   C1A10715  17.268   8.448   6.685 -0.2047  0.0431  0.3978
  712loPI   C2A10716  17.247   8.410   7.101  0.4745  0.0541  0.2053
  712loPI   C3A10717  17.197   8.412   7.550 -0.0282  0.0653  0.1150
  712loPI   C4A10718  17.203   8.376   7.986 -0.2869 -0.2792  0.2054
  712loPI   C5A10719  17.135   8.360   8.383 -0.1883  0.0574  0.3400
  712loPI   C6A10720  16.894   8.421   8.845  0.1892  0.2706 -0.0817
  712loPI   C1B10721  17.052   8.837   6.907  0.2812  0.0637 -0.0989
  712loPI   C2B10722  16.925   8.829   7.391 -0.1685 -0.0327 -0.0243
  712loPI   C3B10723  16.905   8.929   7.808 -0.2720  0.0775  0.0966
  712loPI   C4B10724  16.929   8.793   8.200  0.2093 -0.0834  0.3272
  713loPI    C110725  11.970   3.524   5.910 -0.1047 -0.0585  0.0480
  713loPI    C210726  12.207   3.734   6.155 -0.0873 -0.2273  0.1774
  713loPI    C310727  12.117   3.878   5.793  0.0599 -0.0748  0.2000
  713loPI   PO410728  11.729   3.491   6.062 -0.1412 -0.0498 -0.1559
  713loPI   GL110729  11.770   3.625   6.450 -0.2630  0.1336 -0.1343
  713loPI   GL210730  11.465   3.324   6.535 -0.1062  0.1311  0.2696
  713loPI   C1A10731  11.750   3.609   6.886  0.0579  0.1211 -0.0351
  713loPI   C2A10732  11.769   3.641   7.295  0.3298 -0.1329 -0.0076
  713loPI   C3A10733  11.669   3.608   7.768  0.0149  0.2320 -0.4769
  713loPI   C4A10734  11.766   3.521   8.226 -0.1466  0.4746 -0.0183
  713loPI   C5A10735  12.068   3.386   8.419  0.0541 -0.0321  0.0347
  713loPI   C6A10736  12.288   3.403   8.793 -0.0587 -0.0123 -0.2088
  713loPI   C1B10737  11.449   3.076   6.890 -0.3596  0.0414 -0.4282
  713loPI   C2B10738  11.451   3.055   7.334  0.1228  0.0191 -0.0919
  713loPI   C3B10739  11.422   3.074   7.741 -0.2391 -0.1163  0.2041
  713loPI   C4B10740  11.422   3.120   8.117 -0.0496 -0.2938  0.0958
  714loPI    C110741   5.115   3.269   6.020 -0.1556 -0.1558  0.1523
  714loPI    C210742   5.269   3.400   5.675  0.0650 -0.1239  0.2608
  714loPI    C310743   5.153   3.019   5.710 -0.0728 -0.0965  0.1143
  714loPI   PO410744   4.933   3.571   6.126  0.1678  0.1206 -0.1948
  714loPI   GL110745   4.705   3.747   6.359  0.1108 -0.2064  0.0463
  714loPI   GL210746   4.450   3.615   6.478 -0.1551  0.2563  0.0044
  714loPI   C1A10747   4.760   3.944   6.706 -0.0247 -0.0654 -0.1554
  714loPI   C2A10748   4.733   4.120   7.054  0.2736  0.3445 -0.0007
  714loPI   C3A10749   4.822   3.997   7.519 -0.2467 -0.1645 -0.1151
  714loPI   C4A10750   4.878   3.998   7.961 -0.1205  0.1434 -0.0523
  714loPI   C5A10751   4.769   3.967   8.430 -0.1303 -0.0694  0.1858
  714loPI   C6A10752   4.739   3.696   8.718  0.2666 -0.1622  0.3993
  714loPI   C1B10753   4.500   3.585   7.006  0.0907 -0.0299  0.0054
  714loPI   C2B10754   4.513   3.568   7.452 -0.1613  0.0617 -0.0375
  714loPI   C3B10755   4.470   3.504   7.935  0.0728 -0.1254 -0.2336
  714loPI   C4B10756   4.452   3.581   8.351 -0.1841 -0.3305  0.4139
  715loPI    C110757  16.069   5.616   5.886  0.0777  0.1528 -0.2164
  715loPI    C210758  15.849   5.390   5.640 -0.1131  0.1526 -0.0489
  715loPI    C310759  16.183   5.565   5.506 -0.1933  0.1212 -0.2959
  715loPI   PO410760  15.975   5.525   6.205 -0.2398 -0.1853 -0.1586
  715loPI   GL110761  16.188   5.604   6.593  0.0531  0.1736 -0.0674
  715loPI   GL210762  16.193   5.310   6.675 -0.0081 -0.2879  0.0495
  715loPI   C1A10763  16.354   5.712   7.031  0.1837 -0.1909 -0.0284
  715loPI   C2A10764  16.339   5.740   7.444 -0.2371 -0.2052  0.1161
  715loPI   C3A10765  16.306   5.576   7.828  0.1574 -0.1832 -0.1174
  715loPI   C4A10766  16.171   5.577   8.186 -0.0330  0.1874  0.0151
  715loPI   C5A10767  16.023   5.552   8.641 -0.0586 -0.2344 -0.0446
  715loPI   C6A10768  15.549   5.779   8.664  0.2799  0.0384  0.2833
  715loPI   C1B10769  16.076   5.174   6.994  0.0257  0.2323  0.0957
  715loPI   C2B10770  16.005   5.171   7.342  0.1249  0.0039  0.0673
  715loPI   C3B10771  15.987   5.106   7.844  0.0191  0.1000  0.2824
  715loPI   C4B10772  15.871   5.088   8.256 -0.0288  0.0263  0.2519
  716loPI    C110773  16.177   9.078   5.760  0.0391  0.1612 -0.0235
  716loPI    C210774  16.357   8.880   5.463  0.0950  0.0332  0.0947
  716loPI    C310775  15.974   8.989   5.427  0.1377  0.1312 -0.0759
  716loPI   PO410776  16.178   8.975   5.953  0.1122  0.3053 -0.0623
  716loPI   GL110777  16.316   8.854   6.389 -0.0883  0.1223  0.2962
  716loPI   GL210778  16.294   8.557   6.439  0.1020  0.1008 -0.4060
  716loPI   C1A10779  16.401   8.931   6.865  0.1014 -0.0325  0.1115
  716loPI   C2A10780  16.442   8.784   7.204 -0.0501  0.1087 -0.0479
  716loPI   C3A10781  16.442   8.849   7.596 -0.1258 -0.1439  0.0409
  716loPI   C4A10782  16.406   8.911   7.966  0.3003 -0.0429 -0.0427
  716loPI   C5A10783  16.404   8.903   8.499  0.0893  0.1765 -0.0915
  716loPI   C6A10784  16.895   8.922   8.695 -0.2096  0.4020  0.0371
  716loPI   C1B10785  16.239   8.428   6.878 -0.1156  0.0030 -0.1878
  716loPI   C2B10786  16.254   8.352   7.296 -0.2706 -0.2533  0.1113
  716loPI   C3B10787  16.182   8.442   7.775 -0.2191 -0.0660  0.1294
  716loPI   C4B10788  16.123   8.417   8.296 -0.2454  0.1551  0.1105
  717loPI    C110789   3.717  13.651   5.849 -0.0963  0.0820  0.0227
  717loPI    C210790   3.407  13.581   5.606 -0.0805  0.1635 -0.0212
  717loPI    C310791   3.713  13.807   5.480  0.0294  0.0259 -0.0029
  717loPI   PO410792   3.683  13.467   6.006  0.0800 -0.0350 -0.0504
  717loPI   GL110793   3.644  13.375   6.406 -0.0312  0.0320  0.0909
  717loPI   GL210794   3.304  13.132   6.483  0.2325  0.1551  0.0820
  717loPI   C1A10795   3.959  13.189   6.732 -0.1807  0.2171  0.1663
  717loPI   C2A10796   3.909  13.177   7.145 -0.1883  0.0737 -0.2005
  717loPI   C3A10797   3.891  13.271   7.500 -0.2190 -0.1360  0.0726
  717loPI   C4A10798   3.935  13.227   7.923 -0.0969 -0.0071 -0.0609
  717loPI   C5A10799   3.821  13.197   8.311  0.0338  0.0197  0.2519
  717loPI   C6A10800   3.517  13.204   8.550  0.0468  0.0041 -0.0731
  717loPI   C1B10801   3.449  13.219   6.828 -0.1068 -0.2250  0.3207
  717loPI   C2B10802   3.396  13.141   7.210 -0.2474  0.3110 -0.0402
  717loPI   C3B10803   3.333  13.179   7.591  0.1143  0.1365 -0.0234
  717loPI   C4B10804   3.299  13.173   8.139  0.2468  0.1507 -0.1695
  718loPI    C110805   6.195   6.660   5.844  0.0594 -0.0200  0.0649
  718loPI    C210806   5.927   6.935   5.730 -0.0639 -0.2090 -0.1090
  718loPI    C310807   6.279   6.910   5.543 -0.0237 -0.1239 -0.0456
  718loPI   PO410808   6.145   6.658   6.134  0.0367  0.1373  0.3501
  718loPI   GL110809   6.261   6.460   6.480 -0.3254  0.0160 -0.1489
  718loPI   GL210810   6.551   6.320   6.500  0.0901 -0.0141 -0.1400
  718loPI   C1A10811   6.096   6.738   6.928  0.0317 -0.3471 -0.1020
  718loPI   C2A10812   6.196   6.690   7.333 -0.1482 -0.1056  0.0334
  718loPI   C3A10813   6.106   6.708   7.816  0.0408 -0.3737  0.1402
  718loPI   C4A10814   6.122   6.705   8.177 -0.1150  0.1585 -0.3718
  718loPI   C5A10815   5.979   6.538   8.525  0.0466  0.2584 -0.1061
  718loPI   C6A10816   5.967   6.090   8.675  0.0459  0.3160  0.0258
  718loPI   C1B10817   6.447   6.359   6.965  0.0027 -0.0482  0.1562
  718loPI   C2B10818   6.460   6.230   7.418 -0.1271 -0.0935 -0.2488
  718loPI   C3B10819   6.381   6.313   7.860 -0.0005 -0.0873  0.1767
  718loPI   C4B10820   6.360   6.259   8.333 -0.2315 -0.0827  0.0768
  719loPI    C110821   6.040   9.176   5.931 -0.1717 -0.0369  0.0681
  719loPI    C210822   5.838   8.867   6.085 -0.2714  0.0136  0.0395
  719loPI    C310823   6.071   8.814   5.764 -0.6411  0.0564 -0.2431
  719loPI   PO410824   6.186   9.292   6.157 -0.1048  0.1356  0.1459
  719loPI   GL110825   6.538   9.201   6.375 -0.0168  0.1917 -0.1838
  719loPI   GL210826   6.565   9.407   6.569  0.0394  0.1859 -0.0412
  719loPI   C1A10827   6.265   9.015   6.803 -0.0303 -0.2099 -0.2326
  719loPI   C2A10828   6.272   8.985   7.225  0.3594  0.0785 -0.0951
  719loPI   C3A10829   6.310   8.925   7.598 -0.3447  0.1661 -0.1152
  719loPI   C4A10830   6.270   8.905   8.119  0.1777 -0.1053  0.0998
  719loPI   C5A10831   6.275   8.893   8.493 -0.1082  0.0215  0.0041
  719loPI   C6A10832   6.229   8.863   8.880 -0.0706  0.0467 -0.3069
  719loPI   C1B10833   6.566   9.390   7.094  0.1918  0.1207 -0.2287
  719loPI   C2B10834   6.489   9.414   7.463 -0.2122 -0.0785 -0.1285
  719loPI   C3B10835   6.547   9.382   7.911  0.0023  0.0920 -0.2028
  719loPI   C4B10836   6.489   9.351   8.404 -0.0385 -0.0879  0.0121
  720loPI    C110837   8.099  16.032   5.915  0.0823  0.0864 -0.0970
  720loPI    C210838   8.483  15.926   5.943  0.1002  0.1535 -0.0846
  720loPI    C310839   8.360  16.149   5.635  0.0707  0.1304 -0.0895
  720loPI   PO410840   7.973  16.120   6.116 -0.2127  0.1495 -0.1995
  720loPI   GL110841   8.128  16.207   6.601 -0.0365 -0.3483 -0.0306
  720loPI   GL210842   8.402  15.892   6.449 -0.0529 -0.4803 -0.1058
  720loPI   C1A10843   8.183  16.383   6.999 -0.0888 -0.0257  0.3447
  720loPI   C2A10844   8.099  16.397   7.485  0.3188 -0.1792  0.2921
  720loPI   C3A10845   8.119  16.425   7.905 -0.0306  0.2200 -0.0319
  720loPI   C4A10846   8.096  16.441   8.396  0.1224 -0.2775 -0.2102
  720loPI   C5A10847   8.327  16.271   8.710  0.1770 -0.2028 -0.1677
  720loPI   C6A10848   8.533  16.077   8.908 -0.2278 -0.2734  0.0335
  720loPI   C1B10849   8.390  15.895   6.875 -0.2485  0.2674 -0.0545
  720loPI   C2B10850   8.434  15.995   7.301 -0.1680  0.0077 -0.2304
  720loPI   C3B10851   8.407  15.931   7.724 -0.0450  0.0500 -0.3451
  720loPI   C4B10852   8.395  15.980   8.166 -0.2710  0.2203  0.2946
  721loPI    C110853  11.334   6.876   6.088  0.0625 -0.1301  0.3242
  721loPI    C210854  10.991   6.669   6.086  0.0207 -0.0605  0.1487
  721loPI    C310855  11.239   6.650   5.772  0.2444 -0.2183  0.3314
  721loPI   PO410856  11.398   6.861   6.264 -0.1666 -0.0637  0.0794
  721loPI   GL110857  11.293   6.690   6.622  0.3538 -0.0555  0.0145
  721loPI   GL210858  11.108   6.354   6.685  0.1082 -0.1377 -0.0441
  721loPI   C1A10859  11.299   6.839   7.014  0.0567 -0.0382 -0.0798
  721loPI   C2A10860  11.303   6.847   7.378 -0.3534 -0.2441 -0.1882
  721loPI   C3A10861  11.351   6.954   7.807 -0.1131 -0.1117 -0.4689
  721loPI   C4A10862  11.327   6.840   8.147 -0.0570  0.3468  0.0088
  721loPI   C5A10863  10.995   6.624   8.389 -0.0218  0.1319 -0.1305
  721loPI   C6A10864  10.680   6.693   8.604 -0.4628  0.1435  0.0271
  721loPI   C1B10865  11.130   6.366   7.040  0.0997 -0.0752  0.0008
  721loPI   C2B10866  11.133   6.334   7.542  0.0454 -0.1071  0.1058
  721loPI   C3B10867  11.137   6.404   7.986  0.2809  0.3229  0.2491
  721loPI   C4B10868  11.192   6.207   8.456 -0.4445  0.0777 -0.0043
  722loPI    C110869  12.384   6.760   6.023  0.1124  0.0539  0.0767
  722loPI    C210870  12.514   6.658   5.658 -0.0454 -0.0950  0.0611
  722loPI    C310871  12.172   6.861   5.700  0.0289  0.0187  0.1202
  722loPI   PO410872  12.376   6.575   6.174 -0.1210 -0.3733 -0.0734
  722loPI   GL110873  12.574   6.483   6.546  0.0908  0.0246 -0.0296
  722loPI   GL210874  12.510   6.177   6.549  0.1699  0.0993  0.2940
  722loPI   C1A10875  12.626   6.348   6.991  0.0403 -0.2050 -0.1138
  722loPI   C2A10876  12.640   6.359   7.488 -0.1911  0.3339  0.0402
  722loPI   C3A10877  12.613   6.353   7.889 -0.1926 -0.0416 -0.1765
  722loPI   C4A10878  12.539   6.476   8.276 -0.0556 -0.0233 -0.0063
  722loPI   C5A10879  12.331   6.789   8.508 -0.2223  0.2990  0.2458
  722loPI   C6A10880  12.303   7.080   8.679  0.0451  0.1226  0.1014
  722loPI   C1B10881  12.400   5.932   6.885  0.3769  0.3988 -0.1591
  722loPI   C2B10882  12.351   5.866   7.325  0.0240 -0.0179  0.0008
  722loPI   C3B10883  12.462   5.911   7.710  0.1682 -0.1513 -0.2590
  722loPI   C4B10884  12.361   5.939   8.135  0.1185  0.0796 -0.2953
  723loPI    C110885   2.980   1.980   5.701 -0.2737 -0.2113  0.0546
  723loPI    C210886   2.860   2.262   5.444  0.2214  0.0785  0.1295
  723loPI    C310887   3.195   2.055   5.373  0.1568 -0.1069  0.3523
  723loPI   PO410888   2.997   2.082   5.985  0.0997  0.3018  0.3100
  723loPI   GL110889   2.910   2.378   6.380 -0.1525  0.2925  0.2126
  723loPI   GL210890   3.153   2.217   6.436 -0.3839 -0.2407  0.1517
  723loPI   C1A10891   2.834   2.468   6.813  0.0166  0.0273 -0.1348
  723loPI   C2A10892   2.799   2.496   7.185 -0.1765  0.6061  0.0864
  723loPI   C3A10893   2.820   2.606   7.655  0.0399  0.2007 -0.1762
  723loPI   C4A10894   2.867   2.586   8.018  0.2653 -0.2703 -0.1217
  723loPI   C5A10895   3.032   2.517   8.414 -0.2523  0.0283 -0.0056
  723loPI   C6A10896   3.346   2.285   8.603  0.3500  0.1398 -0.2150
  723loPI   C1B10897   3.157   2.083   6.874 -0.1852 -0.1573  0.0475
  723loPI   C2B10898   3.139   2.091   7.242 -0.1222 -0.1961  0.0599
  723loPI   C3B10899   3.165   2.191   7.681  0.0288 -0.0920 -0.0949
  723loPI   C4B10900   3.166   2.041   8.119 -0.0918  0.2072 -0.0275
  724loPI    C110901   1.966  13.133   5.735  0.1535 -0.1070 -0.2282
  724loPI    C210902   2.208  13.378   5.532  0.2478 -0.0463 -0.0439
  724loPI    C310903   1.858  13.268   5.375  0.2947  0.0454 -0.2145
  724loPI   PO410904   1.969  13.208   6.021 -0.1175 -0.2557  0.0636
  724loPI   GL110905   2.107  13.367   6.406  0.1851  0.2167  0.0024
  724loPI   GL210906   2.217  13.288   6.617 -0.1105  0.1094  0.1388
  724loPI   C1A10907   1.957  13.510   6.913 -0.2207 -0.0756 -0.2754
  724loPI   C2A10908   2.054  13.635   7.344 -0.0337 -0.0127 -0.0038
  724loPI   C3A10909   2.053  13.642   7.765  0.2138  0.1698 -0.2532
  724loPI   C4A10910   1.985  13.549   8.145 -0.2071 -0.0715 -0.4566
  724loPI   C5A10911   1.925  13.602   8.616 -0.1580  0.1334 -0.1011
  724loPI   C6A10912   1.600  13.624   8.889 -0.0229  0.1735 -0.1715
  724loPI   C1B10913   2.341  13.167   7.018 -0.1162  0.3694  0.3291
  724loPI   C2B10914   2.201  13.143   7.453  0.0324 -0.2444  0.2613
  724loPI   C3B10915   2.362  13.162   7.804  0.2122  0.1903 -0.1820
  724loPI   C4B10916   2.339  13.176   8.207 -0.1948  0.0538  0.0945
  725loPI    C110917  10.958   1.749   5.709 -0.1651 -0.0582 -0.0254
  725loPI    C210918  10.817   2.059   5.499 -0.0249  0.0088 -0.0216
  725loPI    C310919  11.097   1.820   5.341  0.0672  0.0481  0.0812
  725loPI   PO410920  10.890   1.860   5.979 -0.1302  0.2431 -0.0628
  725loPI   GL110921  11.263   1.946   6.245 -0.0897 -0.3018 -0.0344
  725loPI   GL210922  11.208   2.261   6.231 -0.2188 -0.1584  0.2664
  725loPI   C1A10923  11.171   1.719   6.722 -0.1431 -0.0096  0.0358
  725loPI   C2A10924  11.259   1.716   7.106  0.2999 -0.0096  0.0782
  725loPI   C3A10925  11.218   1.780   7.470  0.1202  0.2595  0.0561
  725loPI   C4A10926  11.162   1.765   7.858  0.2191  0.0920  0.0292
  725loPI   C5A10927  11.033   1.744   8.310  0.0907  0.1191 -0.2361
  725loPI   C6A10928  10.921   1.667   8.729 -0.2695  0.0240  0.0589
  725loPI   C1B10929  11.036   2.227   6.751  0.0457  0.0640  0.0133
  725loPI   C2B10930  10.936   2.179   7.133  0.0928  0.2292 -0.2560
  725loPI   C3B10931  10.918   2.210   7.559  0.0397  0.0958 -0.1373
  725loPI   C4B10932  10.812   2.125   7.966  0.1475  0.0814  0.0424
  726loPI    C110933  15.170  13.344   6.105 -0.0630 -0.1372 -0.0320
  726loPI    C210934  15.047  13.385   5.727 -0.0700 -0.0394 -0.0196
  726loPI    C310935  15.432  13.306   5.805 -0.0772 -0.1038 -0.0487
  726loPI   PO410936  15.025  13.212   6.244  0.0930 -0.0918  0.0527
  726loPI   GL110937  15.091  13.066   6.635  0.1172  0.2093  0.2175
  726loPI   GL210938  14.974  12.801   6.822  0.1545  0.1749 -0.2103
  726loPI   C1A10939  15.266  13.247   7.079 -0.2782 -0.0656  0.2349
  726loPI   C2A10940  15.281  13.284   7.541 -0.1293  0.1750 -0.2641
  726loPI   C3A10941  15.220  13.377   7.954  0.3161  0.1935 -0.2957
  726loPI   C4A10942  15.233  13.349   8.316 -0.0983  0.0166 -0.0205
  726loPI   C5A10943  15.096  13.473   8.739  0.0469  0.1243  0.0697
  726loPI   C6A10944  14.878  13.583   9.216  0.1542 -0.0587 -0.2139
  726loPI   C1B10945  14.985  12.857   7.338 -0.2998 -0.1519  0.2997
  726loPI   C2B10946  14.980  12.965   7.788  0.0500  0.5975  0.1341
  726loPI   C3B10947  14.989  12.915   8.255 -0.0447  0.1853 -0.2414
  726loPI   C4B10948  15.099  12.916   8.704 -0.1299  0.2890 -0.0987
  727loPI    C110949   5.117  15.365   5.962  0.0261 -0.0084 -0.0427
  727loPI    C210950   4.883  15.048   6.032 -0.2869  0.1946 -0.1470
  727loPI    C310951   5.006  15.129   5.659 -0.0907  0.1189 -0.1002
  727loPI   PO410952   5.275  15.407   6.180  0.2820  0.1015  0.0729
  727loPI   GL110953   5.437  15.460   6.601  0.0767 -0.0802  0.1803
  727loPI   GL210954   5.100  15.481   6.695 -0.0132 -0.0998  0.1073
  727loPI   C1A10955   5.599  15.507   6.954  0.1377  0.0174  0.2175
  727loPI   C2A10956   5.558  15.575   7.485 -0.1677 -0.0455 -0.1800
  727loPI   C3A10957   5.672  15.594   7.895 -0.2340  0.1257  0.0647
  727loPI   C4A10958   5.590  15.493   8.340  0.0124  0.0862 -0.2878
  727loPI   C5A10959   5.737  15.448   8.755 -0.0731 -0.0020 -0.0330
  727loPI   C6A10960   5.689  15.601   9.170 -0.0534  0.4302 -0.1321
  727loPI   C1B10961   5.037  15.466   7.114 -0.0673  0.0341  0.0047
  727loPI   C2B10962   5.097  15.498   7.535 -0.2301  0.0072  0.0677
  727loPI   C3B10963   5.094  15.541   8.004  0.0381  0.1842 -0.1798
  727loPI   C4B10964   5.054  15.548   8.488 -0.0145  0.1197  0.1118
  728loPI    C110965   8.515  14.648   5.875 -0.0868  0.0003 -0.3019
  728loPI    C210966   8.864  14.566   5.699 -0.0314 -0.0704 -0.1607
  728loPI    C310967   8.532  14.600   5.479  0.0951  0.1779 -0.3170
  728loPI   PO410968   8.519  14.553   6.105  0.1252 -0.0189 -0.0175
  728loPI   GL110969   8.489  14.567   6.468 -0.2264 -0.0189  0.1203
  728loPI   GL210970   8.336  14.357   6.509  0.1598 -0.0537 -0.0374
  728loPI   C1A10971   8.567  14.543   6.952  0.1912  0.1344  0.0959
  728loPI   C2A10972   8.622  14.564   7.353 -0.0240 -0.1960  0.0006
  728loPI   C3A10973   8.751  14.650   7.688  0.1480  0.0629 -0.1153
  728loPI   C4A10974   8.893  14.601   8.153  0.1002 -0.1395  0.1298
  728loPI   C5A10975   8.863  14.868   8.506  0.2490  0.2522 -0.1892
  728loPI   C6A10976   8.688  14.640   8.883 -0.1071 -0.2100  0.0192
  728loPI   C1B10977   8.055  14.490   6.967 -0.1321  0.2641 -0.3019
  728loPI   C2B10978   8.092  14.639   7.418  0.0614  0.0916  0.0712
  728loPI   C3B10979   8.290  14.602   7.909 -0.0513  0.2002 -0.1359
  728loPI   C4B10980   8.438  14.615   8.412  0.1126  0.3568  0.0096
  729loPI    C110981   1.596  14.967   5.960  0.0531  0.1840  0.0959
  729loPI    C210982   1.382  15.250   5.775 -0.1046 -0.0249 -0.0464
  729loPI    C310983   1.253  14.871   5.778  0.0200 -0.0684  0.2857
  729loPI   PO410984   1.668  15.111   6.158  0.0912 -0.0314  0.0211
  729loPI   GL110985   1.690  15.231   6.487 -0.0846  0.1536  0.0802
  729loPI   GL210986   1.417  15.270   6.614 -0.1319 -0.0047 -0.2728
  729loPI   C1A10987   1.830  15.320   6.975  0.1441  0.0660  0.4167
  729loPI   C2A10988   1.925  15.352   7.375 -0.2698  0.0376  0.4957
  729loPI   C3A10989   1.917  15.387   7.748 -0.0149  0.3522 -0.0012
  729loPI   C4A10990   1.818  15.402   8.271  0.0824 -0.2064  0.0763
  729loPI   C5A10991   1.877  15.437   8.690  0.2732  0.2364 -0.0081
  729loPI   C6A10992   2.171  15.456   9.014  0.0269  0.0217  0.1062
  729loPI   C1B10993   1.359  15.329   7.108 -0.0656 -0.0330 -0.0065
  729loPI   C2B10994   1.475  15.328   7.490  0.1492  0.2711 -0.0800
  729loPI   C3B10995   1.415  15.302   7.968  0.3699 -0.2331  0.1848
  729loPI   C4B10996   1.356  15.420   8.396 -0.0440 -0.0975 -0.0834
  730loPI    C110997   2.876   0.654   5.954 -0.0785 -0.2309  0.0611
  730loPI    C210998   2.959   0.307   5.773 -0.1854 -0.1970 -0.0544
  730loPI    C310999   2.755   0.591   5.578 -0.1608 -0.0967  0.0644
  730loPI   PO411000   2.770   0.578   6.120  0.1072 -0.0731 -0.1094
  730loPI   GL111001   2.900   0.546   6.531  0.1947  0.1213  0.1209
  730loPI   GL211002   2.954   0.870   6.568  0.0114 -0.1206  0.2196
  730loPI   C1A11003   2.677   0.340   6.805 -0.2188 -0.1408 -0.1249
  730loPI   C2A11004   2.635   0.251   7.198 -0.2082  0.1053 -0.4104
  730loPI   C3A11005   2.631   0.322   7.676 -0.0589  0.1398 -0.1204
  730loPI   C4A11006   2.686   0.363   8.087  0.0872  0.5749  0.4930
  730loPI   C5A11007   2.746   0.232   8.442  0.1249 -0.1960  0.3388
  730loPI   C6A11008   2.539   0.519   8.667  0.2178  0.0077  0.2395
  730loPI   C1B11009   2.958   0.665   6.993 -0.1001 -0.1734  0.0174
  730loPI   C2B11010   2.909   0.654   7.445 -0.0096  0.0550  0.3027
  730loPI   C3B11011   2.974   0.743   7.857 -0.0537  0.0013 -0.0628
  730loPI   C4B11012   2.892   0.752   8.286  0.1406  0.1588 -0.4674
  731loPI    C111013   5.037  14.470   5.896  0.1533 -0.0201 -0.0022
  731loPI    C211014   4.746  14.602   5.656  0.1853  0.1978  0.0764
  731loPI    C311015   5.128  14.686   5.572  0.2326 -0.1324 -0.0558
  731loPI   PO411016   5.010  14.604   6.176 -0.1305 -0.2409 -0.0464
  731loPI   GL111017   5.134  14.529   6.633 -0.1759  0.0614 -0.0250
  731loPI   GL211018   5.259  14.973   6.469  0.0498 -0.0170 -0.2234
  731loPI   C1A11019   5.108  14.556   7.022  0.1734  0.2311  0.3286
  731loPI   C2A11020   5.148  14.561   7.434 -0.2426 -0.3422 -0.2010
  731loPI   C3A11021   5.032  14.555   7.840  0.0188  0.0359  0.0544
  731loPI   C4A11022   5.062  14.640   8.247  0.1164 -0.1872 -0.0847
  731loPI   C5A11023   5.200  14.391   8.637 -0.2818 -0.0606  0.1818
  731loPI   C6A11024   4.936  14.159   8.935 -0.0396 -0.0825 -0.3362
  731loPI   C1B11025   5.320  15.070   6.907 -0.1037 -0.2058  0.3505
  731loPI   C2B11026   5.426  15.082   7.352  0.0888 -0.1250  0.0827
  731loPI   C3B11027   5.393  15.131   7.798  0.0062 -0.2355  0.0806
  731loPI   C4B11028   5.371  15.070   8.244 -0.1029  0.2806  0.2931
  732loPI    C111029   1.227   2.448   5.718 -0.1588  0.1910 -0.0637
  732loPI    C211030   1.431   2.221   5.459 -0.0230  0.0539  0.1595
  732loPI    C311031   1.051   2.322   5.381 -0.0616 -0.1888  0.0224
  732loPI   PO411032   1.184   2.296   5.936 -0.1291 -0.3713 -0.1810
  732loPI   GL111033   1.350   2.132   6.388 -0.2107  0.0976  0.1879
  732loPI   GL211034   1.627   2.083   6.448  0.0519  0.1543  0.1132
  732loPI   C1A11035   1.105   2.048   6.710 -0.2860 -0.2048  0.0787
  732loPI   C2A11036   1.086   2.046   7.119 -0.4617 -0.2005  0.1022
  732loPI   C3A11037   1.001   2.016   7.525 -0.2029 -0.0746 -0.1458
  732loPI   C4A11038   1.070   2.032   7.975 -0.2793  0.1359 -0.2816
  732loPI   C5A11039   0.685   2.051   8.324 -0.1681  0.2445 -0.2324
  732loPI   C6A11040   0.452   2.264   8.671 -0.0164 -0.0691  0.1919
  732loPI   C1B11041   1.593   1.979   6.859 -0.0072  0.1517 -0.1455
  732loPI   C2B11042   1.607   2.088   7.242 -0.1909 -0.1865 -0.1846
  732loPI   C3B11043   1.513   2.049   7.664 -0.0539  0.1525 -0.1911
  732loPI   C4B11044   1.596   2.059   8.032 -0.1125  0.1967 -0.1111
  733loPI    C111045   1.155   9.327   6.022  0.0256 -0.1038 -0.0664
  733loPI    C211046   1.111   9.199   5.646 -0.2305 -0.0394 -0.0603
  733loPI    C311047   1.197   9.583   5.717 -0.0267 -0.0845 -0.0576
  733loPI   PO411048   1.280   9.131   6.144 -0.3470 -0.0873  0.2161
  733loPI   GL111049   1.421   8.918   6.486  0.1344  0.0916  0.0297
  733loPI   GL211050   1.141   8.853   6.523 -0.0250 -0.0149 -0.2507
  733loPI   C1A11051   1.621   8.808   6.897  0.0197 -0.4296  0.0382
  733loPI   C2A11052   1.586   8.732   7.301 -0.0356 -0.0689  0.1002
  733loPI   C3A11053   1.574   8.816   7.721 -0.2430 -0.0365 -0.4948
  733loPI   C4A11054   1.541   8.808   8.197  0.1587  0.1859 -0.0070
  733loPI   C5A11055   1.580   8.977   8.571  0.1350  0.0336  0.0115
  733loPI   C6A11056   1.912   9.299   8.760 -0.0886  0.0238  0.3058
  733loPI   C1B11057   1.148   8.826   6.928  0.3295  0.0935  0.1249
  733loPI   C2B11058   1.031   8.873   7.327 -0.0778 -0.2725  0.2876
  733loPI   C3B11059   1.034   8.859   7.735 -0.1571 -0.2465 -0.3764
  733loPI   C4B11060   0.958   8.840   8.203 -0.1237 -0.1205 -0.1038
  734loPI    C111061  15.373   7.483   5.813 -0.1097 -0.0151 -0.0585
  734loPI    C211062  15.323   7.865   5.706 -0.1190  0.0345  0.1204
  734loPI    C311063  15.457   7.599   5.440 -0.0154  0.1829  0.0229
  734loPI   PO411064  15.490   7.497   5.973  0.0945 -0.4412 -0.0411
  734loPI   GL111065  15.614   7.361   6.298  0.0681 -0.1485 -0.2874
  734loPI   GL211066  15.439   7.478   6.444 -0.1200  0.3037  0.1275
  734loPI   C1A11067  15.759   7.420   6.818 -0.2825 -0.0607 -0.1701
  734loPI   C2A11068  15.637   7.530   7.181  0.1925  0.1086  0.1322
  734loPI   C3A11069  15.792   7.432   7.552 -0.1609 -0.2217  0.0348
  734loPI   C4A11070  15.642   7.522   7.907 -0.2173  0.1181 -0.0170
  734loPI   C5A11071  15.575   7.364   8.331  0.1289  0.1581  0.1194
  734loPI   C6A11072  15.252   7.478   8.680 -0.0238  0.3242 -0.2328
  734loPI   C1B11073  15.264   7.463   6.825 -0.1823 -0.3128 -0.1966
  734loPI   C2B11074  15.158   7.448   7.279 -0.1188 -0.0122  0.5484
  734loPI   C3B11075  15.269   7.375   7.605  0.2427 -0.0095  0.1998
  734loPI   C4B11076  15.194   7.421   8.039  0.2815  0.0039  0.0330
  735loPI    C111077   8.144  12.723   6.194  0.0038  0.0416 -0.1955
  735loPI    C211078   8.198  12.362   6.359 -0.1504  0.0578 -0.1072
  735loPI    C311079   8.323  12.433   5.985  0.0097 -0.0433 -0.0735
  735loPI   PO411080   8.184  12.856   6.414  0.2455 -0.0031 -0.0940
  735loPI   GL111081   8.392  12.579   6.765 -0.2202  0.2007  0.2149
  735loPI   GL211082   8.236  12.819   6.967 -0.0699 -0.0470 -0.1213
  735loPI   C1A11083   8.599  12.234   6.913  0.1675  0.0484  0.0699
  735loPI   C2A11084   8.567  12.099   7.253 -0.0459 -0.1691  0.2198
  735loPI   C3A11085   8.503  12.192   7.626  0.0175 -0.3256  0.2227
  735loPI   C4A11086   8.502  12.257   8.040  0.1046  0.1009  0.0067
  735loPI   C5A11087   8.307  12.148   8.384  0.1494  0.1019  0.0357
  735loPI   C6A11088   8.023  12.071   8.650 -0.0751  0.1766  0.0606
  735loPI   C1B11089   8.270  12.666   7.380  0.0586 -0.1251  0.0106
  735loPI   C2B11090   8.190  12.729   7.787 -0.0788 -0.2205  0.1942
  735loPI   C3B11091   8.123  12.672   8.209 -0.0647  0.0370 -0.1676
  735loPI   C4B11092   7.836  12.638   8.653  0.0401 -0.1404 -0.0119
  736loPI    C111093  12.822   5.333   6.208  0.0612 -0.0126 -0.1610
  736loPI    C211094  12.764   5.128   5.870  0.3038  0.0405 -0.2370
  736loPI    C311095  12.868   5.514   5.855 -0.2220  0.1967 -0.0939
  736loPI   PO411096  12.889   5.153   6.422 -0.0118  0.2066 -0.2750
  736loPI   GL111097  13.039   4.836   6.699 -0.0537 -0.0800 -0.2251
  736loPI   GL211098  12.926   5.136   6.883  0.0251  0.0174  0.0276
  736loPI   C1A11099  13.208   4.639   7.018 -0.0575 -0.1029  0.0363
  736loPI   C2A11100  13.264   4.628   7.431 -0.1006  0.1295  0.1867
  736loPI   C3A11101  13.114   4.670   7.922  0.2561  0.0159 -0.1172
  736loPI   C4A11102  13.225   4.711   8.346 -0.0074  0.2394  0.0026
  736loPI   C5A11103  13.335   4.410   8.772  0.0827  0.1974  0.2165
  736loPI   C6A11104  13.700   4.421   9.105  0.2405  0.0798  0.3152
  736loPI   C1B11105  12.965   5.056   7.340  0.0505  0.2428 -0.0272
  736loPI   C2B11106  12.941   5.083   7.718  0.1866  0.1788  0.3076
  736loPI   C3B11107  12.876   5.103   8.151 -0.1935  0.2126 -0.0251
  736loPI   C4B11108  12.785   5.144   8.592  0.1472 -0.1150 -0.0190
  737loPI    C111109   9.152   8.420   5.733  0.0561  0.3222  0.0897
  737loPI    C211110   8.866   8.561   5.493  0.1232  0.2747 -0.0188
  737loPI    C311111   8.935   8.168   5.512  0.0059  0.2630  0.2053
  737loPI   PO411112   9.030   8.502   6.029  0.1481 -0.0001 -0.0459
  737loPI   GL111113   9.124   8.278   6.397 -0.2520 -0.1998  0.0112
  737loPI   GL211114   9.302   8.561   6.501 -0.3796 -0.3086 -0.0063
  737loPI   C1A11115   8.981   8.069   6.768  0.3038  0.0349 -0.0650
  737loPI   C2A11116   8.952   8.046   7.234  0.0890  0.0532  0.1429
  737loPI   C3A11117   8.822   8.101   7.712 -0.4753  0.1761 -0.1283
  737loPI   C4A11118   8.860   8.294   8.124 -0.0381 -0.0331  0.0584
  737loPI   C5A11119   8.698   8.141   8.505 -0.1084 -0.1467 -0.2911
  737loPI   C6A11120   8.260   7.861   8.474  0.1566 -0.0192  0.3124
  737loPI   C1B11121   9.250   8.559   6.896  0.2617  0.0066 -0.0077
  737loPI   C2B11122   9.297   8.541   7.275 -0.1487  0.1555  0.0486
  737loPI   C3B11123   9.058   8.611   7.660  0.0254 -0.0575 -0.0373
  737loPI   C4B11124   9.101   8.755   8.097  0.2128  0.3644  0.1681
  738loPI    C111125   6.399   1.986   5.738  0.2327 -0.2563 -0.1418
  738loPI    C211126   6.117   2.060   5.464  0.0569 -0.0005  0.1027
  738loPI    C311127   6.445   2.288   5.480 -0.0451  0.1373  0.2560
  738loPI   PO411128   6.274   1.883   5.973  0.0463 -0.0452  0.0428
  738loPI   GL111129   6.197   1.953   6.348 -0.1570  0.0465  0.0759
  738loPI   GL211130   6.014   1.692   6.418  0.3266 -0.1811 -0.2133
  738loPI   C1A11131   6.293   2.096   6.666 -0.0470  0.2625  0.2837
  738loPI   C2A11132   6.404   2.099   7.105 -0.0458 -0.0726 -0.1645
  738loPI   C3A11133   6.365   2.113   7.515  0.0669 -0.0974 -0.4053
  738loPI   C4A11134   6.232   2.003   7.972  0.0260 -0.0755  0.4046
  738loPI   C5A11135   6.063   2.091   8.405 -0.2453  0.1526  0.0947
  738loPI   C6A11136   5.746   2.251   8.558 -0.0681  0.2456 -0.0715
  738loPI   C1B11137   6.097   1.707   6.818 -0.1950  0.1740  0.2826
  738loPI   C2B11138   6.179   1.719   7.272 -0.0340 -0.0132  0.2256
  738loPI   C3B11139   6.022   1.627   7.680  0.1591  0.0952 -0.1460
  738loPI   C4B11140   5.946   1.615   8.142  0.0891  0.1089  0.4925
  739loPI    C111141  12.350  11.665   5.831 -0.1991 -0.1912  0.2333
  739loPI    C211142  12.073  11.791   5.572  0.0819  0.3154  0.1655
  739loPI    C311143  12.328  11.501   5.466 -0.0634  0.2365  0.0264
  739loPI   PO411144  12.234  11.668   6.046 -0.0053  0.3852  0.1671
  739loPI   GL111145  12.317  11.535   6.482  0.2784  0.2005 -0.1737
  739loPI   GL211146  12.632  11.510   6.676 -0.1157 -0.3588 -0.1619
  739loPI   C1A11147  12.221  11.382   7.000  0.1644  0.0783 -0.1231
  739loPI   C2A11148  12.192  11.441   7.395  0.1877 -0.0095  0.1041
  739loPI   C3A11149  12.130  11.495   7.822  0.0725  0.0664 -0.1471
  739loPI   C4A11150  12.040  11.463   8.234  0.0954 -0.0331 -0.3189
  739loPI   C5A11151  12.261  11.776   8.511  0.2465  0.0272 -0.0576
  739loPI   C6A11152  12.228  11.897   8.916  0.2580  0.2885 -0.4497
  739loPI   C1B11153  12.741  11.465   7.005 -0.0401 -0.1476 -0.3662
  739loPI   C2B11154  12.724  11.505   7.417 -0.0488 -0.0975  0.0635
  739loPI   C3B11155  12.687  11.442   7.871  0.0464 -0.3419 -0.1052
  739loPI   C4B11156  12.543  11.488   8.183  0.0333 -0.0154 -0.0171
  740loPI    C111157   4.706  14.086   5.626 -0.0926 -0.0184  0.0412
  740loPI    C211158   4.890  13.852   5.359 -0.2645  0.0260 -0.1182
  740loPI    C311159   5.092  14.146   5.539  0.0404 -0.4326  0.3161
  740loPI   PO411160   4.614  13.956   5.830  0.2333  0.1022 -0.1166
  740loPI   GL111161   4.764  13.674   6.291 -0.0274  0.1648  0.1981
  740loPI   GL211162   4.670  13.371   6.197 -0.3199  0.0544 -0.0626
  740loPI   C1A11163   4.553  13.603   6.788 -0.3163 -0.1906 -0.3890
  740loPI   C2A11164   4.653  13.699   7.228 -0.0794 -0.0421 -0.2409
  740loPI   C3A11165   4.699  13.636   7.629 -0.0326  0.1280 -0.1341
  740loPI   C4A11166   4.595  13.737   8.010  0.1480  0.0633  0.1069
  740loPI   C5A11167   4.509  13.775   8.543  0.1460 -0.0473  0.0258
  740loPI   C6A11168   4.405  13.588   8.926 -0.0699 -0.0339 -0.0363
  740loPI   C1B11169   4.443  13.132   6.633 -0.0580 -0.2223 -0.0186
  740loPI   C2B11170   4.408  13.205   7.026  0.1746 -0.0365 -0.2654
  740loPI   C3B11171   4.374  13.214   7.472 -0.3308 -0.0825  0.0594
  740loPI   C4B11172   4.461  13.262   7.930  0.0216  0.0819 -0.0740
  741loPI    C111173   2.063  14.609   5.984  0.0218  0.1746  0.1651
  741loPI    C211174   2.240  14.534   5.633 -0.3010 -0.0043  0.0350
  741loPI    C311175   2.137  14.909   5.730 -0.3101  0.0313 -0.1101
  741loPI   PO411176   2.230  14.553   6.187  0.4441 -0.1218 -0.0995
  741loPI   GL111177   2.144  14.507   6.628  0.0396 -0.2152 -0.0119
  741loPI   GL211178   2.476  14.434   6.839  0.2001  0.2118  0.1568
  741loPI   C1A11179   2.021  14.489   7.057 -0.1659  0.0122 -0.3253
  741loPI   C2A11180   1.987  14.552   7.480  0.1143  0.0754  0.4960
  741loPI   C3A11181   1.957  14.577   7.906 -0.1242 -0.3173 -0.0154
  741loPI   C4A11182   1.876  14.517   8.365  0.4540 -0.0983  0.2706
  741loPI   C5A11183   1.698  14.537   8.827 -0.0829 -0.2493  0.1124
  741loPI   C6A11184   1.498  14.810   9.034  0.1972  0.1430  0.2133
  741loPI   C1B11185   2.536  14.422   7.271  0.1510  0.1156  0.0355
  741loPI   C2B11186   2.524  14.516   7.712 -0.0278 -0.2604 -0.0047
  741loPI   C3B11187   2.460  14.581   8.071  0.1985  0.0300 -0.1334
  741loPI   C4B11188   2.436  14.402   8.489  0.1919 -0.4130  0.1585
  742loPI    C111189   0.132   6.376   5.639  0.0832 -0.0552 -0.1181
  742loPI    C211190  -0.048   6.028   5.721  0.1043 -0.0437 -0.0214
  742loPI    C311191  -0.141   6.228   5.387  0.1169 -0.1586 -0.0942
  742loPI   PO411192   0.326   6.311   5.868  0.3614 -0.0253 -0.0664
  742loPI   GL111193   0.369   6.358   6.384  0.0555 -0.0161  0.3099
  742loPI   GL211194   0.593   6.175   6.243 -0.1570  0.2560 -0.0241
  742loPI   C1A11195   0.135   6.429   6.714 -0.1816  0.0688 -0.0579
  742loPI   C2A11196  -0.104   6.674   7.013 -0.3167  0.0018  0.0274
  742loPI   C3A11197  -0.071   6.596   7.494  0.2396  0.2009 -0.2829
  742loPI   C4A11198  -0.150   6.568   7.882  0.2569  0.1027  0.0013
  742loPI   C5A11199  -0.134   6.559   8.350 -0.2518 -0.1618  0.3144
  742loPI   C6A11200  -0.108   6.794   8.761 -0.1757 -0.1349  0.3650
  742loPI   C1B11201   0.779   6.159   6.671  0.2001 -0.1755 -0.0890
  742loPI   C2B11202   0.764   6.144   7.163 -0.0849 -0.1941 -0.0280
  742loPI   C3B11203   0.684   6.017   7.477 -0.0942 -0.0445 -0.2236
  742loPI   C4B11204   0.652   6.190   7.864 -0.1845  0.2562  0.0076
  743loPI    C111205  14.952  11.861   6.265 -0.2213  0.1892 -0.2091
  743loPI    C211206  15.067  12.245   6.271 -0.0741  0.1467 -0.2652
  743loPI    C311207  15.178  12.008   5.969  0.0416 -0.0031 -0.1073
  743loPI   PO411208  15.041  11.766   6.494  0.0193 -0.1099  0.0564
  743loPI   GL111209  15.165  11.834   6.814  0.1577  0.2356 -0.1965
  743loPI   GL211210  15.334  12.153   6.785 -0.0843  0.0839  0.3353
  743loPI   C1A11211  15.016  11.975   7.284 -0.0893  0.1515  0.0490
  743loPI   C2A11212  15.017  11.981   7.761 -0.2084 -0.1779 -0.1587
  743loPI   C3A11213  15.032  12.081   8.240 -0.1852  0.0570  0.1549
  743loPI   C4A11214  14.838  11.963   8.747 -0.0634 -0.0018 -0.3484
  743loPI   C5A11215  14.496  11.843   8.813 -0.1494 -0.1432 -0.0662
  743loPI   C6A11216  13.937  11.757   8.886  0.1700  0.0808 -0.1363
  743loPI   C1B11217  15.281  12.437   7.160  0.1230 -0.2064 -0.1739
  743loPI   C2B11218  15.200  12.434   7.573  0.0731  0.1368 -0.0111
  743loPI   C3B11219  15.258  12.439   8.034 -0.0434 -0.1787 -0.0396
  743loPI   C4B11220  15.274  12.484   8.509  0.2756 -0.0637  0.2392
  744loPI    C111221   0.817  16.553   6.042  0.1536 -0.1928  0.3871
  744loPI    C211222   0.880  16.902   6.226  0.4160 -0.0908  0.1138
  744loPI    C311223   0.910  16.878   5.828 -0.0859 -0.3203  0.0819
  744loPI   PO411224   0.657  16.493   6.182 -0.1152  0.0121  0.4115
  744loPI   GL111225   0.611  16.564   6.544  0.2036 -0.3916  0.0463
  744loPI   GL211226   0.723  16.286   6.659  0.0043 -0.0339 -0.2583
  744loPI   C1A11227   0.631  16.759   7.045  0.1147  0.0726 -0.1003
  744loPI   C2A11228   0.636  16.771   7.445  0.1830  0.1998  0.0554
  744loPI   C3A11229   0.561  16.692   7.802  0.3364 -0.1316 -0.1859
  744loPI   C4A11230   0.675  16.646   8.358 -0.1571 -0.1496 -0.0039
  744loPI   C5A11231   0.779  16.471   8.743 -0.4122  0.0902  0.0305
  744loPI   C6A11232   0.486  16.540   9.088  0.1637 -0.3409  0.0893
  744loPI   C1B11233   0.987  16.328   6.961 -0.0957  0.0027 -0.0179
  744loPI   C2B11234   0.958  16.411   7.403  0.3334  0.0038  0.1563
  744loPI   C3B11235   0.895  16.215   7.872  0.1132  0.4209  0.2615
  744loPI   C4B11236   0.815  16.170   8.328 -0.2818  0.2187 -0.0528
  745loPI    C111237   5.187   2.510   5.608 -0.0596 -0.2602 -0.1091
  745loPI    C211238   4.995   2.392   5.278 -0.0980 -0.0722 -0.1552
  745loPI    C311239   5.165   2.753   5.292  0.0487 -0.1450 -0.0288
  745loPI   PO411240   4.924   2.434   5.846  0.1739  0.2026 -0.1754
  745loPI   GL111241   4.868   2.404   6.292 -0.1088 -0.3010  0.1005
  745loPI   GL211242   4.916   2.649   6.508  0.0977  0.0056  0.2972
  745loPI   C1A11243   4.720   2.177   6.669 -0.0888  0.2793  0.2959
  745loPI   C2A11244   4.752   2.043   7.021 -0.1258  0.0000  0.1781
  745loPI   C3A11245   4.653   2.055   7.447  0.0985 -0.1393  0.3539
  745loPI   C4A11246   4.679   2.137   7.821  0.0155  0.1242 -0.3156
  745loPI   C5A11247   4.800   2.142   8.320  0.0560  0.1257 -0.2225
  745loPI   C6A11248   4.847   2.394   8.614 -0.1131  0.0936  0.1153
  745loPI   C1B11249   4.966   2.489   7.006  0.1479  0.1622  0.1557
  745loPI   C2B11250   5.011   2.532   7.451 -0.0712 -0.5378  0.1769
  745loPI   C3B11251   4.979   2.608   7.852  0.2158  0.2135 -0.0113
  745loPI   C4B11252   5.006   2.636   8.230  0.0539  0.1494  0.2095
  746loPI    C111253  13.290   6.585   5.792  0.2738  0.0145  0.0084
  746loPI    C211254  13.471   6.526   5.441 -0.0381 -0.0059 -0.1529
  746loPI    C311255  13.273   6.867   5.509  0.1574  0.0671  0.0669
  746loPI   PO411256  13.241   6.304   5.857 -0.0185  0.0533  0.0433
  746loPI   GL111257  13.192   6.169   6.288  0.0121 -0.0145  0.4407
  746loPI   GL211258  12.999   6.332   6.420  0.3448 -0.0109 -0.1246
  746loPI   C1A11259  13.395   6.020   6.715 -0.2126 -0.3526 -0.2008
  746loPI   C2A11260  13.446   5.986   7.145 -0.2155 -0.1547  0.1401
  746loPI   C3A11261  13.434   5.904   7.526  0.1533 -0.1027 -0.3054
  746loPI   C4A11262  13.434   5.992   7.973  0.0412  0.0264 -0.1378
  746loPI   C5A11263  13.366   5.943   8.359 -0.0771 -0.1567 -0.0413
  746loPI   C6A11264  13.094   5.978   8.658  0.0752  0.1468  0.0936
  746loPI   C1B11265  13.139   6.414   6.928 -0.0871  0.3074 -0.0097
  746loPI   C2B11266  13.125   6.364   7.323 -0.2857  0.0775 -0.5463
  746loPI   C3B11267  13.201   6.397   7.799 -0.3936 -0.0135  0.0240
  746loPI   C4B11268  13.069   6.389   8.222 -0.0270  0.1143 -0.1251
  747loPI    C111269  15.203  16.817   6.227  0.1188  0.3032 -0.2248
  747loPI    C211270  15.020  16.940   5.893 -0.1308 -0.0285 -0.2158
  747loPI    C311271  15.158  16.565   5.919 -0.0709  0.0092  0.0369
  747loPI   PO411272  15.029  17.005   6.487 -0.1891 -0.1650 -0.1943
  747loPI   GL111273  15.069  17.322   6.771  0.0191 -0.0218 -0.0742
  747loPI   GL211274  14.786  17.342   6.677  0.0306  0.4069 -0.0976
  747loPI   C1A11275  15.113  17.093   7.140  0.0038 -0.1250 -0.0163
  747loPI   C2A11276  15.182  17.102   7.623  0.0540 -0.0901 -0.4249
  747loPI   C3A11277  15.177  17.110   8.049  0.0607  0.0401 -0.3443
  747loPI   C4A11278  15.189  17.033   8.515  0.4050  0.0825 -0.2447
  747loPI   C5A11279  15.143  17.068   8.913  0.0331 -0.0684  0.1927
  747loPI   C6A11280  15.432  17.276   9.286 -0.1966 -0.0738  0.1939
  747loPI   C1B11281  14.840  17.562   7.120 -0.2317  0.0711 -0.1028
  747loPI   C2B11282  14.833  17.577   7.574  0.0020  0.2767 -0.1327
  747loPI   C3B11283  14.840  17.629   8.029  0.2432 -0.2415 -0.0494
  747loPI   C4B11284  15.076  17.454   8.381  0.0730 -0.2367  0.2103
  748loPI    C111285  15.608  16.531   6.345 -0.1572  0.1737 -0.1498
  748loPI    C211286  15.962  16.387   6.228 -0.2695 -0.3744  0.1487
  748loPI    C311287  15.736  16.597   5.972  0.1958 -0.1508 -0.0912
  748loPI   PO411288  15.618  16.671   6.538 -0.0182  0.1224 -0.1478
  748loPI   GL111289  15.759  16.802   7.015 -0.0082  0.2109  0.1442
  748loPI   GL211290  15.621  17.088   6.893 -0.2875 -0.0303 -0.0292
  748loPI   C1A11291  15.918  16.690   7.429 -0.0896 -0.0848  0.1333
  748loPI   C2A11292  15.957  16.638   7.818  0.0302 -0.2714 -0.1576
  748loPI   C3A11293  16.021  16.738   8.306  0.1398 -0.0009 -0.0108
  748loPI   C4A11294  16.051  16.755   8.698 -0.0344 -0.0999  0.1172
  748loPI   C5A11295  16.199  16.329   8.940  0.1109 -0.1546  0.1368
  748loPI   C6A11296  15.942  16.035   9.199 -0.1455 -0.0720 -0.1809
  748loPI   C1B11297  15.583  17.092   7.306 -0.2244  0.1238 -0.3842
  748loPI   C2B11298  15.688  17.093   7.720 -0.0249 -0.0030 -0.1714
  748loPI   C3B11299  15.741  17.138   8.117  0.0047  0.2329  0.0465
  748loPI   C4B11300  15.781  17.149   8.559  0.2374 -0.3809  0.0490
  749loPI    C111301   8.903  10.893   5.744  0.2136 -0.0423  0.1338
  749loPI    C211302   8.831  11.078   5.396  0.1550 -0.1428  0.0921
  749loPI    C311303   9.031  10.732   5.401  0.0215 -0.2202  0.1440
  749loPI   PO411304   8.728  10.923   5.946  0.0986 -0.1045  0.2001
  749loPI   GL111305   8.842  10.688   6.304  0.0222  0.1724 -0.1483
  749loPI   GL211306   8.943  10.879   6.580  0.1566  0.0239 -0.0187
  749loPI   C1A11307   8.767  10.377   6.701  0.0809  0.0199  0.0580
  749loPI   C2A11308   8.655  10.321   7.110 -0.1599 -0.1795 -0.1202
  749loPI   C3A11309   8.608  10.345   7.503  0.1538 -0.2805  0.1434
  749loPI   C4A11310   8.584  10.394   7.999  0.1666  0.0369  0.0444
  749loPI   C5A11311   8.388  10.302   8.355  0.1008  0.1150  0.2370
  749loPI   C6A11312   8.508  10.191   8.767 -0.2329 -0.1005  0.2366
  749loPI   C1B11313   8.945  10.811   7.059 -0.1148 -0.1805 -0.3883
  749loPI   C2B11314   8.917  10.823   7.476 -0.0273 -0.3840 -0.1163
  749loPI   C3B11315   8.799  10.874   7.881  0.1518  0.1993 -0.1782
  749loPI   C4B11316   8.844  10.566   8.391 -0.2608  0.2715  0.0356
  750loPI    C111317  15.451   3.844   5.739  0.1074  0.0522 -0.1019
  750loPI    C211318  15.665   3.662   5.455  0.0443 -0.0417 -0.0898
  750loPI    C311319  15.271   3.710   5.408  0.0680  0.1346 -0.1140
  750loPI   PO411320  15.598   3.641   5.998  0.0935  0.1469  0.3520
  750loPI   GL111321  15.523   3.720   6.449 -0.2598  0.3258  0.3270
  750loPI   GL211322  15.726   3.650   6.685 -0.1577 -0.0180 -0.0679
  750loPI   C1A11323  15.378   3.861   6.901 -0.0430 -0.1065  0.1208
  750loPI   C2A11324  15.280   3.792   7.326 -0.1911  0.1644 -0.1741
  750loPI   C3A11325  15.276   3.731   7.726  0.1831  0.1857  0.1335
  750loPI   C4A11326  15.278   3.698   8.168  0.1116  0.1079  0.0363
  750loPI   C5A11327  15.204   3.697   8.544 -0.0823  0.2509 -0.1056
  750loPI   C6A11328  15.155   3.727   9.027 -0.0360 -0.0366  0.0561
  750loPI   C1B11329  15.909   3.828   7.061 -0.1023 -0.1799 -0.0208
  750loPI   C2B11330  15.846   3.802   7.469  0.0753  0.1975 -0.0875
  750loPI   C3B11331  15.831   3.735   7.888 -0.1809  0.4086  0.2959
  750loPI   C4B11332  15.768   3.774   8.313  0.0079  0.1947  0.1230
  751loPI    C111333   1.604   0.097   6.013 -0.0426 -0.2111 -0.0523
  751loPI    C211334   1.834  -0.040   5.716  0.1771 -0.1212  0.0748
  751loPI    C311335   1.503   0.168   5.633  0.2586 -0.0620 -0.1074
  751loPI   PO411336   1.830   0.200   6.195  0.1612  0.2732 -0.0370
  751loPI   GL111337   2.102   0.077   6.547 -0.1260  0.0710 -0.1914
  751loPI   GL211338   2.186   0.337   6.583  0.1605  0.1384 -0.0077
  751loPI   C1A11339   1.975  -0.195   6.866  0.3293 -0.1218  0.1399
  751loPI   C2A11340   1.921  -0.156   7.230  0.1274 -0.1603  0.0738
  751loPI   C3A11341   1.860  -0.208   7.729  0.1570 -0.3066  0.0921
  751loPI   C4A11342   1.974  -0.169   8.152  0.3493  0.1580  0.1070
  751loPI   C5A11343   1.920  -0.229   8.479 -0.1922  0.0547  0.0585
  751loPI   C6A11344   2.062  -0.387   8.881  0.2345 -0.3673  0.0186
  751loPI   C1B11345   2.134   0.247   7.086 -0.1623  0.0685 -0.1843
  751loPI   C2B11346   2.135   0.243   7.526  0.1042 -0.0795 -0.0358
  751loPI   C3B11347   2.168   0.236   7.922 -0.1920 -0.1791  0.0914
  751loPI   C4B11348   2.185   0.298   8.343 -0.1413 -0.0929  0.0374
  752loPI    C111349   8.991   5.936   5.765 -0.0332 -0.0211 -0.3338
  752loPI    C211350   9.339   5.983   5.573  0.0853 -0.0709 -0.1333
  752loPI    C311351   9.046   5.770   5.405  0.1022  0.0829 -0.3622
  752loPI   PO411352   9.032   5.823   5.984 -0.0254 -0.0615  0.4481
  752loPI   GL111353   8.858   5.759   6.387 -0.1096  0.2429 -0.3928
  752loPI   GL211354   9.190   5.859   6.565 -0.0202 -0.2372  0.1785
  752loPI   C1A11355   8.781   5.873   6.839 -0.0485 -0.1671  0.1880
  752loPI   C2A11356   8.767   5.768   7.251 -0.1279 -0.1134  0.1606
  752loPI   C3A11357   8.810   5.809   7.681  0.0703  0.2641  0.1541
  752loPI   C4A11358   8.727   5.898   8.072  0.0407 -0.2173  0.0369
  752loPI   C5A11359   8.595   5.839   8.492 -0.1494  0.1190 -0.2253
  752loPI   C6A11360   8.237   5.858   8.734 -0.2454  0.0818 -0.0296
  752loPI   C1B11361   9.246   5.831   7.058  0.1936 -0.2676  0.1062
  752loPI   C2B11362   9.270   5.738   7.471  0.1799 -0.2067 -0.2247
  752loPI   C3B11363   9.376   5.859   7.885  0.2638 -0.2160 -0.2070
  752loPI   C4B11364   9.261   5.892   8.321  0.3950  0.1967  0.0512
  753loPI    C111365  16.615  13.511   6.211 -0.2360 -0.3243 -0.1367
  753loPI    C211366  16.967  13.515   6.020 -0.0597 -0.2182  0.1846
  753loPI    C311367  16.644  13.363   5.840  0.0782 -0.0289 -0.2351
  753loPI   PO411368  16.677  13.407   6.491 -0.0418 -0.1162  0.0611
  753loPI   GL111369  16.782  13.391   6.958 -0.0845 -0.1733 -0.2831
  753loPI   GL211370  16.610  13.090   6.889  0.2398 -0.0604  0.3386
  753loPI   C1A11371  16.820  13.326   7.419 -0.1689  0.0454  0.4982
  753loPI   C2A11372  16.801  13.350   7.859  0.1444 -0.0861 -0.2872
  753loPI   C3A11373  16.729  13.403   8.318  0.1542  0.1128 -0.0702
  753loPI   C4A11374  16.822  13.276   8.740  0.1862  0.1119  0.1430
  753loPI   C5A11375  17.200  13.368   8.831 -0.5275 -0.0092  0.0586
  753loPI   C6A11376  17.610  13.619   8.932  0.0929  0.0150  0.1041
  753loPI   C1B11377  16.616  12.886   7.216 -0.2962  0.1649 -0.1746
  753loPI   C2B11378  16.702  12.913   7.657  0.0353 -0.1236 -0.0265
  753loPI   C3B11379  16.504  12.905   7.973  0.0958  0.2674 -0.0129
  753loPI   C4B11380  16.558  12.910   8.400 -0.0744  0.0740 -0.0973
  754loPI    C111381  10.420   3.784   6.082 -0.0434 -0.0875 -0.1587
  754loPI    C211382  10.624   3.489   6.259 -0.1254  0.0561  0.1837
  754loPI    C311383  10.768   3.661   5.928 -0.1026 -0.3997 -0.0509
  754loPI   PO411384  10.295   3.948   6.196 -0.3411  0.0035 -0.1960
  754loPI   GL111385  10.226   4.031   6.574  0.0080  0.2994 -0.2233
  754loPI   GL211386  10.530   4.189   6.640  0.3005 -0.1839  0.2042
  754loPI   C1A11387   9.931   4.063   6.892 -0.0028 -0.2836 -0.3830
  754loPI   C2A11388   9.920   4.097   7.366  0.2671 -0.1043  0.1357
  754loPI   C3A11389   9.883   4.009   7.857 -0.2129 -0.1370 -0.1318
  754loPI   C4A11390   9.864   4.007   8.235 -0.1361 -0.1075 -0.0460
  754loPI   C5A11391   9.747   4.005   8.654 -0.0902  0.3601  0.1116
  754loPI   C6A11392   9.431   4.015   8.903  0.3635  0.0460  0.0600
  754loPI   C1B11393  10.422   4.159   7.062 -0.0405 -0.0626 -0.1639
  754loPI   C2B11394  10.389   4.122   7.528  0.0285 -0.1030 -0.0558
  754loPI   C3B11395  10.375   4.004   7.893 -0.1004  0.1775  0.4124
  754loPI   C4B11396  10.440   3.905   8.313 -0.1893 -0.0097 -0.3523
  755loPI    C111397   6.039   9.937   5.885  0.0898 -0.3083 -0.1015
  755loPI    C211398   5.650   9.866   5.825  0.0477 -0.1341 -0.0422
  755loPI    C311399   5.924   9.606   5.692 -0.0885 -0.2589 -0.0819
  755loPI   PO411400   6.040  10.010   6.137  0.1793  0.2562  0.0334
  755loPI   GL111401   5.849   9.842   6.569 -0.0140  0.1565 -0.0357
  755loPI   GL211402   6.044   9.465   6.669  0.1586  0.0442  0.2596
  755loPI   C1A11403   5.828   9.836   7.008  0.4566  0.1401  0.1988
  755loPI   C2A11404   5.725   9.799   7.443  0.0927 -0.0623  0.4513
  755loPI   C3A11405   5.804   9.750   7.810 -0.0361 -0.1818  0.3848
  755loPI   C4A11406   5.683   9.688   8.297  0.2122  0.0103  0.0035
  755loPI   C5A11407   5.829   9.687   8.740  0.0263  0.0379  0.0212
  755loPI   C6A11408   6.139   9.749   9.131 -0.1301  0.1841 -0.2246
  755loPI   C1B11409   6.047   9.416   7.117 -0.0104  0.0199  0.2002
  755loPI   C2B11410   5.980   9.353   7.524 -0.2763  0.1812 -0.2705
  755loPI   C3B11411   6.036   9.362   7.965 -0.1201 -0.1748 -0.1173
  755loPI   C4B11412   5.972   9.289   8.494 -0.0720  0.0039 -0.3275
  756loPI    C111413   3.871   8.536   5.878 -0.2792  0.2266 -0.1686
  756loPI    C211414   4.175   8.345   5.700 -0.0919  0.3067  0.0614
  756loPI    C311415   3.869   8.481   5.481 -0.0329  0.0986 -0.1542
  756loPI   PO411416   3.978   8.585   6.118  0.2881  0.0046 -0.3274
  756loPI   GL111417   3.815   8.431   6.558  0.0127 -0.0067 -0.0951
  756loPI   GL211418   3.975   8.280   6.790 -0.0984 -0.2465  0.0286
  756loPI   C1A11419   3.746   8.697   6.883 -0.0034 -0.0092 -0.1147
  756loPI   C2A11420   3.791   8.798   7.343 -0.1686  0.0912 -0.2201
  756loPI   C3A11421   3.725   8.797   7.711  0.0004  0.0038 -0.2420
  756loPI   C4A11422   3.768   8.841   8.127 -0.0170  0.5912  0.0787
  756loPI   C5A11423   3.526   8.787   8.371 -0.2695 -0.2822  0.0435
  756loPI   C6A11424   3.128   8.680   8.674 -0.0319  0.1138 -0.1540
  756loPI   C1B11425   3.978   8.317   7.227 -0.0968  0.1080 -0.3835
  756loPI   C2B11426   4.058   8.378   7.663 -0.1308 -0.1020  0.1180
  756loPI   C3B11427   3.919   8.345   8.075 -0.0386 -0.0696  0.2273
  756loPI   C4B11428   4.048   8.427   8.437 -0.1718  0.0244 -0.3684
  757loPI    C111429   5.016  15.787   5.692  0.0360  0.0549 -0.1348
  757loPI    C211430   5.370  15.762   5.876  0.0008  0.2757 -0.0337
  757loPI    C311431   5.320  15.598   5.514  0.1139 -0.0303  0.0859
  757loPI   PO411432   4.908  15.936   5.879  0.1640 -0.1065  0.2043
  757loPI   GL111433   4.841  16.146   6.315 -0.1029  0.1633 -0.0384
  757loPI   GL211434   5.017  16.376   6.580  0.1770  0.0537  0.2492
  757loPI   C1A11435   4.808  15.941   6.798 -0.1577 -0.0458 -0.0006
  757loPI   C2A11436   4.801  15.927   7.159 -0.0316 -0.1558 -0.0587
  757loPI   C3A11437   4.771  15.968   7.631 -0.2071  0.0326 -0.0752
  757loPI   C4A11438   4.811  15.973   8.127  0.0076  0.1037  0.1517
  757loPI   C5A11439   4.656  15.893   8.548 -0.0489  0.2713 -0.0581
  757loPI   C6A11440   4.279  15.643   8.757  0.3047  0.0012  0.0887
  757loPI   C1B11441   5.038  16.340   7.054 -0.2840  0.0204 -0.2447
  757loPI   C2B11442   5.021  16.433   7.524  0.0286 -0.1165  0.1205
  757loPI   C3B11443   5.042  16.418   7.942 -0.3272 -0.2024 -0.0788
  757loPI   C4B11444   4.937  16.416   8.329 -0.0861 -0.0063 -0.2633
  758loPI    C111445  16.781   3.348   5.903 -0.2988  0.2350 -0.1444
  758loPI    C211446  17.013   3.613   5.712  0.0962 -0.0761 -0.1093
  758loPI    C311447  17.114   3.226   5.717 -0.2328 -0.1636  0.2210
  758loPI   PO411448  16.751   3.553   6.229  0.0419  0.2839 -0.1028
  758loPI   GL111449  17.018   3.620   6.582 -0.1406 -0.5428 -0.3440
  758loPI   GL211450  16.961   3.922   6.719 -0.1787 -0.0748 -0.2625
  758loPI   C1A11451  17.183   3.405   6.830  0.2414  0.1384  0.0013
  758loPI   C2A11452  17.154   3.379   7.280 -0.0813 -0.0012  0.4190
  758loPI   C3A11453  17.153   3.408   7.706  0.0350 -0.1733  0.0949
  758loPI   C4A11454  17.083   3.363   8.086  0.1437 -0.0842  0.0943
  758loPI   C5A11455  17.004   3.194   8.463  0.0160 -0.0745  0.0600
  758loPI   C6A11456  16.906   2.709   8.498 -0.1805  0.2432  0.0867
  758loPI   C1B11457  16.902   3.777   7.076  0.0986 -0.2870 -0.3625
  758loPI   C2B11458  16.812   3.873   7.545  0.0648 -0.2740  0.1303
  758loPI   C3B11459  16.837   3.803   7.963  0.4080 -0.3540  0.0890
  758loPI   C4B11460  16.899   3.872   8.360  0.4236  0.0067 -0.0641
  759loPI    C111461   7.686  17.145   5.622 -0.0494  0.0044  0.0743
  759loPI    C211462   7.867  16.863   5.404  0.0298  0.0454  0.0864
  759loPI    C311463   7.484  16.957   5.332 -0.0636 -0.2181  0.2265
  759loPI   PO411464   7.800  17.108   5.915  0.0797  0.0809 -0.0904
  759loPI   GL111465   7.712  17.052   6.377 -0.0782  0.0407  0.0481
  759loPI   GL211466   7.896  17.346   6.378  0.2387 -0.1807  0.0290
  759loPI   C1A11467   7.574  17.309   6.768 -0.1454 -0.0113  0.1857
  759loPI   C2A11468   7.588  17.381   7.209 -0.2097 -0.0557 -0.2774
  759loPI   C3A11469   7.535  17.334   7.639 -0.2901  0.0160  0.0345
  759loPI   C4A11470   7.607  17.384   8.113  0.1493  0.0746 -0.0299
  759loPI   C5A11471   7.604  17.298   8.493  0.0676 -0.0598  0.1834
  759loPI   C6A11472   7.444  17.210   8.929  0.2485  0.0377 -0.0308
  759loPI   C1B11473   8.139  17.235   6.745  0.0657  0.1946  0.0276
  759loPI   C2B11474   8.154  17.286   7.126 -0.1344  0.4501  0.0352
  759loPI   C3B11475   8.091  17.347   7.489 -0.3146 -0.1142 -0.1535
  759loPI   C4B11476   8.078  17.380   7.983 -0.1856 -0.1375  0.3626
  760loPI    C111477   7.509  10.244   5.863  0.1116 -0.0112 -0.2011
  760loPI    C211478   7.180  10.253   5.636  0.1097 -0.2778 -0.2123
  760loPI    C311479   7.412   9.927   5.640  0.1172 -0.2725  0.1581
  760loPI   PO411480   7.418  10.341   6.176  0.1653 -0.2472 -0.5670
  760loPI   GL111481   7.194  10.277   6.468  0.0573 -0.1249  0.0826
  760loPI   GL211482   6.808  10.269   6.566  0.0710  0.1437 -0.0659
  760loPI   C1A11483   7.140  10.232   6.959 -0.1133 -0.0388 -0.0781
  760loPI   C2A11484   6.962  10.322   7.387  0.1044 -0.1307  0.5022
  760loPI   C3A11485   7.003  10.368   7.844 -0.2027  0.1443 -0.2134
  760loPI   C4A11486   6.939  10.292   8.290 -0.2512  0.3073  0.1557
  760loPI   C5A11487   6.713  10.336   8.653  0.1575 -0.0461 -0.0410
  760loPI   C6A11488   6.344  10.360   8.949  0.3686 -0.1889  0.0691
  760loPI   C1B11489   6.600  10.282   6.980 -0.1341 -0.1198  0.1664
  760loPI   C2B11490   6.449  10.341   7.452  0.1512  0.1590  0.0676
  760loPI   C3B11491   6.506  10.302   7.767 -0.0414 -0.0728  0.0340
  760loPI   C4B11492   6.460  10.248   8.100 -0.2176 -0.0425 -0.0409
  761loPI    C111493  10.391  14.249   5.761  0.0740 -0.3038 -0.1043
  761loPI    C211494  10.603  14.436   5.477 -0.1988  0.2699  0.0545
  761loPI    C311495  10.370  14.125   5.381  0.1988  0.0505 -0.2314
  761loPI   PO411496  10.478  14.533   5.981 -0.0454 -0.1142 -0.3282
  761loPI   GL111497  10.327  14.596   6.364 -0.2003 -0.1986 -0.0950
  761loPI   GL211498  10.626  14.466   6.507  0.2015  0.0758 -0.0839
  761loPI   C1A11499  10.124  14.560   6.837  0.2587 -0.1262  0.1213
  761loPI   C2A11500  10.208  14.557   7.229  0.1976  0.1894 -0.1199
  761loPI   C3A11501  10.250  14.665   7.706 -0.1254 -0.4290 -0.0932
  761loPI   C4A11502  10.466  14.730   8.114  0.0652  0.1182 -0.3027
  761loPI   C5A11503  10.557  14.909   8.437  0.0782 -0.1658 -0.0141
  761loPI   C6A11504  10.840  14.973   8.832 -0.1382 -0.1801 -0.0761
  761loPI   C1B11505  10.670  14.592   6.959 -0.3383  0.1097  0.3249
  761loPI   C2B11506  10.707  14.640   7.386 -0.2017 -0.1108  0.2494
  761loPI   C3B11507  10.935  14.757   7.810  0.2034 -0.0210  0.1585
  761loPI   C4B11508  10.912  14.546   8.268 -0.0887  0.1358 -0.0525
  762loPI    C111509   4.216  16.626   5.700 -0.0451 -0.0663 -0.3338
  762loPI    C211510   4.591  16.719   5.596  0.0324 -0.1035 -0.0934
  762loPI    C311511   4.388  16.444   5.389  0.0635  0.0657 -0.3524
  762loPI   PO411512   4.147  16.634   5.962  0.2339 -0.1375  0.1216
  762loPI   GL111513   4.116  16.609   6.298  0.2417 -0.0140 -0.1509
  762loPI   GL211514   4.372  16.379   6.353 -0.2127  0.1556  0.0052
  762loPI   C1A11515   4.201  16.738   6.775 -0.0083  0.1691  0.3679
  762loPI   C2A11516   4.259  16.826   7.203  0.1597  0.2486 -0.0630
  762loPI   C3A11517   4.329  16.872   7.603  0.0486 -0.0102 -0.1872
  762loPI   C4A11518   4.177  16.875   7.999 -0.1687 -0.0479 -0.0562
  762loPI   C5A11519   4.157  16.960   8.430 -0.2560  0.0828 -0.0716
  762loPI   C6A11520   4.292  17.233   8.700 -0.2091  0.1752  0.0796
  762loPI   C1B11521   4.527  16.376   6.683  0.2872  0.1450  0.1972
  762loPI   C2B11522   4.555  16.461   7.117 -0.1691 -0.1521 -0.0421
  762loPI   C3B11523   4.478  16.404   7.547 -0.0958  0.2465 -0.0145
  762loPI   C4B11524   4.559  16.387   7.891 -0.1196  0.2759 -0.1634
  763loPI    C111525   7.283  12.823   6.091 -0.0765 -0.1466  0.0767
  763loPI    C211526   7.350  12.679   5.724 -0.2001  0.2533 -0.1085
  763loPI    C311527   7.588  12.963   5.874 -0.0971  0.0299  0.1604
  763loPI   PO411528   7.225  12.679   6.217  0.1522 -0.3259 -0.0094
  763loPI   GL111529   7.322  12.466   6.564  0.0523  0.0233 -0.0837
  763loPI   GL211530   7.319  12.745   6.675  0.1904  0.0443  0.2218
  763loPI   C1A11531   7.241  12.265   6.927 -0.0357  0.0544 -0.1662
  763loPI   C2A11532   7.119  12.350   7.325  0.1349  0.1917 -0.1404
  763loPI   C3A11533   7.093  12.458   7.829  0.2270  0.1752  0.0185
  763loPI   C4A11534   7.074  12.627   8.241  0.0093 -0.2577  0.4131
  763loPI   C5A11535   7.268  12.833   8.648 -0.1073  0.4079 -0.4192
  763loPI   C6A11536   7.046  13.271   8.839  0.3351  0.0722 -0.2561
  763loPI   C1B11537   7.094  12.795   7.074  0.2326 -0.2981  0.2486
  763loPI   C2B11538   7.029  12.829   7.391  0.2949 -0.0619 -0.0541
  763loPI   C3B11539   6.791  12.914   7.825  0.0765  0.0210 -0.0188
  763loPI   C4B11540   6.839  13.169   8.199  0.1200  0.1563 -0.0708
  764loPI    C111541  11.055  13.686   5.736 -0.0455  0.1240 -0.1256
  764loPI    C211542  10.877  14.005   5.572 -0.3514  0.0210 -0.0010
  764loPI    C311543  11.038  13.723   5.338 -0.1569  0.2218 -0.1124
  764loPI   PO411544  11.146  13.836   5.946  0.0601 -0.1036  0.0310
  764loPI   GL111545  11.309  13.853   6.401 -0.2110  0.0853 -0.0927
  764loPI   GL211546  10.991  14.087   6.539  0.2346 -0.0058  0.2696
  764loPI   C1A11547  11.290  13.718   6.825  0.1522  0.2324 -0.0682
  764loPI   C2A11548  11.323  13.784   7.265  0.3349 -0.1600 -0.1566
  764loPI   C3A11549  11.319  13.765   7.725 -0.1381 -0.0457  0.1474
  764loPI   C4A11550  11.293  13.670   8.107 -0.3800 -0.1762  0.1521
  764loPI   C5A11551  11.274  13.578   8.545 -0.3239  0.0672  0.4931
  764loPI   C6A11552  11.035  13.315   8.849 -0.1081  0.0391 -0.6073
  764loPI   C1B11553  11.024  14.177   7.066 -0.1598 -0.0094 -0.2113
  764loPI   C2B11554  11.062  14.178   7.474  0.0196  0.1846 -0.2099
  764loPI   C3B11555  11.167  14.209   7.888  0.3019  0.1177  0.3305
  764loPI   C4B11556  11.158  14.039   8.370  0.0436 -0.1319  0.0521
  765loPI    C111557   8.229   6.356   5.761  0.0871 -0.1163  0.1163
  765loPI    C211558   8.438   6.085   5.554  0.1604 -0.0090  0.0490
  765loPI    C311559   8.340   6.435   5.385 -0.2099 -0.1198  0.0253
  765loPI   PO411560   8.236   6.237   6.064  0.0983 -0.1373  0.1010
  765loPI   GL111561   8.149   6.019   6.285  0.2215 -0.3461  0.0029
  765loPI   GL211562   8.371   5.911   6.545  0.0617 -0.0168  0.0711
  765loPI   C1A11563   7.981   6.241   6.698  0.1131  0.2445 -0.2659
  765loPI   C2A11564   7.982   6.208   7.159 -0.1227 -0.1905 -0.0132
  765loPI   C3A11565   7.988   6.249   7.626 -0.0963 -0.0509  0.1497
  765loPI   C4A11566   8.017   6.302   8.061 -0.2041  0.1629 -0.2179
  765loPI   C5A11567   8.035   6.288   8.560  0.0806 -0.0538  0.1942
  765loPI   C6A11568   8.077   6.358   8.996 -0.4203  0.2243  0.2647
  765loPI   C1B11569   8.227   5.795   6.895  0.1310 -0.1033  0.1045
  765loPI   C2B11570   8.233   5.767   7.310 -0.4613 -0.1462 -0.0989
  765loPI   C3B11571   8.276   5.821   7.714 -0.1475  0.0570  0.2631
  765loPI   C4B11572   8.224   5.881   8.109  0.1311  0.2015 -0.5860
  766loPI    C111573  13.368  17.372   5.688  0.0864 -0.2080  0.0394
  766loPI    C211574  13.327  17.530   5.323 -0.2128  0.1550  0.2225
  766loPI    C311575  13.171  17.171   5.404  0.0092 -0.0071 -0.0513
  766loPI   PO411576  13.339  17.639   5.854 -0.0286 -0.0229 -0.0537
  766loPI   GL111577  13.342  17.601   6.273 -0.4534 -0.0015 -0.2393
  766loPI   GL211578  13.317  17.920   6.360 -0.0777 -0.2177  0.1080
  766loPI   C1A11579  13.466  17.397   6.636  0.2503 -0.0107  0.1946
  766loPI   C2A11580  13.363  17.318   7.027  0.2112  0.0350  0.2243
  766loPI   C3A11581  13.303  17.476   7.397  0.0860  0.0603 -0.1609
  766loPI   C4A11582  13.284  17.474   7.840 -0.0675  0.2489  0.2965
  766loPI   C5A11583  13.480  17.582   8.273  0.1877  0.1368 -0.1247
  766loPI   C6A11584  13.870  17.559   8.533 -0.2685 -0.0518 -0.0673
  766loPI   C1B11585  13.130  17.779   6.751 -0.0088  0.0545 -0.0497
  766loPI   C2B11586  13.066  17.829   7.132  0.0754 -0.1439 -0.1450
  766loPI   C3B11587  13.074  17.910   7.539  0.0004 -0.1820 -0.2595
  766loPI   C4B11588  13.074  17.929   7.960  0.2176  0.1314 -0.0778
  767loPI    C111589   9.699   6.293   5.633 -0.1282  0.0146 -0.0052
  767loPI    C211590  10.045   6.097   5.589 -0.0370  0.1506  0.0979
  767loPI    C311591   9.783   6.111   5.287  0.0063 -0.0309  0.0508
  767loPI   PO411592   9.657   6.257   5.904 -0.1486 -0.1547  0.3823
  767loPI   GL111593   9.652   6.400   6.355  0.2943 -0.2704  0.2513
  767loPI   GL211594   9.857   6.681   6.456 -0.4168  0.0899  0.0672
  767loPI   C1A11595   9.434   6.220   6.735 -0.1487 -0.4413  0.1699
  767loPI   C2A11596   9.515   6.226   7.123 -0.1454 -0.3197  0.1362
  767loPI   C3A11597   9.517   6.264   7.525 -0.0532 -0.1719  0.3004
  767loPI   C4A11598   9.537   6.299   8.011 -0.0855 -0.0862 -0.0377
  767loPI   C5A11599   9.516   6.360   8.477  0.0316 -0.0210  0.3645
  767loPI   C6A11600   9.899   6.480   8.688 -0.2671 -0.3325  0.0348
  767loPI   C1B11601   9.757   6.658   6.860 -0.2736 -0.0088 -0.1814
  767loPI   C2B11602   9.748   6.662   7.411  0.3420  0.0125 -0.2705
  767loPI   C3B11603   9.734   6.799   7.838 -0.3053 -0.2531  0.1021
  767loPI   C4B11604   9.858   6.761   8.222  0.2746  0.0981  0.1064
  768loPI    C111605  11.589   2.550   5.616 -0.1902  0.0443  0.1721
  768loPI    C211606  11.408   2.870   5.460 -0.1891  0.0718  0.2270
  768loPI    C311607  11.775   2.770   5.338 -0.3411 -0.1342 -0.0745
  768loPI   PO411608  11.581   2.556   5.858  0.0249 -0.0815  0.1106
  768loPI   GL111609  11.604   2.603   6.271  0.1739 -0.2585 -0.1333
  768loPI   GL211610  11.371   2.774   6.475 -0.3430  0.0954  0.1758
  768loPI   C1A11611  11.752   2.521   6.661  0.3622 -0.1155  0.0201
  768loPI   C2A11612  11.693   2.679   7.118 -0.1018 -0.0328 -0.0677
  768loPI   C3A11613  11.695   2.679   7.557  0.0877 -0.1874 -0.2644
  768loPI   C4A11614  11.617   2.654   8.007  0.0348 -0.2322  0.1812
  768loPI   C5A11615  11.606   2.469   8.346  0.1384  0.1260 -0.1512
  768loPI   C6A11616  11.732   2.143   8.592  0.1026 -0.0249 -0.0100
  768loPI   C1B11617  11.263   2.651   6.900 -0.0476  0.2948 -0.0137
  768loPI   C2B11618  11.187   2.611   7.319 -0.1695  0.0620  0.4858
  768loPI   C3B11619  11.197   2.599   7.741 -0.3486 -0.1151  0.1179
  768loPI   C4B11620  11.185   2.604   8.117  0.2154  0.2738 -0.0554
  769loPI    C111621   5.666   5.955   5.630  0.3223  0.0117  0.0938
  769loPI    C211622   5.802   5.698   5.355  0.0351  0.0088 -0.0492
  769loPI    C311623   5.705   6.072   5.249  0.2249  0.1057  0.1121
  769loPI   PO411624   5.655   5.768   5.801  0.1035  0.0935 -0.1508
  769loPI   GL111625   5.661   5.799   6.182 -0.0164 -0.2487  0.1707
  769loPI   GL211626   5.886   5.469   6.323  0.0696 -0.1847 -0.0312
  769loPI   C1A11627   5.727   5.824   6.678 -0.0301  0.0069  0.0466
  769loPI   C2A11628   5.715   5.765   7.138  0.0350 -0.1397  0.4081
  769loPI   C3A11629   5.724   5.808   7.486  0.1470 -0.1061  0.0228
  769loPI   C4A11630   5.600   5.823   7.879 -0.0250  0.0015  0.1522
  769loPI   C5A11631   5.628   5.880   8.319  0.0490 -0.2875  0.0127
  769loPI   C6A11632   5.489   5.811   8.716 -0.0456  0.2059  0.0360
  769loPI   C1B11633   6.011   5.370   6.752  0.3081  0.2853  0.1164
  769loPI   C2B11634   5.960   5.278   7.149 -0.2605 -0.2259  0.0232
  769loPI   C3B11635   5.954   5.328   7.512  0.1489 -0.0634  0.3424
  769loPI   C4B11636   5.855   5.377   7.907 -0.1254  0.0918 -0.0688
  770loPI    C111637   6.343   8.075   5.945  0.1129  0.0342  0.1141
  770loPI    C211638   6.416   8.448   5.820 -0.0937  0.0236 -0.0425
  770loPI    C311639   6.496   8.138   5.581 -0.0089 -0.0279  0.0519
  770loPI   PO411640   6.426   8.143   6.201 -0.2098  0.2005 -0.0485
  770loPI   GL111641   6.599   8.424   6.476 -0.0713  0.2135 -0.2302
  770loPI   GL211642   6.643   8.725   6.523 -0.0244 -0.1554  0.1065
  770loPI   C1A11643   6.479   8.528   6.935 -0.0912 -0.0066 -0.1307
  770loPI   C2A11644   6.579   8.511   7.451 -0.0186  0.5368 -0.2663
  770loPI   C3A11645   6.531   8.544   7.915  0.0375 -0.2055  0.3201
  770loPI   C4A11646   6.501   8.499   8.342  0.3324  0.0684  0.0923
  770loPI   C5A11647   6.538   8.497   8.726 -0.3763 -0.1728  0.0524
  770loPI   C6A11648   6.404   8.370   9.020 -0.3371  0.0031  0.0403
  770loPI   C1B11649   6.759   8.982   6.874 -0.1348 -0.0016  0.4530
  770loPI   C2B11650   6.768   9.010   7.314 -0.0539  0.3005 -0.0588
  770loPI   C3B11651   6.800   8.972   7.776  0.1200 -0.2297 -0.0535
  770loPI   C4B11652   6.760   8.928   8.269 -0.0331 -0.2181  0.0812
  771loPI    C111653   3.865  17.053   5.729 -0.0902 -0.1429 -0.0274
  771loPI    C211654   3.859  17.338   5.448 -0.1293  0.0253  0.1423
  771loPI    C311655   3.531  17.122   5.520 -0.1436  0.0379  0.1152
  771loPI   PO411656   4.001  17.181   5.960  0.2116  0.2847  0.0541
  771loPI   GL111657   4.165  17.131   6.420 -0.1750 -0.1586  0.2515
  771loPI   GL211658   3.892  17.095   6.472 -0.0175  0.0114 -0.1107
  771loPI   C1A11659   4.400  17.243   6.770  0.1645  0.2007  0.0820
  771loPI   C2A11660   4.445  17.302   7.133  0.0296 -0.4279 -0.1022
  771loPI   C3A11661   4.577  17.258   7.494 -0.0185 -0.2694  0.0811
  771loPI   C4A11662   4.377  17.338   7.910  0.1135 -0.0808  0.1649
  771loPI   C5A11663   4.618  17.366   8.363  0.1812 -0.0820 -0.2672
  771loPI   C6A11664   4.825  17.674   8.625  0.3450 -0.0655 -0.0619
  771loPI   C1B11665   3.925  17.170   7.001 -0.0726  0.2232  0.1796
  771loPI   C2B11666   3.938  17.286   7.421 -0.2220 -0.0340  0.0982
  771loPI   C3B11667   3.912  17.310   7.815  0.0933 -0.1655  0.3682
  771loPI   C4B11668   4.022  17.378   8.215 -0.1436  0.0388  0.0765
  772loPI    C111669   9.466   4.025   5.711  0.1793 -0.0102 -0.1328
  772loPI    C211670   9.114   3.963   5.532 -0.1073 -0.0958  0.4381
  772loPI    C311671   9.213   4.330   5.656  0.2593  0.0419 -0.2152
  772loPI   PO411672   9.482   3.954   5.933 -0.0079 -0.1015  0.2718
  772loPI   GL111673   9.462   4.274   6.231 -0.0632 -0.2650 -0.0556
  772loPI   GL211674   9.740   4.315   6.444  0.3445 -0.1861 -0.5322
  772loPI   C1A11675   9.204   4.520   6.530  0.1304  0.2588  0.0922
  772loPI   C2A11676   9.168   4.534   6.946 -0.2514 -0.0580 -0.0933
  772loPI   C3A11677   9.163   4.558   7.364 -0.1661  0.0051  0.0081
  772loPI   C4A11678   9.137   4.553   7.827  0.0292 -0.1380  0.1843
  772loPI   C5A11679   9.269   4.469   8.278  0.1699  0.1374  0.0339
  772loPI   C6A11680   9.196   4.403   8.689  0.0807  0.0823  0.2223
  772loPI   C1B11681   9.622   4.535   6.839 -0.0472 -0.0166  0.0671
  772loPI   C2B11682   9.618   4.493   7.163  0.1019 -0.3413 -0.2562
  772loPI   C3B11683   9.631   4.416   7.577 -0.4036 -0.0422 -0.2769
  772loPI   C4B11684   9.678   4.407   7.997  0.0899 -0.2175  0.0780
  773loPI    C111685   8.783   5.389   5.786  0.1612 -0.1921 -0.1920
  773loPI    C211686   8.395   5.343   5.872  0.1676  0.1033  0.0068
  773loPI    C311687   8.505   5.540   5.541  0.1488 -0.0342 -0.0819
  773loPI   PO411688   8.854   5.377   6.093  0.0587  0.1876  0.2170
  773loPI   GL111689   8.895   5.051   6.424  0.0679  0.0320  0.1062
  773loPI   GL211690   8.995   5.327   6.601  0.0573 -0.2348 -0.0334
  773loPI   C1A11691   8.835   4.896   6.799  0.1757 -0.1575 -0.2516
  773loPI   C2A11692   8.831   4.905   7.225 -0.0832 -0.1192  0.1058
  773loPI   C3A11693   8.756   4.902   7.720 -0.0283  0.4405 -0.2947
  773loPI   C4A11694   8.809   4.956   8.128  0.0614 -0.2390 -0.0224
  773loPI   C5A11695   9.047   5.016   8.496  0.0812 -0.1718  0.2885
  773loPI   C6A11696   9.236   4.865   8.916 -0.1265  0.1797 -0.2641
  773loPI   C1B11697   9.080   5.383   7.018 -0.0330  0.0105 -0.0045
  773loPI   C2B11698   8.985   5.330   7.467  0.0804 -0.1837  0.1294
  773loPI   C3B11699   9.037   5.464   7.937 -0.0140  0.0290  0.0250
  773loPI   C4B11700   8.866   5.427   8.358  0.1585 -0.3239  0.2016
  774loPI    C111701  15.428   9.395   5.571  0.0444 -0.0074  0.1493
  774loPI    C211702  15.515   9.782   5.623 -0.0672  0.0349  0.0271
  774loPI    C311703  15.134   9.663   5.603 -0.0327 -0.0735  0.0027
  774loPI   PO411704  15.613   9.285   5.808 -0.1889 -0.0922 -0.1479
  774loPI   GL111705  15.775   9.138   6.219 -0.1241  0.0869  0.0741
  774loPI   GL211706  15.819   8.819   6.364  0.0881 -0.0607  0.0980
  774loPI   C1A11707  15.651   9.185   6.604 -0.1431 -0.3073  0.2811
  774loPI   C2A11708  15.718   9.171   7.032 -0.0791 -0.4530 -0.1700
  774loPI   C3A11709  15.655   9.167   7.502  0.1081 -0.1066  0.1847
  774loPI   C4A11710  15.556   9.217   7.971 -0.0098  0.2087 -0.1166
  774loPI   C5A11711  15.406   9.146   8.370  0.0632  0.2430  0.1524
  774loPI   C6A11712  14.979   9.309   8.442  0.0721  0.1438  0.0468
  774loPI   C1B11713  15.933   8.809   6.824  0.1083 -0.1246  0.0080
  774loPI   C2B11714  15.968   8.801   7.288  0.1151 -0.1081 -0.1390
  774loPI   C3B11715  15.963   8.851   7.705 -0.3637  0.1376 -0.0664
  774loPI   C4B11716  15.876   8.829   8.043 -0.0462  0.4394 -0.0298
  775loPI    C111717  13.976   1.599   6.229 -0.0726  0.0258  0.0284
  775loPI    C211718  14.301   1.488   6.024 -0.2048 -0.1107 -0.1100
  775loPI    C311719  14.094   1.812   5.911  0.0255  0.1259  0.1306
  775loPI   PO411720  13.833   1.396   6.291  0.1086 -0.0041 -0.1973
  775loPI   GL111721  13.827   1.255   6.572  0.0162 -0.1870 -0.0510
  775loPI   GL211722  14.105   1.344   6.731  0.2402 -0.0815  0.0606
  775loPI   C1A11723  13.659   1.329   6.934  0.0314  0.1574  0.3430
  775loPI   C2A11724  13.582   1.366   7.355 -0.1649  0.1058 -0.1302
  775loPI   C3A11725  13.540   1.395   7.847  0.2391  0.1524 -0.0987
  775loPI   C4A11726  13.478   1.550   8.304 -0.0768 -0.0296 -0.0159
  775loPI   C5A11727  13.592   1.431   8.700  0.1108 -0.1566 -0.0592
  775loPI   C6A11728  13.900   1.213   9.053 -0.0673  0.1189 -0.1583
  775loPI   C1B11729  14.061   1.414   7.211  0.0993  0.0462  0.4456
  775loPI   C2B11730  14.070   1.492   7.549  0.2763  0.0048 -0.2159
  775loPI   C3B11731  14.056   1.416   7.865  0.2727  0.0583  0.1577
  775loPI   C4B11732  13.975   1.414   8.360  0.2568 -0.1076 -0.2217
  776loPI    C111733   2.378  15.385   5.523 -0.0568 -0.0691 -0.0112
  776loPI    C211734   2.563  15.056   5.390 -0.0273 -0.0335 -0.0581
  776loPI    C311735   2.681  15.417   5.264 -0.1439 -0.0119 -0.1068
  776loPI   PO411736   2.378  15.328   5.803 -0.0383 -0.0078  0.1189
  776loPI   GL111737   2.178  15.181   6.184  0.0005 -0.0016 -0.0680
  776loPI   GL211738   2.144  14.974   6.394  0.1238  0.0625 -0.1068
  776loPI   C1A11739   2.099  15.453   6.604 -0.1067 -0.1391  0.0294
  776loPI   C2A11740   2.161  15.746   6.996 -0.1152 -0.0519  0.3248
  776loPI   C3A11741   2.152  15.867   7.388 -0.0840  0.2311 -0.0290
  776loPI   C4A11742   2.126  15.861   7.845 -0.0879 -0.0150 -0.0982
  776loPI   C5A11743   2.085  15.881   8.255  0.0898 -0.2073  0.1573
  776loPI   C6A11744   2.194  16.195   8.597 -0.2943  0.3463 -0.1466
  776loPI   C1B11745   2.119  14.961   6.817 -0.0758  0.0642 -0.0908
  776loPI   C2B11746   2.190  14.956   7.254  0.4903  0.0040  0.1050
  776loPI   C3B11747   2.215  14.954   7.651 -0.0562 -0.0977 -0.1232
  776loPI   C4B11748   2.148  14.997   8.005 -0.1766  0.0786  0.0637
  777loPI    C111749   3.383   1.312   6.031 -0.0614 -0.0950 -0.1752
  777loPI    C211750   3.150   1.201   5.725  0.2988 -0.0836 -0.4617
  777loPI    C311751   3.347   1.549   5.710  0.1229  0.0372 -0.1002
  777loPI   PO411752   3.329   1.322   6.297 -0.1058  0.0806  0.0843
  777loPI   GL111753   3.150   1.401   6.695 -0.0060  0.0853 -0.0123
  777loPI   GL211754   3.339   1.645   6.683  0.1990  0.5361 -0.0783
  777loPI   C1A11755   3.188   1.294   7.135  0.1955  0.1665  0.1659
  777loPI   C2A11756   3.168   1.187   7.632 -0.0875 -0.1439 -0.0301
  777loPI   C3A11757   3.126   1.308   8.071  0.0998 -0.1349 -0.2641
  777loPI   C4A11758   3.099   1.188   8.473  0.1936  0.1217  0.0932
  777loPI   C5A11759   3.050   1.248   8.972 -0.0215 -0.1887  0.3549
  777loPI   C6A11760   3.362   1.454   9.147 -0.2008  0.2853 -0.1006
  777loPI   C1B11761   3.475   1.678   7.155  0.2053  0.0435  0.0823
  777loPI   C2B11762   3.387   1.673   7.527  0.1832  0.3344  0.1090
  777loPI   C3B11763   3.435   1.642   7.866  0.3565 -0.1306 -0.0110
  777loPI   C4B11764   3.530   1.636   8.277  0.2963  0.1928 -0.2152
  778loPI    C111765  16.291   6.154   5.986  0.1253 -0.1931  0.1000
  778loPI    C211766  16.471   5.810   5.892  0.1400 -0.1262 -0.1235
  778loPI    C311767  16.324   6.044   5.603 -0.1080 -0.0724  0.0432
  778loPI   PO411768  16.170   6.025   6.231 -0.1217  0.1396 -0.1532
  778loPI   GL111769  15.885   6.034   6.516 -0.0972  0.0445  0.0171
  778loPI   GL211770  15.695   6.229   6.553  0.1828 -0.5237 -0.1453
  778loPI   C1A11771  16.071   6.069   6.858 -0.0894  0.2680  0.0509
  778loPI   C2A11772  16.061   6.167   7.278 -0.0068  0.2062  0.2093
  778loPI   C3A11773  16.043   6.216   7.649  0.1773  0.1760 -0.1576
  778loPI   C4A11774  15.980   5.972   7.977  0.1574  0.1311  0.2184
  778loPI   C5A11775  16.028   6.012   8.425 -0.1988 -0.1669  0.1525
  778loPI   C6A11776  16.169   6.095   8.829  0.0006 -0.0123 -0.0333
  778loPI   C1B11777  15.784   6.458   6.981  0.2790 -0.0189 -0.1488
  778loPI   C2B11778  15.835   6.615   7.357  0.2489 -0.3195 -0.3894
  778loPI   C3B11779  15.757   6.607   7.816 -0.0611  0.2124 -0.1174
  778loPI   C4B11780  15.761   6.443   8.233  0.1486 -0.2040 -0.0329
  779loPI    C111781   4.950  16.665   5.950 -0.0371 -0.0404  0.0967
  779loPI    C211782   4.885  17.046   5.848  0.1431 -0.0239  0.0399
  779loPI    C311783   5.237  16.938   6.004  0.0361 -0.1377  0.2060
  779loPI   PO411784   4.764  16.587   6.113 -0.3326 -0.2529 -0.0380
  779loPI   GL111785   4.677  16.826   6.467 -0.1635 -0.1659  0.3841
  779loPI   GL211786   4.776  17.071   6.360 -0.2652  0.1926  0.0464
  779loPI   C1A11787   4.734  16.921   6.883 -0.1036  0.4174  0.0779
  779loPI   C2A11788   4.804  16.823   7.311  0.0924 -0.3690  0.1900
  779loPI   C3A11789   4.816  16.844   7.743 -0.1821  0.0088  0.1592
  779loPI   C4A11790   4.690  16.827   8.152  0.2601 -0.0325  0.0751
  779loPI   C5A11791   4.742  16.876   8.544  0.0565 -0.2955 -0.0690
  779loPI   C6A11792   4.758  17.195   8.900  0.1041 -0.0553 -0.2518
  779loPI   C1B11793   5.068  17.244   6.687 -0.0088  0.1203 -0.1280
  779loPI   C2B11794   5.053  17.268   7.073 -0.1700  0.3088 -0.0661
  779loPI   C3B11795   5.101  17.294   7.475 -0.0913 -0.2708 -0.2213
  779loPI   C4B11796   5.040  17.254   7.938 -0.3294 -0.0279  0.0081
  780loPI    C111797   7.932   3.935   5.788  0.1281  0.4382 -0.0074
  780loPI    C211798   8.257   3.928   5.554  0.0583  0.1829 -0.1002
  780loPI    C311799   7.907   4.055   5.407  0.0460  0.1580 -0.0923
  780loPI   PO411800   8.027   3.766   5.980 -0.0459  0.0399 -0.3066
  780loPI   GL111801   8.195   3.760   6.406  0.1488  0.2399 -0.2672
  780loPI   GL211802   8.129   3.393   6.399 -0.1276 -0.1072  0.2453
  780loPI   C1A11803   8.360   4.000   6.656  0.4157  0.0585  0.3024
  780loPI   C2A11804   8.397   4.021   7.006  0.2546  0.4256 -0.1298
  780loPI   C3A11805   8.365   3.990   7.390 -0.1325  0.1362  0.2058
  780loPI   C4A11806   8.418   4.026   7.938 -0.0001  0.0987 -0.0031
  780loPI   C5A11807   8.248   3.788   8.311  0.1795  0.0096 -0.0679
  780loPI   C6A11808   8.056   3.514   8.514  0.1097 -0.0343  0.0680
  780loPI   C1B11809   8.191   3.567   6.889  0.0317  0.0524  0.2031
  780loPI   C2B11810   8.149   3.587   7.313  0.3302 -0.0825 -0.0994
  780loPI   C3B11811   8.068   3.611   7.792 -0.0505 -0.1879 -0.0704
  780loPI   C4B11812   7.728   3.693   8.144  0.0245 -0.4799 -0.1467
  781loPI    C111813  12.006   6.358   5.819 -0.0279 -0.1231 -0.0932
  781loPI    C211814  11.743   6.566   5.601  0.1911  0.1127 -0.1368
  781loPI    C311815  12.072   6.417   5.429  0.1447 -0.0834 -0.0587
  781loPI   PO411816  11.874   6.368   6.041 -0.4141  0.0062 -0.1915
  781loPI   GL111817  11.721   6.413   6.547  0.1015 -0.0054 -0.1403
  781loPI   GL211818  12.023   6.393   6.482 -0.1413 -0.0308 -0.3328
  781loPI   C1A11819  11.608   6.421   6.911 -0.1173  0.0951 -0.2981
  781loPI   C2A11820  11.601   6.394   7.319 -0.1909  0.5409  0.1233
  781loPI   C3A11821  11.631   6.470   7.825  0.2042  0.0140 -0.2148
  781loPI   C4A11822  11.596   6.455   8.197  0.1672 -0.3147 -0.2888
  781loPI   C5A11823  11.503   6.597   8.565 -0.1834 -0.2578 -0.1688
  781loPI   C6A11824  11.411   6.491   8.915  0.2414  0.0737  0.0798
  781loPI   C1B11825  12.101   6.325   7.018  0.1392 -0.0172  0.2089
  781loPI   C2B11826  12.085   6.303   7.466  0.1083 -0.0901  0.0038
  781loPI   C3B11827  12.112   6.348   7.934 -0.0094 -0.0139 -0.0796
  781loPI   C4B11828  12.034   6.331   8.415 -0.1442 -0.1588  0.1504
  782loPI    C111829   2.362   1.045   5.952 -0.0710  0.4140  0.0857
  782loPI    C211830   2.656   1.122   5.692  0.0132  0.1027  0.0849
  782loPI    C311831   2.274   1.166   5.581  0.0529  0.1904 -0.0187
  782loPI   PO411832   2.398   1.048   6.189 -0.4400 -0.1155 -0.0247
  782loPI   GL111833   2.149   1.010   6.567 -0.3459 -0.0023  0.1194
  782loPI   GL211834   2.437   0.801   6.605  0.0827  0.2081  0.2050
  782loPI   C1A11835   2.133   1.161   6.956 -0.2101 -0.0460  0.0036
  782loPI   C2A11836   2.094   1.104   7.362  0.1096 -0.1323 -0.2320
  782loPI   C3A11837   2.185   1.170   7.799  0.0718 -0.0925  0.3850
  782loPI   C4A11838   2.192   1.174   8.236  0.0088  0.0244 -0.2590
  782loPI   C5A11839   2.050   1.240   8.557  0.1069  0.0976 -0.3065
  782loPI   C6A11840   1.970   1.276   9.021 -0.2306 -0.0123  0.0758
  782loPI   C1B11841   2.445   0.722   6.985 -0.1738  0.0091 -0.0565
  782loPI   C2B11842   2.383   0.655   7.374  0.3039  0.1077  0.0257
  782loPI   C3B11843   2.405   0.725   7.729 -0.3371  0.0629 -0.0408
  782loPI   C4B11844   2.432   0.739   8.162  0.0680 -0.0086  0.0275
  783loPI    C111845  15.954   2.897   6.118  0.1170  0.0665 -0.0234
  783loPI    C211846  16.037   2.842   5.731  0.0409  0.1396 -0.0504
  783loPI    C311847  15.687   2.718   5.881  0.1439 -0.0518  0.0352
  783loPI   PO411848  16.064   2.850   6.314  0.2472 -0.0724  0.0582
  783loPI   GL111849  16.296   3.078   6.531 -0.1831  0.0299  0.0412
  783loPI   GL211850  16.603   3.101   6.494  0.0943 -0.1268  0.0660
  783loPI   C1A11851  16.334   2.920   6.910  0.2322  0.0290  0.0296
  783loPI   C2A11852  16.419   2.871   7.321 -0.0071  0.0199  0.0360
  783loPI   C3A11853  16.384   2.906   7.751  0.2399 -0.2446  0.3197
  783loPI   C4A11854  16.362   2.753   8.185  0.1065 -0.1139  0.1285
  783loPI   C5A11855  16.440   2.935   8.548  0.2067  0.0163  0.0103
  783loPI   C6A11856  16.564   2.913   8.967  0.1075  0.0784  0.3589
  783loPI   C1B11857  16.669   3.297   6.941 -0.0493 -0.0509 -0.1013
  783loPI   C2B11858  16.646   3.435   7.336  0.0271  0.2090 -0.0747
  783loPI   C3B11859  16.665   3.330   7.733  0.2048  0.1171 -0.2909
  783loPI   C4B11860  16.564   3.312   8.181  0.0705 -0.2949  0.0740
  784loPI    C111861   9.993   0.157   5.977  0.0481 -0.0545 -0.1823
  784loPI    C211862  10.019  -0.103   6.280  0.0826 -0.0438 -0.1760
  784loPI    C311863  10.263  -0.138   5.965  0.1099  0.0009 -0.1599
  784loPI   PO411864   9.672   0.189   5.950  0.0407  0.1645 -0.0349
  784loPI   GL111865   9.382   0.094   6.218 -0.0351  0.0353  0.0711
  784loPI   GL211866   9.472   0.001   6.370 -0.1563  0.2675 -0.0950
  784loPI   C1A11867   9.411   0.386   6.637 -0.0323 -0.0838  0.1398
  784loPI   C2A11868   9.398   0.381   7.084 -0.5759  0.2442  0.0170
  784loPI   C3A11869   9.386   0.381   7.489  0.1645  0.1049 -0.3925
  784loPI   C4A11870   9.444   0.459   7.867  0.0533 -0.4669 -0.2697
  784loPI   C5A11871   9.365   0.346   8.264  0.0271  0.1471  0.0236
  784loPI   C6A11872   9.473   0.233   8.679  0.1707  0.1345 -0.3538
  784loPI   C1B11873   9.552  -0.089   6.831  0.2959  0.1550 -0.0014
  784loPI   C2B11874   9.615  -0.096   7.187 -0.1195 -0.3375  0.0204
  784loPI   C3B11875   9.635  -0.056   7.692 -0.0403 -0.0047  0.0197
  784loPI   C4B11876   9.672  -0.001   8.202  0.0145 -0.2803  0.2004
  785loPI    C111877  13.277   8.546   5.916  0.0469  0.1649  0.2343
  785loPI    C211878  12.911   8.474   5.772  0.0889  0.0670  0.1752
  785loPI    C311879  13.075   8.836   5.729  0.0556  0.0707  0.0769
  785loPI   PO411880  13.225   8.442   6.155  0.2194 -0.1040  0.0418
  785loPI   GL111881  13.339   8.723   6.457 -0.0060  0.0247  0.1618
  785loPI   GL211882  13.087   8.403   6.590 -0.1385 -0.0205  0.2493
  785loPI   C1A11883  13.298   8.726   6.877  0.0962 -0.2437  0.0865
  785loPI   C2A11884  13.364   8.778   7.369 -0.1293 -0.0955 -0.5515
  785loPI   C3A11885  13.326   8.744   7.771 -0.2221 -0.3318 -0.0777
  785loPI   C4A11886  13.309   8.743   8.157  0.3587 -0.3110  0.0392
  785loPI   C5A11887  13.271   8.761   8.593 -0.0326 -0.2542 -0.3039
  785loPI   C6A11888  12.892   8.876   8.788 -0.2326 -0.1132 -0.2577
  785loPI   C1B11889  13.189   8.225   7.028 -0.0907  0.0143 -0.0197
  785loPI   C2B11890  13.173   8.221   7.494  0.2718 -0.0601  0.1343
  785loPI   C3B11891  13.155   8.294   7.945  0.0365  0.3519  0.0483
  785loPI   C4B11892  13.100   8.261   8.326  0.0101 -0.1473 -0.0706
  786loPI    C111893  11.746  12.618   5.661 -0.0360 -0.0010  0.3701
  786loPI    C211894  11.892  12.277   5.512 -0.3434 -0.0781  0.2393
  786loPI    C311895  12.015  12.628   5.364 -0.0549 -0.1306  0.3484
  786loPI   PO411896  11.758  12.575   5.963  0.0474 -0.2892  0.4419
  786loPI   GL111897  11.784  12.730   6.363  0.1954  0.1259 -0.1285
  786loPI   GL211898  11.847  13.138   6.383 -0.1037  0.0786  0.3001
  786loPI   C1A11899  11.461  12.799   6.692  0.2100  0.1901 -0.1823
  786loPI   C2A11900  11.356  12.750   7.193  0.0277 -0.1303  0.1524
  786loPI   C3A11901  11.369  12.820   7.651  0.0456  0.1732 -0.1421
  786loPI   C4A11902  11.294  12.830   8.087  0.2453 -0.0176 -0.2160
  786loPI   C5A11903  11.018  12.792   8.531 -0.1677 -0.1645  0.2381
  786loPI   C6A11904  10.915  12.534   8.861  0.0670 -0.3337  0.0567
  786loPI   C1B11905  12.016  13.338   6.712  0.0460 -0.0783  0.2362
  786loPI   C2B11906  12.054  13.297   7.190  0.1447 -0.0027  0.3235
  786loPI   C3B11907  12.094  13.304   7.635  0.0435 -0.0298  0.2351
  786loPI   C4B11908  12.112  13.357   8.080 -0.1073  0.0770  0.0038
  787loPI    C111909   6.385  14.031   5.892 -0.0458 -0.1439  0.1562
  787loPI    C211910   6.586  14.050   5.547 -0.0001 -0.1541  0.1821
  787loPI    C311911   6.186  14.040   5.545  0.0032 -0.3078  0.1229
  787loPI   PO411912   6.632  13.964   6.082  0.1421  0.0236  0.1877
  787loPI   GL111913   6.614  13.833   6.530  0.1158  0.1458 -0.1717
  787loPI   GL211914   6.506  13.528   6.745  0.2960  0.2565 -0.2209
  787loPI   C1A11915   6.413  14.040   6.883  0.0452 -0.0278 -0.0319
  787loPI   C2A11916   6.351  14.280   7.238  0.5253  0.0941  0.0589
  787loPI   C3A11917   6.413  14.293   7.644  0.2433 -0.2440  0.0326
  787loPI   C4A11918   6.489  14.293   8.034  0.0306 -0.0772  0.1377
  787loPI   C5A11919   6.490  14.216   8.475 -0.1547  0.1947  0.0993
  787loPI   C6A11920   6.405  14.244   8.869 -0.0158  0.0335  0.0283
  787loPI   C1B11921   6.350  13.552   7.150 -0.0226  0.1706  0.0374
  787loPI   C2B11922   6.165  13.828   7.468  0.1924 -0.3048 -0.0422
  787loPI   C3B11923   6.172  13.871   7.881 -0.1250  0.3460  0.2336
  787loPI   C4B11924   6.130  13.851   8.326 -0.3293 -0.2284  0.1788
  788loPI    C111925   5.824  10.485   5.852 -0.0054 -0.3187  0.1195
  788loPI    C211926   5.966  10.276   5.542 -0.0343 -0.0036 -0.1098
  788loPI    C311927   6.218  10.469   5.786 -0.0339  0.0844 -0.1792
  788loPI   PO411928   5.641  10.330   5.999  0.0305  0.0002  0.0330
  788loPI   GL111929   5.517  10.390   6.461 -0.0058 -0.1149  0.1639
  788loPI   GL211930   5.863  10.364   6.455  0.1277  0.3221 -0.2016
  788loPI   C1A11931   5.576  10.207   6.890 -0.3424 -0.0414  0.1716
  788loPI   C2A11932   5.287  10.226   7.349 -0.2149 -0.1127  0.0914
  788loPI   C3A11933   5.378  10.182   7.757 -0.1845 -0.1643  0.1646
  788loPI   C4A11934   5.454  10.156   8.189 -0.0886 -0.0531  0.0471
  788loPI   C5A11935   5.427  10.241   8.620  0.0290 -0.2331 -0.1157
  788loPI   C6A11936   5.420  10.475   9.060 -0.0701 -0.0933  0.1368
  788loPI   C1B11937   6.039  10.287   6.853 -0.3627 -0.0394 -0.2262
  788loPI   C2B11938   5.940  10.214   7.278  0.4523 -0.2825  0.2374
  788loPI   C3B11939   6.038  10.248   7.775  0.1210 -0.1095 -0.0577
  788loPI   C4B11940   5.965  10.282   8.175 -0.2989 -0.0206  0.1844
  789loPI    C111941   6.958   0.232   5.765  0.2094  0.3153 -0.1186
  789loPI    C211942   7.196  -0.040   5.593 -0.0998  0.0203 -0.0882
  789loPI    C311943   7.010   0.234   5.368 -0.1499 -0.0838 -0.1750
  789loPI   PO411944   6.953   0.194   6.001 -0.0919 -0.0794  0.4331
  789loPI   GL111945   6.929   0.217   6.409  0.1651 -0.2093 -0.0711
  789loPI   GL211946   6.703   0.049   6.422  0.0783  0.0894 -0.0408
  789loPI   C1A11947   6.913   0.321   6.842  0.2673 -0.1479 -0.2524
  789loPI   C2A11948   6.884   0.372   7.281 -0.0681  0.2540  0.0798
  789loPI   C3A11949   6.806   0.321   7.747  0.1197 -0.1134  0.0173
  789loPI   C4A11950   6.829   0.391   8.137 -0.1378  0.0841  0.0164
  789loPI   C5A11951   6.815   0.507   8.590  0.0023  0.0876  0.1679
  789loPI   C6A11952   6.915   0.782   8.889 -0.1769  0.2058  0.0671
  789loPI   C1B11953   6.619  -0.160   6.758 -0.1944  0.1706  0.3243
  789loPI   C2B11954   6.644  -0.095   7.191  0.4241 -0.2206 -0.1408
  789loPI   C3B11955   6.562  -0.114   7.671  0.2105  0.0774 -0.2546
  789loPI   C4B11956   6.637  -0.110   8.094 -0.3799  0.2162  0.0303
  790loPI    C111957   9.035  13.126   5.941  0.2378 -0.1831 -0.0735
  790loPI    C211958   9.023  13.497   5.792 -0.0133 -0.0759  0.2047
  790loPI    C311959   8.877  13.192   5.579 -0.0713  0.0276  0.0948
  790loPI   PO411960   8.920  13.105   6.187  0.0095  0.0036 -0.1656
  790loPI   GL111961   9.095  12.969   6.542  0.1853 -0.0790  0.0733
  790loPI   GL211962   8.934  12.591   6.695  0.1103  0.2201  0.0636
  790loPI   C1A11963   9.071  13.091   6.970  0.0417  0.0950  0.4358
  790loPI   C2A11964   8.964  13.290   7.356  0.2270  0.1915  0.3447
  790loPI   C3A11965   9.057  13.204   7.697 -0.2848  0.1704  0.0688
  790loPI   C4A11966   8.926  13.166   8.043  0.1447  0.1455 -0.0764
  790loPI   C5A11967   9.134  13.203   8.541 -0.3988  0.0893  0.0893
  790loPI   C6A11968   9.438  13.591   8.705  0.0376 -0.1015  0.1549
  790loPI   C1B11969   8.725  12.740   7.052  0.0791  0.1572 -0.1544
  790loPI   C2B11970   8.747  12.822   7.541  0.0326 -0.2266  0.2783
  790loPI   C3B11971   8.808  12.677   7.876  0.0057 -0.0825  0.0145
  790loPI   C4B11972   8.749  12.694   8.402 -0.0361  0.1416 -0.0021
  791loPI    C111973   5.896  16.063   5.865 -0.0040  0.0493 -0.0044
  791loPI    C211974   5.796  15.767   5.615 -0.3177  0.0382  0.1289
  791loPI    C311975   5.888  16.128   5.471 -0.1250 -0.0692 -0.0225
  791loPI   PO411976   5.758  16.067   5.995  0.0169 -0.0764 -0.0299
  791loPI   GL111977   5.576  16.045   6.322 -0.0810 -0.2294 -0.2791
  791loPI   GL211978   5.302  15.876   6.352  0.0377  0.1747 -0.2188
  791loPI   C1A11979   5.838  15.983   6.777 -0.0361 -0.0018  0.0991
  791loPI   C2A11980   5.830  15.980   7.209 -0.0746  0.1419 -0.0951
  791loPI   C3A11981   5.823  16.010   7.700  0.0846  0.1789  0.0314
  791loPI   C4A11982   5.872  15.969   8.093  0.0207  0.1027  0.1457
  791loPI   C5A11983   5.775  15.913   8.543 -0.2856  0.0736 -0.2214
  791loPI   C6A11984   5.367  15.830   8.715  0.0556  0.1827  0.1006
  791loPI   C1B11985   5.316  15.954   6.800  0.0950  0.4657 -0.0663
  791loPI   C2B11986   5.273  15.989   7.319  0.3114  0.0820  0.0526
  791loPI   C3B11987   5.330  15.994   7.727 -0.0668  0.1562  0.1362
  791loPI   C4B11988   5.301  15.992   8.128  0.0505  0.0810  0.2396
  792loPI    C111989  15.025   6.484   5.779 -0.2426 -0.1758  0.0366
  792loPI    C211990  15.055   6.870   5.676  0.2496 -0.1810  0.1357
  792loPI    C311991  15.164   6.585   5.417 -0.1835 -0.2614  0.0351
  792loPI   PO411992  15.113   6.515   6.094 -0.3351  0.0363 -0.2108
  792loPI   GL111993  15.069   6.679   6.480 -0.3145  0.2623  0.0445
  792loPI   GL211994  15.030   6.985   6.556 -0.2300 -0.2669  0.1723
  792loPI   C1A11995  15.327   6.464   6.790  0.0238 -0.1312 -0.1191
  792loPI   C2A11996  15.298   6.528   7.212  0.1079 -0.2461 -0.1728
  792loPI   C3A11997  15.209   6.540   7.614 -0.2771 -0.0252  0.0351
  792loPI   C4A11998  15.276   6.512   8.051  0.3106 -0.1113 -0.0967
  792loPI   C5A11999  15.443   6.769   8.384 -0.1299  0.2736  0.0460
  792loPI   C6A12000  15.321   6.976   8.690  0.2573  0.2365  0.2421
  792loPI   C1B12001  14.970   7.014   6.960  0.1552 -0.4318  0.0964
  792loPI   C2B12002  14.939   6.850   7.282 -0.1033 -0.1972 -0.0738
  792loPI   C3B12003  14.918   6.977   7.642  0.0064  0.1399 -0.4641
  792loPI   C4B12004  14.988   6.864   8.020 -0.0529 -0.3079  0.1236
  793loPI    C112005  15.368   3.176   6.144 -0.0271 -0.0071 -0.0655
  793loPI    C212006  15.177   2.827   6.183 -0.0368  0.0326  0.2707
  793loPI    C312007  14.975   3.155   6.077 -0.0291 -0.0592 -0.0391
  793loPI   PO412008  15.431   3.167   6.399  0.0752  0.1297 -0.1710
  793loPI   GL112009  15.755   3.085   6.705 -0.5420  0.1643  0.1087
  793loPI   GL212010  15.855   2.864   6.824  0.1010 -0.2642 -0.1194
  793loPI   C1A12011  15.629   3.336   7.127 -0.2437  0.0085 -0.1311
  793loPI   C2A12012  15.596   3.328   7.562  0.0763 -0.0664  0.0702
  793loPI   C3A12013  15.593   3.295   7.981 -0.0222 -0.0790 -0.2284
  793loPI   C4A12014  15.554   3.239   8.433  0.0476 -0.2918 -0.0827
  793loPI   C5A12015  15.320   2.864   8.701 -0.1408 -0.1504  0.0026
  793loPI   C6A12016  15.203   2.698   9.139 -0.0440  0.1050 -0.4205
  793loPI   C1B12017  15.942   2.945   7.230  0.2291 -0.1019 -0.1433
  793loPI   C2B12018  15.862   2.911   7.684  0.0653 -0.1705  0.2202
  793loPI   C3B12019  15.853   2.866   8.119 -0.0115 -0.1827  0.2675
  793loPI   C4B12020  15.839   2.830   8.598  0.1361  0.1533  0.0259
  794loPI    C112021   7.356   0.568   5.710 -0.1392 -0.0439 -0.0892
  794loPI    C212022   7.203   0.935   5.668  0.1255  0.0527 -0.2325
  794loPI    C312023   7.271   0.708   5.345  0.0401 -0.0916 -0.1502
  794loPI   PO412024   7.307   0.509   5.921 -0.0998 -0.0435 -0.0282
  794loPI   GL112025   7.345   0.465   6.254  0.0104 -0.1720 -0.2530
  794loPI   GL212026   7.413   0.275   6.518 -0.0469  0.1726  0.2948
  794loPI   C1A12027   7.228   0.744   6.632 -0.0047  0.1428 -0.1312
  794loPI   C2A12028   7.082   0.786   7.086 -0.4814 -0.0398  0.2208
  794loPI   C3A12029   7.055   0.762   7.569  0.1033  0.3253  0.1304
  794loPI   C4A12030   7.059   0.797   7.899 -0.0084  0.1691 -0.0799
  794loPI   C5A12031   7.019   0.838   8.319 -0.1823 -0.0553  0.0979
  794loPI   C6A12032   7.348   0.802   8.658 -0.1964 -0.0271  0.0603
  794loPI   C1B12033   7.382   0.341   6.940 -0.1582  0.0316  0.2098
  794loPI   C2B12034   7.400   0.410   7.338  0.2616  0.2809  0.0263
  794loPI   C3B12035   7.389   0.359   7.762 -0.0659 -0.1268  0.1095
  794loPI   C4B12036   7.356   0.442   8.251 -0.1025  0.1360  0.4073
  795loPI    C112037  16.911  15.591   6.010  0.2089  0.0062  0.0658
  795loPI    C212038  17.017  15.832   5.709  0.1441 -0.1813 -0.1090
  795loPI    C312039  16.797  15.506   5.636  0.0274 -0.1642  0.1583
  795loPI   PO412040  17.108  15.576   6.134  0.0289  0.0150 -0.2515
  795loPI   GL112041  17.301  15.760   6.485  0.1205  0.2259 -0.0281
  795loPI   GL212042  16.991  15.523   6.604 -0.0252  0.0595  0.1760
  795loPI   C1A12043  17.403  15.676   6.887 -0.2432 -0.1537 -0.2344
  795loPI   C2A12044  17.321  15.795   7.281 -0.1308  0.2535 -0.0532
  795loPI   C3A12045  17.476  15.743   7.677  0.0692 -0.1197  0.1911
  795loPI   C4A12046  17.467  15.730   8.121 -0.1110  0.1868 -0.0813
  795loPI   C5A12047  17.336  15.637   8.493  0.0704  0.0712  0.1801
  795loPI   C6A12048  17.237  15.198   8.652 -0.0627  0.2291 -0.1732
  795loPI   C1B12049  16.911  15.629   6.990 -0.2672  0.0553 -0.2605
  795loPI   C2B12050  16.877  15.580   7.394 -0.0342 -0.3131  0.1845
  795loPI   C3B12051  17.000  15.760   7.840 -0.0312  0.3146 -0.1965
  795loPI   C4B12052  16.912  15.851   8.295 -0.2339 -0.1430 -0.1028
  796loPI    C112053  10.059   4.574   5.859  0.0153  0.1139  0.1406
  796loPI    C212054   9.909   4.213   5.944 -0.0934  0.1667  0.1763
  796loPI    C312055  10.240   4.245   5.720  0.0223  0.0382  0.3264
  796loPI   PO412056  10.039   4.711   6.102  0.0105 -0.0971 -0.2007
  796loPI   GL112057  10.178   4.702   6.586 -0.2179  0.1148  0.0230
  796loPI   GL212058  10.140   4.513   6.823 -0.3122 -0.1665 -0.1138
  796loPI   C1A12059  10.340   4.975   6.849  0.0788  0.2719 -0.0328
  796loPI   C2A12060  10.344   5.009   7.279 -0.0014  0.0087  0.1033
  796loPI   C3A12061  10.367   5.038   7.726  0.1852 -0.0686  0.2256
  796loPI   C4A12062  10.392   4.864   8.183  0.0629 -0.1736 -0.0568
  796loPI   C5A12063  10.156   4.785   8.545  0.1991  0.1838 -0.0532
  796loPI   C6A12064  10.148   4.606   8.963 -0.1367 -0.3851  0.1135
  796loPI   C1B12065  10.200   4.546   7.266  0.2384 -0.0859  0.1475
  796loPI   C2B12066  10.166   4.522   7.724 -0.1538 -0.1000  0.0008
  796loPI   C3B12067  10.148   4.410   8.244  0.0832  0.1750  0.0990
  796loPI   C4B12068  10.200   4.232   8.618 -0.1101  0.1824 -0.3566
  797loPI    C112069  16.288   4.241   5.783 -0.0563 -0.0200 -0.0368
  797loPI    C212070  16.645   4.394   5.686 -0.0618 -0.0457 -0.0978
  797loPI    C312071  16.454   4.152   5.430 -0.1169 -0.0427 -0.0597
  797loPI   PO412072  16.343   4.315   6.104  0.1996  0.0453 -0.1698
  797loPI   GL112073  16.209   4.334   6.567 -0.0914 -0.0749 -0.0410
  797loPI   GL212074  16.039   4.596   6.566 -0.1471 -0.4562  0.0722
  797loPI   C1A12075  16.079   4.278   6.977 -0.0327 -0.1653 -0.1308
  797loPI   C2A12076  16.036   4.243   7.417  0.0241 -0.0460  0.1296
  797loPI   C3A12077  16.041   4.199   7.774  0.2475  0.0902  0.2120
  797loPI   C4A12078  16.165   4.229   8.183 -0.0174  0.3464 -0.3391
  797loPI   C5A12079  16.112   4.125   8.640  0.1967  0.1915  0.2012
  797loPI   C6A12080  16.182   3.742   8.905 -0.2946 -0.1834  0.3930
  797loPI   C1B12081  16.294   4.757   6.821  0.0676 -0.1561  0.1341
  797loPI   C2B12082  16.310   4.666   7.273  0.0947 -0.0673  0.1347
  797loPI   C3B12083  16.235   4.674   7.703 -0.1900 -0.1397 -0.2184
  797loPI   C4B12084  16.231   4.732   8.118 -0.0476 -0.0713  0.1323
  798loPI    C112085  13.326  13.834   6.123 -0.1403 -0.2122 -0.1689
  798loPI    C212086  13.440  13.633   6.449 -0.0431  0.0177 -0.0585
  798loPI    C312087  13.252  13.442   6.151  0.1801 -0.2645 -0.0227
  798loPI   PO412088  13.183  14.053   6.184 -0.1725 -0.3036 -0.2252
  798loPI   GL112089  13.252  14.193   6.602 -0.0189 -0.0253  0.0845
  798loPI   GL212090  13.545  14.162   6.539  0.4515  0.1812  0.2116
  798loPI   C1A12091  13.118  14.305   6.982 -0.0152  0.1409  0.1210
  798loPI   C2A12092  13.050  14.339   7.428  0.0981 -0.0777 -0.2715
  798loPI   C3A12093  13.158  14.281   7.897  0.2819  0.3382 -0.0698
  798loPI   C4A12094  13.058  14.228   8.343 -0.0560  0.1564  0.1487
  798loPI   C5A12095  12.788  14.266   8.690 -0.0759  0.2045  0.0593
  798loPI   C6A12096  12.512  14.404   8.969 -0.1817  0.0496 -0.1851
  798loPI   C1B12097  13.682  14.261   6.961 -0.0840 -0.0263 -0.2315
  798loPI   C2B12098  13.598  14.311   7.423 -0.3005 -0.0965 -0.2349
  798loPI   C3B12099  13.650  14.157   7.858  0.0726 -0.0086  0.0053
  798loPI   C4B12100  13.627  14.229   8.368  0.0820 -0.1913  0.1030
  799loPI    C112101  13.025  12.146   6.014 -0.2702 -0.0905  0.4131
  799loPI    C212102  12.790  11.945   5.761  0.1389  0.1193 -0.1572
  799loPI    C312103  12.866  12.332   5.698  0.4341  0.1183  0.1619
  799loPI   PO412104  13.018  12.011   6.191  0.1276  0.1289  0.3327
  799loPI   GL112105  12.978  11.836   6.658 -0.3387  0.0553 -0.1089
  799loPI   GL212106  13.207  11.513   6.532 -0.0612 -0.1352 -0.0445
  799loPI   C1A12107  13.012  11.938   7.058 -0.0119 -0.4178  0.1606
  799loPI   C2A12108  12.977  11.993   7.457  0.2081 -0.0231  0.0226
  799loPI   C3A12109  12.841  11.941   7.882  0.0493 -0.2570 -0.0434
  799loPI   C4A12110  12.844  11.887   8.344 -0.3385 -0.0062 -0.1084
  799loPI   C5A12111  12.819  11.663   8.633 -0.1403 -0.0904 -0.0454
  799loPI   C6A12112  12.477  11.361   8.643  0.0133  0.0699 -0.1085
  799loPI   C1B12113  13.265  11.469   6.972  0.0615 -0.2051 -0.2351
  799loPI   C2B12114  13.232  11.547   7.360 -0.1557  0.1133  0.3179
  799loPI   C3B12115  13.187  11.548   7.767  0.2916  0.1815 -0.2127
  799loPI   C4B12116  13.211  11.440   8.226  0.1259 -0.1173 -0.0201
  800loPI    C112117   9.360  12.249   5.588 -0.2202 -0.2121  0.1107
  800loPI    C212118   9.002  12.311   5.421 -0.0226  0.0448 -0.2298
  800loPI    C312119   9.225  12.001   5.304 -0.1961 -0.2088  0.0963
  800loPI   PO412120   9.327  12.109   5.898 -0.2368  0.1056 -0.0812
  800loPI   GL112121   9.493  12.058   6.333  0.0047 -0.1712 -0.2259
  800loPI   GL212122   9.414  11.751   6.517  0.0771 -0.2876  0.2282
  800loPI   C1A12123   9.593  12.212   6.803  0.0053 -0.2408  0.0909
  800loPI   C2A12124   9.592  12.194   7.251  0.1630  0.0351  0.1088
  800loPI   C3A12125   9.605  12.181   7.651 -0.1748 -0.1279  0.1114
  800loPI   C4A12126   9.497  12.176   8.066 -0.0231 -0.0617 -0.3323
  800loPI   C5A12127   9.554  12.358   8.359 -0.1395 -0.2291  0.0403
  800loPI   C6A12128   9.608  12.453   8.811 -0.0980  0.1364  0.0167
  800loPI   C1B12129   9.384  11.738   6.937 -0.0657 -0.0427 -0.0062
  800loPI   C2B12130   9.383  11.727   7.368 -0.0967  0.0852 -0.3364
  800loPI   C3B12131   9.324  11.739   7.807 -0.0246 -0.0793  0.2219
  800loPI   C4B12132   9.252  11.837   8.291 -0.2050  0.0037 -0.0598
  801loPI    C112133   5.694   2.510   5.865  0.0922 -0.2160 -0.0816
  801loPI    C212134   5.833   2.136   5.832 -0.0093 -0.2564 -0.0580
  801loPI    C312135   5.634   2.303   5.528  0.2183 -0.1449 -0.1483
  801loPI   PO412136   5.759   2.592   6.180 -0.1483  0.1215 -0.1312
  801loPI   GL112137   5.995   2.490   6.522  0.1576  0.0752  0.0269
  801loPI   GL212138   6.154   2.840   6.565 -0.1636  0.6613 -0.1750
  801loPI   C1A12139   6.031   2.451   6.938  0.0833 -0.2039 -0.0267
  801loPI   C2A12140   6.077   2.462   7.350 -0.0664 -0.1801  0.0806
  801loPI   C3A12141   5.962   2.582   7.824  0.0577 -0.2770 -0.1198
  801loPI   C4A12142   6.020   2.595   8.201  0.0391 -0.2300 -0.0041
  801loPI   C5A12143   6.051   2.718   8.511 -0.2511  0.4979 -0.1799
  801loPI   C6A12144   6.300   2.868   8.865  0.1632  0.0725  0.0067
  801loPI   C1B12145   6.189   2.955   6.958 -0.1280  0.0622 -0.1346
  801loPI   C2B12146   6.293   2.948   7.408  0.2067  0.1092 -0.1523
  801loPI   C3B12147   6.297   3.005   7.828  0.0049  0.3950 -0.2883
  801loPI   C4B12148   6.444   3.013   8.342 -0.1836  0.0976 -0.0690
  802loPI    C112149   5.729  16.580   5.619 -0.1153 -0.1865 -0.1560
  802loPI    C212150   5.687  16.954   5.484  0.0540 -0.1600 -0.1371
  802loPI    C312151   5.989  16.727   5.353  0.1235 -0.1896  0.0722
  802loPI   PO412152   5.620  16.585   5.815 -0.0521 -0.0819  0.1524
  802loPI   GL112153   5.600  16.640   6.294 -0.1362  0.1568  0.1716
  802loPI   GL212154   5.289  16.713   6.422 -0.1000  0.3414  0.0720
  802loPI   C1A12155   5.612  16.495   6.720 -0.2936 -0.1980  0.1666
  802loPI   C2A12156   5.548  16.343   7.153  0.2886 -0.0536  0.1369
  802loPI   C3A12157   5.653  16.474   7.392 -0.2163  0.0070  0.0962
  802loPI   C4A12158   5.557  16.429   7.724  0.2945 -0.1534  0.0043
  802loPI   C5A12159   5.547  16.393   8.147  0.1924 -0.3720 -0.0941
  802loPI   C6A12160   5.403  16.279   8.499  0.2216 -0.1510 -0.1030
  802loPI   C1B12161   5.210  16.812   6.813 -0.1831  0.0429  0.1297
  802loPI   C2B12162   5.338  16.766   7.184  0.1570  0.2566 -0.1257
  802loPI   C3B12163   5.330  16.872   7.630 -0.0680  0.3346  0.0849
  802loPI   C4B12164   5.264  16.825   8.103 -0.4269 -0.0971  0.1335
  803loPI    C112165   3.979   3.703   6.242 -0.2709 -0.1194 -0.0678
  803loPI    C212166   3.642   3.630   6.040 -0.2015 -0.0136 -0.2244
  803loPI    C312167   3.872   3.941   5.939 -0.1177 -0.0146 -0.0409
  803loPI   PO412168   4.051   3.402   6.260 -0.5019 -0.0673  0.0795
  803loPI   GL112169   3.796   3.383   6.561 -0.0398 -0.0093  0.1574
  803loPI   GL212170   4.013   3.479   6.721 -0.2645 -0.2648 -0.0359
  803loPI   C1A12171   3.754   3.043   6.834 -0.0594 -0.0409 -0.1547
  803loPI   C2A12172   3.764   3.061   7.184  0.1747 -0.0098 -0.3271
  803loPI   C3A12173   3.709   3.105   7.606  0.2215  0.0296  0.0198
  803loPI   C4A12174   3.700   2.950   7.987  0.0568  0.2849  0.1028
  803loPI   C5A12175   3.831   2.977   8.357  0.2402  0.2962  0.3179
  803loPI   C6A12176   3.974   2.987   8.783  0.0127  0.0317  0.2171
  803loPI   C1B12177   4.044   3.489   7.127 -0.0875 -0.2745  0.0121
  803loPI   C2B12178   4.018   3.461   7.546  0.0847 -0.1664 -0.0226
  803loPI   C3B12179   4.013   3.352   8.020  0.2576  0.3017 -0.0579
  803loPI   C4B12180   3.938   3.451   8.510 -0.1357  0.0720  0.0765
  804loPI    C112181   1.153  13.385   5.853 -0.0211  0.3683 -0.2261
  804loPI    C212182   1.501  13.230   5.729 -0.1604  0.0104 -0.1803
  804loPI    C312183   1.322  13.516   5.514  0.1160  0.1341 -0.2507
  804loPI   PO412184   1.214  13.475   6.082 -0.3051  0.1493 -0.3128
  804loPI   GL112185   1.213  13.643   6.485  0.0433  0.1228 -0.3645
  804loPI   GL212186   1.393  13.539   6.636  0.1907  0.1016  0.0470
  804loPI   C1A12187   0.965  13.515   6.842 -0.1304 -0.2013  0.3404
  804loPI   C2A12188   0.920  13.589   7.242  0.0178  0.0978 -0.3142
  804loPI   C3A12189   1.038  13.629   7.627  0.1792 -0.1051  0.2034
  804loPI   C4A12190   1.045  13.447   7.992  0.4116 -0.2553 -0.1099
  804loPI   C5A12191   1.011  13.431   8.413  0.1137 -0.2338 -0.0892
  804loPI   C6A12192   1.302  13.298   8.759 -0.0841  0.2509  0.0052
  804loPI   C1B12193   1.416  13.583   7.090  0.0918  0.1228 -0.0377
  804loPI   C2B12194   1.528  13.607   7.469 -0.2049 -0.0216  0.2098
  804loPI   C3B12195   1.539  13.500   7.881 -0.0948  0.0810  0.1568
  804loPI   C4B12196   1.518  13.505   8.337 -0.1123 -0.1109 -0.2474
  805loPI    C112197   3.149   7.967   5.997  0.1474  0.0078 -0.1527
  805loPI    C212198   2.853   7.760   5.823  0.1236 -0.1157  0.0318
  805loPI    C312199   3.179   7.859   5.613  0.0580 -0.1895 -0.1060
  805loPI   PO412200   3.236   7.770   6.172  0.1717  0.0799 -0.0951
  805loPI   GL112201   3.257   7.589   6.474 -0.0225 -0.0820 -0.0267
  805loPI   GL212202   2.937   7.456   6.653  0.2286  0.1739 -0.0883
  805loPI   C1A12203   3.511   7.486   6.773  0.0773  0.1157 -0.2882
  805loPI   C2A12204   3.465   7.442   7.174 -0.3600  0.0628  0.2102
  805loPI   C3A12205   3.450   7.559   7.607  0.2786  0.0147 -0.2603
  805loPI   C4A12206   3.467   7.466   8.046  0.1617 -0.2235 -0.0739
  805loPI   C5A12207   3.451   7.477   8.466  0.0073 -0.0986  0.1033
  805loPI   C6A12208   3.360   7.238   8.706 -0.0397 -0.3898 -0.1203
  805loPI   C1B12209   2.967   7.400   6.992  0.0995 -0.3833  0.0390
  805loPI   C2B12210   2.940   7.413   7.451 -0.2931 -0.2773  0.1781
  805loPI   C3B12211   3.004   7.414   7.909 -0.1338 -0.1015  0.2638
  805loPI   C4B12212   2.985   7.254   8.311  0.1943 -0.4462 -0.2914
  806loPI    C112213   6.251  13.188   5.894  0.0858 -0.0581  0.1918
  806loPI    C212214   5.923  13.186   5.665  0.1149 -0.1128  0.1505
  806loPI    C312215   6.276  13.288   5.508  0.1326 -0.1378  0.1742
  806loPI   PO412216   6.226  12.871   6.011  0.0815  0.1543 -0.1165
  806loPI   GL112217   5.985  12.705   6.458  0.0344  0.0942  0.0036
  806loPI   GL212218   6.356  12.581   6.415  0.1119  0.1617 -0.2158
  806loPI   C1A12219   5.843  12.833   6.873 -0.1535  0.3844  0.0336
  806loPI   C2A12220   5.730  12.914   7.285  0.2188 -0.0023 -0.1278
  806loPI   C3A12221   5.756  13.028   7.731 -0.1030  0.3230 -0.1031
  806loPI   C4A12222   5.604  12.924   8.145 -0.1618  0.1584  0.1735
  806loPI   C5A12223   5.760  12.807   8.562 -0.1628 -0.3361  0.2773
  806loPI   C6A12224   5.931  13.053   8.855  0.0999  0.2613 -0.0576
  806loPI   C1B12225   6.245  12.462   6.795 -0.3716  0.0459  0.4574
  806loPI   C2B12226   6.137  12.387   7.215  0.3569  0.0260  0.1269
  806loPI   C3B12227   5.938  12.471   7.633 -0.1995  0.2134  0.1720
  806loPI   C4B12228   6.041  12.542   8.118 -0.0078 -0.2573  0.0437
  807loPI    C112229  16.068  12.005   5.852  0.0556  0.2182 -0.0866
  807loPI    C212230  15.791  12.285   5.922 -0.1243  0.0426 -0.0846
  807loPI    C312231  15.850  12.150   5.550 -0.0656  0.0538 -0.0796
  807loPI   PO412232  16.078  11.978   6.117 -0.4901  0.0468  0.1398
  807loPI   GL112233  16.031  11.852   6.542 -0.4034  0.0191  0.0501
  807loPI   GL212234  16.083  12.133   6.811  0.0543  0.2033 -0.0991
  807loPI   C1A12235  16.064  11.596   6.930 -0.1682  0.1769  0.3189
  807loPI   C2A12236  15.892  11.439   7.332  0.0034  0.1344 -0.1235
  807loPI   C3A12237  15.883  11.534   7.862  0.2654  0.0415 -0.0718
  807loPI   C4A12238  15.784  11.541   8.265  0.0398  0.1347  0.2577
  807loPI   C5A12239  15.697  11.661   8.717  0.1025 -0.0486 -0.0697
  807loPI   C6A12240  15.847  11.938   8.954 -0.0909  0.2014  0.2216
  807loPI   C1B12241  16.282  11.946   7.167  0.2567  0.1937  0.1318
  807loPI   C2B12242  16.181  11.903   7.555  0.2292  0.0311  0.1794
  807loPI   C3B12243  16.120  12.017   7.989 -0.2401 -0.0643  0.2083
  807loPI   C4B12244  16.030  11.940   8.421 -0.2494 -0.0022 -0.2458
  808loPI    C112245  12.355  12.248   5.759  0.2133 -0.0699 -0.4291
  808loPI    C212246  12.226  12.607   5.879  0.1698 -0.2019 -0.0672
  808loPI    C312247  12.450  12.575   5.549  0.2789  0.1719 -0.0342
  808loPI   PO412248  12.446  12.163   6.013 -0.0411  0.0561 -0.0946
  808loPI   GL112249  12.531  11.999   6.378  0.0828 -0.1380  0.0941
  808loPI   GL212250  12.620  12.243   6.464  0.0948 -0.0904 -0.1135
  808loPI   C1A12251  12.524  11.989   6.842  0.1620  0.2988 -0.0637
  808loPI   C2A12252  12.502  11.879   7.199 -0.0633 -0.1059  0.0300
  808loPI   C3A12253  12.363  11.866   7.635  0.2022  0.1181 -0.1359
  808loPI   C4A12254  12.395  11.941   8.019 -0.1395 -0.0342 -0.0893
  808loPI   C5A12255  12.464  12.277   8.428  0.1865 -0.0969  0.3057
  808loPI   C6A12256  12.335  12.478   8.883 -0.0131  0.1190  0.0019
  808loPI   C1B12257  12.774  12.405   6.832 -0.0639  0.1898  0.0653
  808loPI   C2B12258  12.728  12.342   7.196  0.1850 -0.1210 -0.1915
  808loPI   C3B12259  12.637  12.360   7.583 -0.0567 -0.0004  0.0739
  808loPI   C4B12260  12.496  12.452   7.977  0.1739 -0.2789 -0.1074
  809loPI    C112261   4.013  14.064   5.822 -0.0376  0.0328  0.0548
  809loPI    C212262   4.296  14.342   5.773 -0.1160  0.1120  0.0492
  809loPI    C312263   4.048  14.254   5.472  0.0401 -0.1116 -0.0167
  809loPI   PO412264   3.923  14.063   6.084 -0.1854  0.1762  0.1666
  809loPI   GL112265   3.995  13.858   6.380  0.0340 -0.0288  0.2132
  809loPI   GL212266   4.344  13.978   6.576 -0.3635 -0.1638  0.2103
  809loPI   C1A12267   4.042  13.700   6.781  0.0870  0.3148 -0.2454
  809loPI   C2A12268   4.191  13.651   7.159  0.1609  0.0409 -0.1190
  809loPI   C3A12269   4.125  13.681   7.597 -0.1768  0.1452 -0.1645
  809loPI   C4A12270   4.081  13.734   7.995 -0.3969  0.0158 -0.1744
  809loPI   C5A12271   4.131  13.564   8.314  0.1302  0.1222 -0.3984
  809loPI   C6A12272   4.299  13.195   8.394 -0.4154 -0.1867 -0.1322
  809loPI   C1B12273   4.411  14.108   7.003 -0.0150 -0.0271 -0.0850
  809loPI   C2B12274   4.354  14.084   7.423 -0.0625  0.1529 -0.0794
  809loPI   C3B12275   4.380  14.157   7.909  0.1134  0.0649 -0.2807
  809loPI   C4B12276   4.241  14.139   8.274 -0.0034  0.1746  0.2046
  810loPI    C112277   6.934  15.055   5.877  0.0791  0.0492  0.0522
  810loPI    C212278   6.764  15.220   5.554 -0.1343 -0.0641  0.1047
  810loPI    C312279   6.859  14.831   5.554  0.0368 -0.0230  0.1116
  810loPI   PO412280   6.715  15.158   6.136  0.2141 -0.2361 -0.0753
  810loPI   GL112281   6.708  14.946   6.474 -0.0641  0.0649  0.0057
  810loPI   GL212282   6.956  14.790   6.620 -0.1771 -0.2005  0.0678
  810loPI   C1A12283   6.897  15.118   6.911 -0.1374 -0.0243  0.1256
  810loPI   C2A12284   6.904  15.180   7.323 -0.1450 -0.1726  0.1460
  810loPI   C3A12285   6.913  15.087   7.709 -0.0125  0.0652 -0.0841
  810loPI   C4A12286   6.975  15.142   8.175  0.1078 -0.1260 -0.0185
  810loPI   C5A12287   6.899  15.036   8.530  0.0655 -0.0876  0.0015
  810loPI   C6A12288   7.254  14.662   8.866 -0.0867  0.1868  0.1669
  810loPI   C1B12289   7.141  14.710   7.038  0.0140 -0.1160  0.1252
  810loPI   C2B12290   7.149  14.728   7.442  0.0859  0.2709  0.0747
  810loPI   C3B12291   7.150  14.697   7.888 -0.2074 -0.0411  0.0068
  810loPI   C4B12292   7.286  14.519   8.307  0.0167 -0.1226 -0.3138
  811loPI    C112293  11.689   9.943   5.806  0.1985 -0.0838 -0.0606
  811loPI    C212294  11.988  10.178   5.927  0.1844 -0.0411 -0.1084
  811loPI    C312295  12.034   9.945   5.605  0.0629  0.1925 -0.2982
  811loPI   PO412296  11.572   9.838   6.005 -0.1357  0.2271  0.0041
  811loPI   GL112297  11.763   9.854   6.385 -0.0957 -0.1654 -0.1253
  811loPI   GL212298  11.493  10.114   6.437 -0.0368  0.4603  0.0498
  811loPI   C1A12299  11.803   9.589   6.804 -0.2619  0.0891  0.0346
  811loPI   C2A12300  11.752   9.490   7.215 -0.1383 -0.0402 -0.0290
  811loPI   C3A12301  11.757   9.643   7.611  0.0123  0.0325 -0.0611
  811loPI   C4A12302  11.687   9.517   8.045  0.0394 -0.1600  0.1382
  811loPI   C5A12303  11.743   9.681   8.458  0.0835  0.2651 -0.1564
  811loPI   C6A12304  11.615  10.010   8.793 -0.0807  0.1851  0.1101
  811loPI   C1B12305  11.542   9.996   6.882 -0.2018 -0.0560 -0.0197
  811loPI   C2B12306  11.427   9.982   7.310 -0.1487 -0.1038 -0.0878
  811loPI   C3B12307  11.457  10.094   7.727  0.1908 -0.1845 -0.2389
  811loPI   C4B12308  11.370  10.100   8.215  0.1363  0.1083  0.0882
  812loPI    C112309  16.399   9.610   5.719  0.0019  0.1475  0.0205
  812loPI    C212310  16.430   9.430   5.363  0.1565  0.0613  0.0763
  812loPI    C312311  16.086   9.603   5.471  0.0209 -0.1582  0.0016
  812loPI   PO412312  16.432   9.479   5.912  0.0216  0.0416 -0.1829
  812loPI   GL112313  16.343   9.335   6.336  0.0053 -0.0352  0.1056
  812loPI   GL212314  16.462   9.618   6.401 -0.3302  0.0074  0.1203
  812loPI   C1A12315  16.105   9.334   6.683  0.1123 -0.0432 -0.0141
  812loPI   C2A12316  16.208   9.247   7.164 -0.0980  0.1692 -0.2129
  812loPI   C3A12317  16.111   9.282   7.572 -0.3378  0.2571 -0.4695
  812loPI   C4A12318  16.128   9.304   7.925 -0.4233  0.2141  0.0145
  812loPI   C5A12319  15.920   9.222   8.328  0.0682 -0.1180 -0.0276
  812loPI   C6A12320  15.845   8.788   8.608  0.0816  0.1156 -0.1140
  812loPI   C1B12321  16.484   9.684   6.832  0.5007  0.0220 -0.0495
  812loPI   C2B12322  16.372   9.737   7.233 -0.0202  0.0006 -0.0912
  812loPI   C3B12323  16.315   9.703   7.697  0.1811 -0.1743 -0.0648
  812loPI   C4B12324  16.425   9.694   8.214 -0.0726 -0.1406 -0.0512
  813loPI    C112325   9.999   2.339   5.889  0.1696 -0.0366  0.0322
  813loPI    C212326  10.032   2.141   5.542  0.1269  0.0197 -0.0043
  813loPI    C312327  10.282   2.441   5.626  0.0291  0.1175 -0.0610
  813loPI   PO412328   9.996   2.107   6.090 -0.1134  0.1428  0.1773
  813loPI   GL112329  10.061   2.248   6.443  0.0936 -0.0927 -0.1764
  813loPI   GL212330   9.783   2.120   6.532 -0.1037 -0.0632  0.1328
  813loPI   C1A12331  10.482   2.209   6.868  0.1629  0.3360 -0.1924
  813loPI   C2A12332  10.493   2.232   7.297  0.1503  0.0286  0.0084
  813loPI   C3A12333  10.377   2.254   7.712 -0.0839  0.0791  0.0146
  813loPI   C4A12334  10.387   2.288   8.149 -0.3744 -0.0056  0.0168
  813loPI   C5A12335  10.661   2.036   8.457  0.1208 -0.2137 -0.0878
  813loPI   C6A12336  10.845   2.280   8.866  0.2288 -0.1593 -0.0769
  813loPI   C1B12337   9.937   2.238   7.014 -0.0665 -0.2432 -0.1965
  813loPI   C2B12338   9.969   2.195   7.313 -0.0647  0.1207  0.0996
  813loPI   C3B12339   9.883   2.234   7.685 -0.0228 -0.1133  0.2531
  813loPI   C4B12340   9.807   2.139   8.085 -0.2560 -0.0598  0.1358
  814loPI    C112341  14.555  13.133   6.241  0.1073  0.2429 -0.1822
  814loPI    C212342  14.434  12.788   6.078  0.3992  0.1612 -0.2338
  814loPI    C312343  14.243  13.129   5.991 -0.1522 -0.0384  0.1363
  814loPI   PO412344  14.573  13.103   6.461 -0.0763 -0.1339  0.1165
  814loPI   GL112345  14.517  12.832   6.757  0.1666  0.0501  0.0953
  814loPI   GL212346  14.431  12.592   6.588 -0.3988 -0.1414  0.1184
  814loPI   C1A12347  14.542  12.847   7.176 -0.0813  0.0649  0.1269
  814loPI   C2A12348  14.386  12.946   7.525  0.0224 -0.1469 -0.3389
  814loPI   C3A12349  14.353  12.921   7.953 -0.2619 -0.1043 -0.1639
  814loPI   C4A12350  14.402  12.923   8.331  0.4579  0.2915 -0.1810
  814loPI   C5A12351  14.625  12.964   8.628  0.3094 -0.0945  0.0627
  814loPI   C6A12352  14.801  13.110   9.051  0.0166 -0.1524 -0.3381
  814loPI   C1B12353  14.247  12.420   6.885 -0.4165  0.3771  0.0463
  814loPI   C2B12354  14.214  12.488   7.345 -0.0389 -0.1041  0.1968
  814loPI   C3B12355  14.143  12.439   7.744 -0.1851 -0.0106 -0.2794
  814loPI   C4B12356  14.204  12.445   8.202 -0.0042 -0.1966  0.1630
  815loPI    C112357   3.679  12.174   5.823  0.0316 -0.0483  0.2910
  815loPI    C212358   3.746  12.446   6.109  0.0825  0.2637 -0.0123
  815loPI    C312359   3.614  12.562   5.749 -0.0485 -0.1315 -0.0962
  815loPI   PO412360   3.625  11.969   6.008 -0.1242 -0.0650 -0.2092
  815loPI   GL112361   3.829  11.816   6.467 -0.1989 -0.0575 -0.1407
  815loPI   GL212362   3.976  12.032   6.388 -0.2676 -0.0187  0.0533
  815loPI   C1A12363   3.715  11.935   6.922 -0.0482 -0.0841  0.0798
  815loPI   C2A12364   3.747  12.021   7.407  0.2056  0.3098  0.2456
  815loPI   C3A12365   3.676  12.000   7.811  0.0466 -0.0062 -0.0988
  815loPI   C4A12366   3.560  11.904   8.228 -0.0301  0.0428  0.0859
  815loPI   C5A12367   3.699  11.804   8.525  0.0638  0.0318 -0.1145
  815loPI   C6A12368   3.615  11.518   8.902 -0.1067 -0.1617 -0.0158
  815loPI   C1B12369   3.921  12.358   6.703  0.2064 -0.1169 -0.2202
  815loPI   C2B12370   3.888  12.390   7.090 -0.2556  0.0974  0.0972
  815loPI   C3B12371   3.959  12.392   7.586 -0.0552  0.1098 -0.1637
  815loPI   C4B12372   3.979  12.394   8.032 -0.2680 -0.0389 -0.0984
  816loPI    C112373   5.784  14.193   5.894  0.0906  0.1900 -0.1996
  816loPI    C212374   5.478  14.415   5.762 -0.2286 -0.0790  0.0692
  816loPI    C312375   5.589  14.087   5.561  0.0569  0.1583 -0.1698
  816loPI   PO412376   5.729  14.178   6.150  0.0749  0.1949 -0.2428
  816loPI   GL112377   5.590  14.006   6.428  0.0146 -0.0927  0.1113
  816loPI   GL212378   5.495  14.211   6.641  0.0455  0.0135 -0.1431
  816loPI   C1A12379   5.517  13.780   6.850 -0.2306  0.2626  0.1990
  816loPI   C2A12380   5.677  13.779   7.206  0.3288 -0.0208  0.0485
  816loPI   C3A12381   5.729  13.755   7.638 -0.0905 -0.1745 -0.2573
  816loPI   C4A12382   5.703  13.810   8.086 -0.2269 -0.1669 -0.1621
  816loPI   C5A12383   5.645  13.945   8.486 -0.2397 -0.0131  0.3560
  816loPI   C6A12384   5.885  14.359   8.620  0.0080 -0.2693  0.0309
  816loPI   C1B12385   5.406  14.185   7.128  0.1143  0.0480  0.0722
  816loPI   C2B12386   5.385  14.096   7.495  0.1902  0.3122 -0.0661
  816loPI   C3B12387   5.445  14.242   7.802  0.1962  0.1110 -0.1952
  816loPI   C4B12388   5.378  14.203   8.151 -0.2634 -0.2264 -0.1460
  817loPI    C112389   7.289   1.975   5.807 -0.0974 -0.0312  0.0478
  817loPI    C212390   6.960   1.911   5.588  0.0751  0.0722 -0.2486
  817loPI    C312391   7.290   1.695   5.521  0.0974  0.0291 -0.0118
  817loPI   PO412392   7.143   2.092   6.077  0.1055  0.0746 -0.3437
  817loPI   GL112393   7.297   2.185   6.469 -0.1289  0.2199  0.0317
  817loPI   GL212394   7.570   2.165   6.482  0.2074 -0.0230  0.0947
  817loPI   C1A12395   7.364   2.211   6.995  0.0286  0.1457 -0.1533
  817loPI   C2A12396   7.319   2.208   7.432  0.0610 -0.0669 -0.1406
  817loPI   C3A12397   7.287   2.044   7.814  0.0430 -0.3122  0.0352
  817loPI   C4A12398   7.272   2.122   8.268 -0.1379  0.0280 -0.0348
  817loPI   C5A12399   7.243   2.209   8.674 -0.0855  0.1236  0.0596
  817loPI   C6A12400   7.205   2.477   8.947  0.0714 -0.0540  0.0555
  817loPI   C1B12401   7.858   2.180   6.848  0.3613  0.0286 -0.0143
  817loPI   C2B12402   7.877   2.192   7.262 -0.1328  0.2367  0.0582
  817loPI   C3B12403   7.843   2.191   7.744  0.0397  0.1241 -0.0073
  817loPI   C4B12404   7.779   2.052   8.104  0.1316  0.2969  0.1720
  818loPI    C112405   0.941   2.793   5.871  0.0341  0.2825  0.2292
  818loPI    C212406   1.301   2.944   5.786  0.0685  0.0670 -0.0222
  818loPI    C312407   1.040   2.871   5.492 -0.1839  0.2242  0.1585
  818loPI   PO412408   0.970   2.748   6.095 -0.1181  0.1122 -0.0856
  818loPI   GL112409   0.960   2.449   6.324 -0.0195 -0.1727  0.1443
  818loPI   GL212410   1.261   2.606   6.530 -0.0703 -0.2184  0.3285
  818loPI   C1A12411   0.809   2.484   6.793 -0.3950  0.0301  0.0491
  818loPI   C2A12412   0.737   2.466   7.202 -0.0669 -0.2923  0.1018
  818loPI   C3A12413   0.842   2.426   7.657  0.0432 -0.1521  0.1601
  818loPI   C4A12414   0.842   2.471   8.074 -0.0880  0.0664 -0.0734
  818loPI   C5A12415   0.769   2.571   8.489 -0.1078  0.2154  0.0819
  818loPI   C6A12416   0.444   2.887   8.600 -0.1163  0.0085 -0.3368
  818loPI   C1B12417   1.324   2.497   6.958  0.0998  0.1003  0.0128
  818loPI   C2B12418   1.237   2.464   7.392  0.0664  0.0802  0.2203
  818loPI   C3B12419   1.338   2.542   7.809 -0.0357  0.0985  0.0233
  818loPI   C4B12420   1.276   2.347   8.329 -0.1369  0.1298  0.0787
  819loPI    C112421  14.422  11.458   5.861 -0.0981 -0.2554  0.0478
  819loPI    C212422  14.595  11.571   5.519 -0.4292  0.1384  0.0028
  819loPI    C312423  14.728  11.715   5.867 -0.1800 -0.1568  0.0335
  819loPI   PO412424  14.421  11.201   5.919 -0.0314 -0.0989 -0.2261
  819loPI   GL112425  14.397  11.203   6.512  0.0897  0.0431 -0.0859
  819loPI   GL212426  14.026  10.997   6.629 -0.0876 -0.0164 -0.0079
  819loPI   C1A12427  14.501  10.905   6.844  0.1304  0.3532 -0.0254
  819loPI   C2A12428  14.608  10.977   7.308  0.1028  0.4387  0.1523
  819loPI   C3A12429  14.599  10.999   7.721  0.0563  0.0956 -0.2052
  819loPI   C4A12430  14.395  11.138   8.156  0.1858  0.1709 -0.1012
  819loPI   C5A12431  14.244  11.189   8.567  0.1237 -0.0883  0.0359
  819loPI   C6A12432  13.990  11.066   8.965  0.0277 -0.0393 -0.1937
  819loPI   C1B12433  14.075  10.993   7.023  0.0717  0.2338 -0.1666
  819loPI   C2B12434  14.067  10.877   7.384 -0.0342  0.0935 -0.1688
  819loPI   C3B12435  14.029  11.074   7.764  0.0790  0.1931 -0.2758
  819loPI   C4B12436  13.927  11.088   8.152 -0.3162 -0.1705  0.0320
  820loPI    C112437   1.771  15.853   5.714 -0.1033 -0.0003 -0.2610
  820loPI    C212438   1.960  16.094   5.457  0.0461 -0.0013 -0.1534
  820loPI    C312439   1.956  15.699   5.395  0.2069 -0.0159 -0.0777
  820loPI   PO412440   1.893  15.970   5.973 -0.0304 -0.3639  0.2906
  820loPI   GL112441   1.892  15.940   6.413 -0.0162  0.0486  0.0123
  820loPI   GL212442   2.236  15.979   6.591 -0.1949 -0.1213 -0.0172
  820loPI   C1A12443   1.654  15.780   6.788  0.1323 -0.3687 -0.0202
  820loPI   C2A12444   1.640  15.756   7.251  0.0690 -0.0167 -0.1990
  820loPI   C3A12445   1.674  15.776   7.593  0.0050 -0.1401 -0.2619
  820loPI   C4A12446   1.564  15.813   8.111 -0.1110 -0.2771  0.1507
  820loPI   C5A12447   1.630  15.855   8.524  0.1185  0.2841 -0.3157
  820loPI   C6A12448   1.676  16.328   8.750 -0.2310 -0.0755  0.0712
  820loPI   C1B12449   2.424  16.208   6.827 -0.0364  0.0929 -0.0695
  820loPI   C2B12450   2.418  16.286   7.233 -0.3682 -0.0618 -0.3200
  820loPI   C3B12451   2.419  16.239   7.676  0.1483  0.1213 -0.0802
  820loPI   C4B12452   2.353  16.306   8.125  0.1046 -0.2873 -0.0780
  821loPI    C112453  17.326   8.037   5.652  0.0748  0.0812  0.2592
  821loPI    C212454  16.986   8.116   5.456 -0.0042 -0.2644  0.2507
  821loPI    C312455  17.241   8.412   5.542 -0.2098 -0.0332  0.0776
  821loPI   PO412456  17.234   7.960   5.893 -0.1721  0.1917 -0.2086
  821loPI   GL112457  17.390   8.086   6.333  0.1665 -0.2752  0.0978
  821loPI   GL212458  17.678   8.390   6.432 -0.0364  0.1712  0.2332
  821loPI   C1A12459  17.515   7.975   6.773 -0.2363 -0.2843 -0.1177
  821loPI   C2A12460  17.474   7.929   7.116 -0.1955  0.0425  0.0335
  821loPI   C3A12461  17.486   7.899   7.609  0.3714 -0.0919 -0.0437
  821loPI   C4A12462  17.375   7.886   8.016  0.0012  0.2351  0.3763
  821loPI   C5A12463  17.474   8.014   8.366 -0.1442  0.2281 -0.1521
  821loPI   C6A12464  17.604   8.317   8.635 -0.0469 -0.1046 -0.2405
  821loPI   C1B12465  17.731   8.458   6.889 -0.0508 -0.2127  0.3363
  821loPI   C2B12466  17.712   8.389   7.305  0.0736  0.4216  0.2906
  821loPI   C3B12467  17.697   8.442   7.698 -0.0871  0.1014  0.4681
  821loPI   C4B12468  17.638   8.506   8.165  0.3940 -0.3626  0.1719
  822loPI    C112469   5.584   7.881   5.885 -0.1804 -0.1702 -0.0308
  822loPI    C212470   5.372   7.694   5.601  0.0080 -0.1537 -0.1842
  822loPI    C312471   5.460   8.083   5.563 -0.3571 -0.0341  0.1199
  822loPI   PO412472   5.434   7.895   6.155  0.0588 -0.2684  0.1088
  822loPI   GL112473   5.262   7.822   6.467  0.3168 -0.0457 -0.0284
  822loPI   GL212474   5.500   7.681   6.596  0.1342  0.0879  0.0491
  822loPI   C1A12475   5.301   8.047   6.868  0.0142  0.1635 -0.1374
  822loPI   C2A12476   5.299   8.089   7.372  0.0072  0.1652 -0.1373
  822loPI   C3A12477   5.231   7.989   7.795  0.1052 -0.2359 -0.4107
  822loPI   C4A12478   5.283   7.955   8.200 -0.0800  0.0233  0.0564
  822loPI   C5A12479   5.253   7.853   8.641  0.0528  0.3160  0.1542
  822loPI   C6A12480   5.542   7.867   8.929 -0.1221 -0.0959  0.1214
  822loPI   C1B12481   5.536   7.555   7.043  0.3959  0.2865  0.1274
  822loPI   C2B12482   5.553   7.534   7.457 -0.0195 -0.0220  0.0972
  822loPI   C3B12483   5.551   7.612   7.897 -0.0486 -0.2632  0.0428
  822loPI   C4B12484   5.664   7.622   8.364 -0.1378  0.0909  0.1214
  823loPI    C112485  13.470   9.717   5.863 -0.1633 -0.0944  0.0519
  823loPI    C212486  13.578  10.020   6.100 -0.0426 -0.0828 -0.0172
  823loPI    C312487  13.296  10.075   5.822  0.0558 -0.0035 -0.1022
  823loPI   PO412488  13.420   9.561   6.058  0.0626  0.2199 -0.1413
  823loPI   GL112489  13.228   9.554   6.455  0.0564 -0.0690 -0.3471
  823loPI   GL212490  12.865   9.611   6.610  0.0283  0.0152 -0.1174
  823loPI   C1A12491  13.384   9.619   6.772 -0.0555 -0.4626 -0.1767
  823loPI   C2A12492  13.323   9.661   7.212  0.0449  0.0746  0.0392
  823loPI   C3A12493  13.304   9.631   7.635  0.0148 -0.0415 -0.1258
  823loPI   C4A12494  13.304   9.641   8.075  0.1448  0.0905  0.3027
  823loPI   C5A12495  13.299   9.444   8.574  0.1074 -0.0335 -0.1477
  823loPI   C6A12496  13.204   9.221   8.899  0.0942  0.0809  0.4604
  823loPI   C1B12497  12.761   9.636   7.072  0.0254  0.1373 -0.0386
  823loPI   C2B12498  12.719   9.622   7.499 -0.3334  0.0037  0.1101
  823loPI   C3B12499  12.776   9.629   7.886  0.0526  0.0842  0.1572
  823loPI   C4B12500  12.857   9.668   8.322 -0.0666  0.4006  0.1641
  824loPI    C112501   2.909  16.399   5.798 -0.0138 -0.0912  0.2138
  824loPI    C212502   2.793  16.667   5.525  0.3615 -0.0406  0.0991
  824loPI    C312503   2.731  16.277   5.462  0.0620 -0.0018  0.1407
  824loPI   PO412504   2.781  16.438   6.017  0.3856 -0.2496 -0.1619
  824loPI   GL112505   2.781  16.326   6.460  0.0828 -0.0407  0.1408
  824loPI   GL212506   2.635  16.640   6.530 -0.1514 -0.2009  0.0603
  824loPI   C1A12507   2.928  16.236   6.871  0.2698 -0.0779 -0.0610
  824loPI   C2A12508   2.956  16.332   7.243 -0.1950 -0.0276  0.0228
  824loPI   C3A12509   2.987  16.213   7.674 -0.1393  0.1583  0.4180
  824loPI   C4A12510   2.889  16.323   8.046  0.2016 -0.1116  0.0739
  824loPI   C5A12511   2.880  16.435   8.479 -0.2595  0.1456  0.0405
  824loPI   C6A12512   2.655  16.417   8.831  0.1815  0.0044  0.1141
  824loPI   C1B12513   2.665  16.690   7.001  0.1041  0.1749 -0.2236
  824loPI   C2B12514   2.727  16.768   7.299  0.1828  0.1132  0.1669
  824loPI   C3B12515   2.647  16.652   7.707  0.1797 -0.2934 -0.1170
  824loPI   C4B12516   2.631  16.749   8.093 -0.0668  0.0581 -0.1668
  825loPI    C112517   5.121   1.540   5.720 -0.0073 -0.2132  0.2679
  825loPI    C212518   4.783   1.733   5.625  0.1187 -0.0347  0.1774
  825loPI    C312519   4.830   1.349   5.522  0.0687  0.0272 -0.0843
  825loPI   PO412520   5.208   1.563   5.969  0.0156  0.2461 -0.1338
  825loPI   GL112521   5.255   1.744   6.302 -0.0223 -0.0611  0.1114
  825loPI   GL212522   5.041   1.724   6.467  0.1082  0.0212 -0.1647
  825loPI   C1A12523   5.509   1.724   6.600  0.1339 -0.0606  0.0630
  825loPI   C2A12524   5.532   1.641   7.066 -0.2725 -0.1839 -0.0332
  825loPI   C3A12525   5.469   1.708   7.427  0.1550  0.5329 -0.0505
  825loPI   C4A12526   5.442   1.723   7.875  0.1692  0.1605  0.1366
  825loPI   C5A12527   5.444   1.715   8.263 -0.5157  0.2050  0.0946
  825loPI   C6A12528   5.680   1.769   8.612 -0.1306 -0.2917  0.2938
  825loPI   C1B12529   5.000   1.673   6.835 -0.2226  0.0548  0.0321
  825loPI   C2B12530   4.965   1.642   7.273  0.1062 -0.0837  0.0708
  825loPI   C3B12531   5.015   1.659   7.696  0.1847  0.1725 -0.1473
  825loPI   C4B12532   4.987   1.671   8.083 -0.1107 -0.0659 -0.1343
  826loPI    C112533   4.957  12.043   5.828  0.0592 -0.0487 -0.2140
  826loPI    C212534   4.942  12.325   5.545 -0.3166  0.1524 -0.0012
  826loPI    C312535   4.647  12.057   5.576 -0.1143 -0.0740 -0.0045
  826loPI   PO412536   5.047  12.168   6.006  0.2741 -0.1633 -0.0547
  826loPI   GL112537   5.195  12.477   6.304 -0.2513 -0.2167 -0.1774
  826loPI   GL212538   4.782  12.391   6.362 -0.0600  0.0083  0.3537
  826loPI   C1A12539   5.104  12.339   6.779  0.1484  0.0144  0.0368
  826loPI   C2A12540   4.988  12.367   7.215 -0.3101 -0.2728  0.1432
  826loPI   C3A12541   4.954  12.371   7.604 -0.0369  0.3823 -0.3101
  826loPI   C4A12542   5.004  12.466   7.975  0.1982  0.1170  0.1096
  826loPI   C5A12543   5.120  12.818   8.194  0.0679 -0.0651 -0.0481
  826loPI   C6A12544   5.241  13.046   8.623  0.3073 -0.2241 -0.0949
  826loPI   C1B12545   4.726  12.706   6.732  0.0118  0.2843  0.3593
  826loPI   C2B12546   4.699  12.833   7.212 -0.0968 -0.0496 -0.1673
  826loPI   C3B12547   4.728  12.834   7.606 -0.2087 -0.1584 -0.1279
  826loPI   C4B12548   4.643  12.810   7.960  0.0666 -0.0474  0.3388
  827loPI    C112549  14.898  10.102   5.822  0.0149 -0.0852 -0.1866
  827loPI    C212550  15.294  10.151   5.853 -0.0001  0.0495 -0.2021
  827loPI    C312551  15.114  10.192   5.498 -0.0190 -0.0793 -0.2077
  827loPI   PO412552  14.838   9.967   5.969 -0.4243  0.1012  0.1791
  827loPI   GL112553  14.725   9.704   6.266 -0.0545 -0.0418  0.0172
  827loPI   GL212554  14.452   9.531   6.216 -0.0283 -0.2016 -0.2426
  827loPI   C1A12555  14.843   9.658   6.764 -0.2291  0.0024  0.1172
  827loPI   C2A12556  14.908   9.730   7.121 -0.0164 -0.0162  0.0812
  827loPI   C3A12557  14.862   9.598   7.444 -0.2873 -0.1681 -0.0335
  827loPI   C4A12558  14.805   9.661   7.873 -0.0222 -0.0226  0.1362
  827loPI   C5A12559  14.754   9.678   8.256  0.0760 -0.0987 -0.1105
  827loPI   C6A12560  14.399   9.750   8.519  0.0904 -0.0431 -0.2198
  827loPI   C1B12561  14.338   9.636   6.606 -0.1860 -0.2893 -0.0592
  827loPI   C2B12562  14.379   9.641   7.090  0.2684 -0.0598  0.1387
  827loPI   C3B12563  14.325   9.674   7.552 -0.2251  0.0860  0.2155
  827loPI   C4B12564  14.297   9.660   8.013 -0.2447  0.2075  0.1389
  828loPI    C112565   2.932   5.322   5.772  0.0651 -0.1516 -0.0354
  828loPI    C212566   3.320   5.331   5.678 -0.0208  0.1579 -0.3833
  828loPI    C312567   3.093   5.023   5.561  0.1118 -0.0116 -0.2006
  828loPI   PO412568   2.941   5.397   5.994  0.2039 -0.0417 -0.3203
  828loPI   GL112569   2.742   5.631   6.445 -0.1149 -0.1070  0.0718
  828loPI   GL212570   2.636   5.865   6.449 -0.1529 -0.0586 -0.0170
  828loPI   C1A12571   2.525   5.562   6.849 -0.1373  0.2703 -0.0965
  828loPI   C2A12572   2.544   5.649   7.318 -0.3849  0.1466  0.2126
  828loPI   C3A12573   2.478   5.607   7.731  0.1073 -0.2807  0.3091
  828loPI   C4A12574   2.349   5.732   8.204  0.0659 -0.1339  0.1777
  828loPI   C5A12575   2.383   6.030   8.524  0.0184 -0.0645 -0.2082
  828loPI   C6A12576   2.446   6.093   9.067 -0.2418 -0.1519 -0.3239
  828loPI   C1B12577   2.769   5.989   6.891  0.0090  0.1168  0.0816
  828loPI   C2B12578   2.799   6.214   7.218 -0.2659  0.0846 -0.0525
  828loPI   C3B12579   2.787   6.006   7.591 -0.0204  0.3345 -0.1337
  828loPI   C4B12580   2.621   6.151   8.044 -0.0040  0.1689 -0.0070
  829loPI    C112581  17.130  15.011   6.273  0.2599  0.0440  0.0509
  829loPI    C212582  17.323  14.990   5.923 -0.0045 -0.0719 -0.0900
  829loPI    C312583  16.949  15.131   5.938 -0.0690 -0.2582  0.1158
  829loPI   PO412584  17.189  14.815   6.391 -0.2056 -0.2295  0.0917
  829loPI   GL112585  17.018  14.767   6.799  0.3498 -0.0722  0.0049
  829loPI   GL212586  16.895  15.014   6.776  0.4212  0.1863  0.1688
  829loPI   C1A12587  17.070  14.710   7.187 -0.0122 -0.1748 -0.1251
  829loPI   C2A12588  17.105  14.669   7.559 -0.0378  0.0484  0.4199
  829loPI   C3A12589  17.008  14.818   7.873  0.1426  0.1116 -0.0948
  829loPI   C4A12590  17.021  14.703   8.262  0.1116 -0.3178  0.1479
  829loPI   C5A12591  17.073  14.642   8.716  0.0069 -0.0061  0.0525
  829loPI   C6A12592  17.390  14.749   9.109 -0.1388  0.0040  0.0793
  829loPI   C1B12593  16.807  15.158   7.097  0.1051 -0.3662  0.0460
  829loPI   C2B12594  16.777  15.134   7.492  0.0990  0.1189  0.0890
  829loPI   C3B12595  16.720  15.341   7.973  0.1804 -0.3217  0.2557
  829loPI   C4B12596  16.838  15.320   8.418  0.0171  0.0680 -0.0625
  830loPI    C112597   3.948  15.199   5.818 -0.1961 -0.2017  0.0064
  830loPI    C212598   3.652  15.366   5.607 -0.0787 -0.0796 -0.0636
  830loPI    C312599   3.941  15.162   5.420 -0.1694 -0.2821  0.0132
  830loPI   PO412600   3.854  15.097   5.963 -0.1430 -0.1071  0.0997
  830loPI   GL112601   3.939  14.939   6.369  0.2931 -0.0663  0.2175
  830loPI   GL212602   3.852  15.104   6.566  0.0350 -0.1867 -0.0900
  830loPI   C1A12603   3.958  14.663   6.749 -0.0895 -0.0440  0.1063
  830loPI   C2A12604   4.010  14.588   7.184  0.0618  0.0308  0.1624
  830loPI   C3A12605   4.053  14.547   7.594  0.1794  0.2332  0.3736
  830loPI   C4A12606   4.035  14.581   7.965  0.1538 -0.0815  0.0961
  830loPI   C5A12607   4.133  14.772   8.349 -0.0870 -0.0515 -0.1885
  830loPI   C6A12608   4.302  15.200   8.594 -0.3411 -0.0061 -0.0298
  830loPI   C1B12609   3.773  15.025   6.982 -0.1574 -0.0251  0.0941
  830loPI   C2B12610   3.659  14.986   7.456 -0.0533 -0.2526 -0.1284
  830loPI   C3B12611   3.752  15.061   7.864 -0.1503 -0.0031 -0.2413
  830loPI   C4B12612   3.850  15.164   8.259 -0.0135  0.1538 -0.0118
  831loPI    C112613   9.177   9.658   5.594 -0.0537 -0.0383  0.2340
  831loPI    C212614   8.830   9.542   5.432 -0.1053  0.2304  0.1478
  831loPI    C312615   9.009   9.877   5.305  0.1982  0.0822  0.1761
  831loPI   PO412616   9.247   9.714   5.858  0.1294 -0.0553 -0.1525
  831loPI   GL112617   9.155   9.651   6.242  0.1430 -0.0579 -0.0731
  831loPI   GL212618   9.003   9.383   6.479  0.1705  0.1508 -0.4312
  831loPI   C1A12619   9.034   9.889   6.582  0.2456 -0.0601  0.1333
  831loPI   C2A12620   8.878   9.872   6.920  0.2922  0.1607 -0.0106
  831loPI   C3A12621   8.924   9.869   7.391 -0.0586  0.2170 -0.0862
  831loPI   C4A12622   8.773   9.989   7.832 -0.0969  0.1991  0.1572
  831loPI   C5A12623   8.863   9.795   8.341  0.1522 -0.1099  0.1918
  831loPI   C6A12624   8.631   9.743   8.803 -0.1353  0.1041  0.2745
  831loPI   C1B12625   8.654   9.449   6.857  0.2470  0.0641  0.2474
  831loPI   C2B12626   8.583   9.445   7.279 -0.2349 -0.2547 -0.3730
  831loPI   C3B12627   8.553   9.485   7.718  0.0162  0.2593  0.2310
  831loPI   C4B12628   8.530   9.463   8.121 -0.0154  0.1468  0.0476
  832loPI    C112629   8.293  15.561   5.640 -0.0208 -0.1331 -0.0220
  832loPI    C212630   7.993  15.766   5.472 -0.1018 -0.0773  0.1875
  832loPI    C312631   8.357  15.775   5.308 -0.1280  0.1544  0.1383
  832loPI   PO412632   8.159  15.508   5.927 -0.2783  0.1501  0.0982
  832loPI   GL112633   8.025  15.576   6.373 -0.4135  0.0421  0.3124
  832loPI   GL212634   8.121  15.288   6.612  0.1886  0.0801 -0.2775
  832loPI   C1A12635   7.929  15.806   6.737 -0.0307 -0.0761  0.0773
  832loPI   C2A12636   7.973  15.867   7.196 -0.3517 -0.0827  0.0777
  832loPI   C3A12637   7.896  15.960   7.552  0.0662  0.0169 -0.2435
  832loPI   C4A12638   7.915  15.908   8.034 -0.2868  0.2223 -0.1805
  832loPI   C5A12639   8.005  15.905   8.482 -0.0559  0.0102  0.0255
  832loPI   C6A12640   8.122  15.813   8.882  0.1177  0.0098 -0.0670
  832loPI   C1B12641   8.235  15.426   7.048  0.1660 -0.4527  0.0786
  832loPI   C2B12642   8.222  15.545   7.481  0.1218  0.3260 -0.0682
  832loPI   C3B12643   8.228  15.525   7.912  0.4467 -0.2600  0.3784
  832loPI   C4B12644   8.207  15.449   8.318  0.0076 -0.0241 -0.0418
  833loPI    C112645   1.036  11.880   6.218  0.2065  0.0204 -0.2585
  833loPI    C212646   1.220  11.590   6.012  0.4960  0.1601 -0.2014
  833loPI    C312647   1.000  11.863   5.820  0.1563 -0.1392 -0.2478
  833loPI   PO412648   1.010  11.813   6.432 -0.3437  0.0888 -0.0662
  833loPI   GL112649   0.920  11.991   6.828 -0.0716 -0.2878 -0.1730
  833loPI   GL212650   1.211  11.801   6.943  0.0121  0.1183  0.1051
  833loPI   C1A12651   0.835  12.194   7.220  0.1241 -0.0042  0.0996
  833loPI   C2A12652   0.840  12.093   7.682  0.1331  0.2525  0.1081
  833loPI   C3A12653   0.781  12.071   8.160 -0.0282 -0.0391  0.2009
  833loPI   C4A12654   0.631  11.970   8.548  0.0565 -0.1919  0.1108
  833loPI   C5A12655   0.431  12.156   8.789 -0.0087  0.4228  0.1228
  833loPI   C6A12656   0.225  12.389   9.079  0.0457  0.2341 -0.3270
  833loPI   C1B12657   1.129  11.760   7.385  0.2947 -0.0027 -0.1545
  833loPI   C2B12658   1.162  11.682   7.821  0.2089 -0.0007  0.0561
  833loPI   C3B12659   0.932  11.556   8.157 -0.2640 -0.0231  0.0910
  833loPI   C4B12660   1.035  11.583   8.628 -0.4783  0.1316  0.1726
  834loPI    C112661  17.345  13.150   5.783 -0.1600  0.3167  0.2795
  834loPI    C212662  17.001  12.945   5.770 -0.1292  0.2733  0.1263
  834loPI    C312663  17.067  13.243   5.511  0.0079  0.1861  0.0591
  834loPI   PO412664  17.364  13.174   6.059 -0.1880  0.1352  0.0686
  834loPI   GL112665  17.380  13.172   6.496  0.0157  0.1458 -0.3483
  834loPI   GL212666  17.185  13.338   6.592  0.2054  0.1524 -0.0665
  834loPI   C1A12667  17.573  12.996   6.910 -0.0247 -0.1267  0.0401
  834loPI   C2A12668  17.647  12.973   7.341 -0.4122 -0.1681  0.2886
  834loPI   C3A12669  17.724  12.958   7.718 -0.0153 -0.2931 -0.0866
  834loPI   C4A12670  17.692  12.905   8.138 -0.2110  0.0557  0.0224
  834loPI   C5A12671  17.570  12.732   8.599  0.0853 -0.2305  0.2514
  834loPI   C6A12672  17.314  12.863   8.984  0.0020 -0.5127 -0.1013
  834loPI   C1B12673  17.321  13.415   7.010  0.2011 -0.0086 -0.2099
  834loPI   C2B12674  17.313  13.407   7.470  0.0744 -0.2545  0.0277
  834loPI   C3B12675  17.402  13.346   7.908 -0.0321 -0.0686 -0.0288
  834loPI   C4B12676  17.218  13.357   8.330 -0.1609  0.1099  0.3199
  835loPI    C112677  10.424   7.567   5.938  0.0255  0.0046 -0.0363
  835loPI    C212678  10.140   7.321   5.802  0.0957 -0.1179  0.0361
  835loPI    C312679  10.461   7.400   5.577  0.0137  0.0068 -0.0385
  835loPI   PO412680  10.420   7.589   6.228  0.2192 -0.0324 -0.1698
  835loPI   GL112681  10.271   7.606   6.672 -0.0260 -0.2924  0.0374
  835loPI   GL212682  10.439   7.277   6.702  0.1587  0.0564  0.0398
  835loPI   C1A12683  10.256   7.710   7.115  0.2195 -0.0300 -0.3999
  835loPI   C2A12684  10.186   7.728   7.609  0.1025  0.2375  0.0143
  835loPI   C3A12685  10.290   7.777   8.031  0.3707  0.1099  0.1684
  835loPI   C4A12686  10.189   7.822   8.450 -0.2231 -0.0036 -0.0017
  835loPI   C5A12687   9.899   7.580   8.700 -0.3527 -0.3458  0.0431
  835loPI   C6A12688   9.703   7.318   8.887 -0.2029 -0.1681  0.1264
  835loPI   C1B12689  10.359   7.252   7.143 -0.1944 -0.1669 -0.0246
  835loPI   C2B12690  10.474   7.312   7.535 -0.0401  0.0094  0.0258
  835loPI   C3B12691  10.506   7.290   8.012  0.0459 -0.1854 -0.0798
  835loPI   C4B12692  10.449   7.358   8.427 -0.0231 -0.2047 -0.1191
  836loPI    C112693  12.571   3.779   5.768 -0.3405 -0.0611  0.1267
  836loPI    C212694  12.800   3.986   5.515 -0.3191 -0.0395  0.1637
  836loPI    C312695  12.472   3.801   5.381 -0.1505 -0.2714  0.0638
  836loPI   PO412696  12.690   3.663   5.918 -0.0688 -0.0819 -0.0236
  836loPI   GL112697  12.731   3.414   6.329 -0.3139 -0.0610  0.1860
  836loPI   GL212698  13.087   3.400   6.288  0.0707 -0.3054 -0.4812
  836loPI   C1A12699  12.744   3.525   6.747 -0.2176 -0.3629 -0.1070
  836loPI   C2A12700  12.796   3.604   7.117  0.3048  0.1719 -0.1551
  836loPI   C3A12701  12.835   3.626   7.600 -0.1344 -0.0707 -0.3073
  836loPI   C4A12702  12.679   3.769   7.992 -0.0971 -0.0357  0.0940
  836loPI   C5A12703  12.605   3.798   8.453 -0.1519 -0.1571 -0.1731
  836loPI   C6A12704  12.544   3.843   8.928  0.2765  0.0229  0.0921
  836loPI   C1B12705  13.292   3.592   6.647  0.0431 -0.0753  0.1178
  836loPI   C2B12706  13.315   3.584   7.153  0.0572 -0.0282 -0.1086
  836loPI   C3B12707  13.326   3.615   7.560 -0.1890  0.0152  0.4177
  836loPI   C4B12708  13.287   3.801   7.949 -0.1238 -0.0960 -0.1150
  837loPI    C112709  10.979   0.074   6.025 -0.0438  0.0192 -0.0436
  837loPI    C212710  10.681   0.078   5.758  0.0668  0.0779 -0.1672
  837loPI    C312711  11.049   0.191   5.649  0.1112  0.1100  0.0127
  837loPI   PO412712  10.904   0.160   6.243 -0.2668 -0.2083  0.0123
  837loPI   GL112713  10.854   0.352   6.565  0.2929  0.0041 -0.0437
  837loPI   GL212714  11.132   0.462   6.577  0.2080  0.0280  0.2478
  837loPI   C1A12715  10.534   0.364   6.885 -0.0162 -0.1633 -0.1052
  837loPI   C2A12716  10.423   0.366   7.344  0.2986  0.0704  0.1905
  837loPI   C3A12717  10.489   0.386   7.771 -0.0884 -0.3759 -0.4556
  837loPI   C4A12718  10.533   0.456   8.172  0.0290  0.1031 -0.1948
  837loPI   C5A12719  10.297   0.234   8.524  0.3914 -0.0382  0.0838
  837loPI   C6A12720   9.941  -0.013   8.777 -0.3759  0.1400 -0.2363
  837loPI   C1B12721  11.010   0.473   7.048  0.1552 -0.0261  0.2639
  837loPI   C2B12722  10.956   0.339   7.474 -0.2141 -0.1840 -0.0223
  837loPI   C3B12723  10.960   0.381   7.910  0.1032  0.2596  0.2684
  837loPI   C4B12724  11.138   0.372   8.278  0.0783  0.2186 -0.0602
  838loPI    C112725   7.921   4.960   5.658  0.0807 -0.1914 -0.0618
  838loPI    C212726   8.059   5.309   5.518 -0.0439 -0.1153  0.0027
  838loPI    C312727   7.959   5.017   5.263 -0.2046 -0.0021 -0.0653
  838loPI   PO412728   8.120   4.899   5.863 -0.1815  0.1814  0.2206
  838loPI   GL112729   8.084   4.789   6.247 -0.2963  0.4561 -0.2358
  838loPI   GL212730   7.884   5.060   6.327 -0.1458  0.0466  0.0936
  838loPI   C1A12731   8.286   4.996   6.519 -0.1197  0.0807 -0.0361
  838loPI   C2A12732   8.371   4.869   6.925 -0.0820 -0.2217  0.1860
  838loPI   C3A12733   8.227   4.900   7.364 -0.0646 -0.0620 -0.1541
  838loPI   C4A12734   8.258   4.927   7.767  0.0948 -0.1315  0.0293
  838loPI   C5A12735   8.290   4.921   8.203 -0.0531 -0.0259 -0.0358
  838loPI   C6A12736   8.158   4.731   8.562 -0.2394  0.2997  0.1223
  838loPI   C1B12737   7.794   4.927   6.788 -0.0452 -0.0108  0.0516
  838loPI   C2B12738   7.736   4.942   7.278  0.0921  0.1055  0.1003
  838loPI   C3B12739   7.747   4.969   7.774  0.2303  0.1457  0.1228
  838loPI   C4B12740   7.759   4.955   8.233  0.0433 -0.1597  0.2536
  839loPI    C112741   9.109   5.013   5.874  0.1663  0.1749 -0.0496
  839loPI    C212742   9.325   4.867   5.571 -0.1106  0.0582 -0.1948
  839loPI    C312743   8.930   4.807   5.582 -0.0850 -0.0632  0.2653
  839loPI   PO412744   9.286   5.070   6.036  0.1963  0.0256 -0.0736
  839loPI   GL112745   9.386   4.967   6.462  0.0750  0.1137 -0.4634
  839loPI   GL212746   9.770   4.992   6.389  0.1573  0.0807 -0.1661
  839loPI   C1A12747   9.406   4.999   6.940 -0.1267  0.1585  0.0509
  839loPI   C2A12748   9.284   5.032   7.333  0.0054  0.2344 -0.2990
  839loPI   C3A12749   9.283   5.066   7.678 -0.1598  0.2659  0.0954
  839loPI   C4A12750   9.338   4.953   8.068 -0.2288 -0.3554 -0.1522
  839loPI   C5A12751   9.506   4.921   8.461 -0.1371  0.0863 -0.0782
  839loPI   C6A12752   9.754   4.945   8.811  0.2490 -0.0542  0.2234
  839loPI   C1B12753   9.871   4.959   6.813  0.0188 -0.4128 -0.0758
  839loPI   C2B12754   9.837   5.024   7.273 -0.0531  0.1319 -0.3014
  839loPI   C3B12755   9.866   4.938   7.716 -0.0938  0.2341  0.2935
  839loPI   C4B12756   9.904   4.939   8.106 -0.0240 -0.1266  0.1306
  840loPI    C112757  12.976   7.935   5.856 -0.2621  0.3997  0.0216
  840loPI    C212758  13.232   8.128   5.617 -0.0192  0.1898  0.1070
  840loPI    C312759  13.029   7.812   5.479  0.1947  0.0080  0.2030
  840loPI   PO412760  13.113   7.891   6.152  0.1906 -0.2490 -0.2895
  840loPI   GL112761  13.058   7.596   6.465  0.3389 -0.0476 -0.1834
  840loPI   GL212762  13.250   7.236   6.447  0.1519  0.4879  0.0575
  840loPI   C1A12763  12.941   7.792   6.941 -0.1924  0.1714  0.0449
  840loPI   C2A12764  12.953   7.721   7.407  0.2288 -0.1651 -0.0334
  840loPI   C3A12765  12.917   7.771   7.765 -0.0595 -0.1117  0.2744
  840loPI   C4A12766  12.800   7.807   8.185 -0.0899  0.2385 -0.2086
  840loPI   C5A12767  12.816   7.972   8.566 -0.1300 -0.1361  0.1215
  840loPI   C6A12768  12.750   8.365   8.671  0.0697  0.1441 -0.1290
  840loPI   C1B12769  13.196   7.259   6.868 -0.1979  0.3510 -0.1606
  840loPI   C2B12770  13.175   7.202   7.309 -0.0880 -0.1437  0.2899
  840loPI   C3B12771  13.131   7.303   7.752 -0.2200  0.1910 -0.1264
  840loPI   C4B12772  13.179   7.217   8.184 -0.0075  0.4332 -0.0277
  841loPI    C112773   2.698  15.966   5.937 -0.3965  0.1199 -0.1236
  841loPI    C212774   2.380  15.934   5.697 -0.4387  0.1152 -0.0672
  841loPI    C312775   2.728  15.768   5.591 -0.3983  0.2977 -0.2268
  841loPI   PO412776   2.663  15.838   6.308  0.0013 -0.3021 -0.1197
  841loPI   GL112777   2.582  15.602   6.602 -0.2137 -0.1910 -0.0953
  841loPI   GL212778   2.557  15.220   6.654  0.2263  0.1807  0.2798
  841loPI   C1A12779   2.697  15.802   6.925  0.0850 -0.2513  0.0185
  841loPI   C2A12780   2.713  15.891   7.398  0.2281 -0.1900  0.0116
  841loPI   C3A12781   2.670  15.883   7.920 -0.2125  0.1502 -0.0500
  841loPI   C4A12782   2.672  15.979   8.383  0.2353 -0.0280 -0.0703
  841loPI   C5A12783   2.395  15.737   8.642 -0.0994 -0.0119 -0.0954
  841loPI   C6A12784   1.977  15.903   8.905 -0.1461  0.1596 -0.1295
  841loPI   C1B12785   2.466  15.286   7.035 -0.0267 -0.1182  0.1979
  841loPI   C2B12786   2.445  15.381   7.361 -0.1225  0.1469 -0.0737
  841loPI   C3B12787   2.419  15.434   7.815  0.1583  0.1067 -0.0089
  841loPI   C4B12788   2.446  15.454   8.252  0.3128 -0.1528 -0.1506
  842loPI    C112789  15.164   5.517   6.104 -0.1893  0.4450 -0.1932
  842loPI    C212790  15.208   5.267   5.795 -0.1266  0.2794 -0.0527
  842loPI    C312791  15.410   5.612   5.804  0.2133  0.0833  0.0103
  842loPI   PO412792  15.182   5.301   6.292  0.2992 -0.1157 -0.2774
  842loPI   GL112793  15.284   5.307   6.626  0.0120 -0.1316  0.0256
  842loPI   GL212794  15.239   5.595   6.729 -0.0838 -0.0076 -0.1701
  842loPI   C1A12795  14.978   5.156   7.025 -0.2441  0.3748 -0.1430
  842loPI   C2A12796  14.963   5.095   7.448  0.0607  0.0173 -0.1373
  842loPI   C3A12797  15.010   5.134   7.918  0.3240 -0.0980  0.2593
  842loPI   C4A12798  14.953   5.052   8.393  0.0397  0.1118 -0.0421
  842loPI   C5A12799  14.573   4.912   8.576  0.3984  0.0286  0.0644
  842loPI   C6A12800  14.257   4.690   8.523  0.2410 -0.0052  0.0031
  842loPI   C1B12801  15.282   5.554   7.093 -0.2520 -0.2017 -0.3242
  842loPI   C2B12802  15.276   5.631   7.641  0.2102 -0.0140  0.2645
  842loPI   C3B12803  15.188   5.548   8.161 -0.5212 -0.0878 -0.1378
  842loPI   C4B12804  15.118   5.541   8.654 -0.3694  0.0552 -0.1310
  843loPI    C112805  14.955   8.647   5.603  0.1770 -0.1455 -0.0323
  843loPI    C212806  15.113   8.287   5.531 -0.1422 -0.2541 -0.2070
  843loPI    C312807  15.119   8.568   5.247  0.1548 -0.0998 -0.0527
  843loPI   PO412808  15.059   8.724   5.847 -0.1506 -0.1129  0.0549
  843loPI   GL112809  15.039   8.751   6.311  0.0105 -0.0670  0.1696
  843loPI   GL212810  15.288   8.872   6.313  0.0351  0.0732 -0.2071
  843loPI   C1A12811  14.884   8.785   6.728  0.1828 -0.0415 -0.0517
  843loPI   C2A12812  14.784   8.732   7.153  0.0848 -0.1669  0.2987
  843loPI   C3A12813  14.842   8.802   7.508 -0.0539  0.0284  0.1420
  843loPI   C4A12814  14.765   8.746   7.879  0.0583  0.1259  0.3518
  843loPI   C5A12815  14.839   8.660   8.254  0.0230  0.1607 -0.2089
  843loPI   C6A12816  14.848   8.405   8.578 -0.1613 -0.1993  0.0603
  843loPI   C1B12817  15.396   8.785   6.747 -0.1743 -0.0140 -0.1893
  843loPI   C2B12818  15.517   8.713   7.165  0.1077 -0.1133 -0.0578
  843loPI   C3B12819  15.429   8.749   7.623  0.0240  0.0817  0.0430
  843loPI   C4B12820  15.337   8.739   8.082  0.2677 -0.1208 -0.1333
  844loPI    C112821  11.724  14.597   5.537 -0.1732 -0.0575  0.0496
  844loPI    C212822  11.950  14.383   5.286  0.0204 -0.0032  0.1760
  844loPI    C312823  11.610  14.550   5.156 -0.0597 -0.2666  0.0401
  844loPI   PO412824  11.724  14.372   5.739 -0.1074 -0.1528 -0.2542
  844loPI   GL112825  11.672  14.448   6.230 -0.0756  0.1326 -0.0524
  844loPI   GL212826  11.512  14.272   6.198  0.2947 -0.1032 -0.0250
  844loPI   C1A12827  11.791  14.531   6.708 -0.2930 -0.2793 -0.1536
  844loPI   C2A12828  11.787  14.662   7.167  0.4054 -0.1039 -0.0482
  844loPI   C3A12829  11.818  14.717   7.499  0.1623  0.2773 -0.1750
  844loPI   C4A12830  11.898  14.677   7.899  0.0155  0.2189 -0.1337
  844loPI   C5A12831  12.006  14.736   8.289  0.0348 -0.1887  0.0681
  844loPI   C6A12832  12.334  14.994   8.547  0.1138 -0.0107  0.0643
  844loPI   C1B12833  11.477  14.191   6.682  0.2412  0.2523  0.2379
  844loPI   C2B12834  11.568  14.191   7.079 -0.1336 -0.1909  0.0326
  844loPI   C3B12835  11.537  14.242   7.532  0.0471 -0.1811  0.1002
  844loPI   C4B12836  11.634  14.220   7.930 -0.1022 -0.1039  0.4129
  845loPI    C112837   7.684   1.038   5.453 -0.0927 -0.0517 -0.2524
  845loPI    C212838   7.402   1.256   5.271 -0.0877 -0.0264 -0.2301
  845loPI    C312839   7.736   1.155   5.074 -0.1232 -0.0774 -0.2646
  845loPI   PO412840   7.605   1.216   5.719  0.0168 -0.2487  0.0780
  845loPI   GL112841   7.745   1.223   6.216 -0.0254 -0.0876 -0.2723
  845loPI   GL212842   8.075   1.160   6.305 -0.1152  0.2570  0.1462
  845loPI   C1A12843   7.470   1.303   6.535 -0.1028 -0.0791  0.1138
  845loPI   C2A12844   7.401   1.235   6.975  0.0303 -0.0884  0.1987
  845loPI   C3A12845   7.320   1.199   7.479  0.0798  0.0404  0.0054
  845loPI   C4A12846   7.247   1.235   7.893  0.2187  0.2340 -0.2545
  845loPI   C5A12847   7.257   1.251   8.298  0.0774  0.2062  0.0899
  845loPI   C6A12848   7.359   1.276   8.717  0.2178  0.1434  0.1330
  845loPI   C1B12849   7.905   1.226   6.720  0.0749 -0.1485 -0.1784
  845loPI   C2B12850   7.858   1.247   7.176 -0.0165  0.0884 -0.0083
  845loPI   C3B12851   7.936   1.278   7.605  0.3855  0.1924 -0.0872
  845loPI   C4B12852   7.814   1.241   8.028 -0.1829  0.0176 -0.0636
  846loPI    C112853   9.209  10.263   5.602  0.1131  0.2037  0.1140
  846loPI    C212854   9.579  10.393   5.523  0.1837  0.1251  0.3093
  846loPI    C312855   9.482  10.012   5.451  0.0937  0.1843  0.1110
  846loPI   PO412856   9.126  10.394   5.789 -0.0818 -0.2053  0.1590
  846loPI   GL112857   9.302  10.452   6.215  0.3949  0.2208 -0.0187
  846loPI   GL212858   9.056  10.175   6.186  0.1806  0.2243 -0.0738
  846loPI   C1A12859   9.242  10.508   6.570  0.0226  0.2985 -0.1689
  846loPI   C2A12860   9.176  10.308   6.969  0.2674  0.0144  0.0591
  846loPI   C3A12861   9.099  10.363   7.434 -0.0116 -0.0066 -0.0825
  846loPI   C4A12862   9.132  10.395   7.857  0.2212  0.0302 -0.0608
  846loPI   C5A12863   9.288  10.248   8.286 -0.1314  0.1225 -0.1836
  846loPI   C6A12864   9.412  10.558   8.562  0.0778  0.0178  0.3752
  846loPI   C1B12865   9.453  10.061   6.412 -0.3270 -0.3266 -0.0124
  846loPI   C2B12866   9.525  10.012   6.904 -0.0363  0.1156 -0.2116
  846loPI   C3B12867   9.465  10.027   7.350  0.0678  0.1812  0.2746
  846loPI   C4B12868   9.266   9.905   7.753 -0.2356 -0.0097  0.0152
  847loPI    C112869  17.177  17.340   6.049  0.3616 -0.2314  0.1832
  847loPI    C212870  17.267  17.633   5.791  0.1491 -0.0575  0.3033
  847loPI    C312871  17.109  17.290   5.658  0.2056 -0.0377  0.1841
  847loPI   PO412872  17.300  17.335   6.269 -0.0993 -0.0856 -0.0276
  847loPI   GL112873  17.666  17.652   6.303  0.0049  0.2604 -0.0457
  847loPI   GL212874  17.678  17.390   6.572  0.0290 -0.0450  0.0892
  847loPI   C1A12875  17.831  17.856   6.608 -0.0021  0.0146  0.0548
  847loPI   C2A12876  17.732  18.066   7.025 -0.1804 -0.0495 -0.2914
  847loPI   C3A12877  17.722  18.141   7.441 -0.0862  0.1538  0.1004
  847loPI   C4A12878  17.809  18.003   7.915 -0.0868 -0.2831 -0.0145
  847loPI   C5A12879  17.733  17.996   8.373 -0.0764  0.0464 -0.0756
  847loPI   C6A12880  17.807  18.051   8.821 -0.0353 -0.2374 -0.1416
  847loPI   C1B12881  17.993  17.519   6.903 -0.2710  0.1878 -0.1025
  847loPI   C2B12882  18.047  17.598   7.342  0.0538  0.0618  0.2997
  847loPI   C3B12883  18.037  17.577   7.823  0.2176  0.1704 -0.0439
  847loPI   C4B12884  18.048  17.624   8.319 -0.1113  0.0466  0.0733
  848loPI    C112885   3.289  11.158   5.957 -0.0107  0.2168  0.2099
  848loPI    C212886   3.576  11.238   5.691  0.0051 -0.2061  0.0920
  848loPI    C312887   3.356  11.535   5.843 -0.0177  0.0431 -0.4072
  848loPI   PO412888   3.483  11.021   6.180  0.1477 -0.2606 -0.0328
  848loPI   GL112889   3.651  11.128   6.552  0.2925  0.0160 -0.2928
  848loPI   GL212890   3.738  10.887   6.598 -0.0163  0.3067 -0.0738
  848loPI   C1A12891   3.388  11.065   6.897 -0.0802  0.1037  0.1231
  848loPI   C2A12892   3.378  11.054   7.213 -0.0567  0.2779 -0.0391
  848loPI   C3A12893   3.310  11.013   7.605 -0.1252 -0.0068 -0.0649
  848loPI   C4A12894   3.230  10.951   8.040 -0.1840  0.0036 -0.0230
  848loPI   C5A12895   3.329  10.913   8.446  0.1789  0.0455  0.0224
  848loPI   C6A12896   3.298  11.127   8.804 -0.2300  0.0092  0.2585
  848loPI   C1B12897   3.794  10.901   7.084 -0.0486 -0.0962  0.1532
  848loPI   C2B12898   3.834  10.942   7.492 -0.0545  0.1197  0.0441
  848loPI   C3B12899   3.836  11.027   7.790  0.1133 -0.3645 -0.1167
  848loPI   C4B12900   3.820  10.991   8.195 -0.0689  0.0136  0.0866
  849loPI    C112901   3.440  10.166   6.147  0.0331 -0.2259  0.0890
  849loPI    C212902   3.778  10.000   6.013  0.1505  0.1973 -0.1599
  849loPI    C312903   3.589  10.274   5.792 -0.2092  0.1670  0.1007
  849loPI   PO412904   3.338  10.031   6.326 -0.1343 -0.0286 -0.1537
  849loPI   GL112905   3.180   9.917   6.724 -0.2144  0.0705 -0.0414
  849loPI   GL212906   2.983  10.162   6.702  0.1156 -0.0062 -0.1884
  849loPI   C1A12907   3.396  10.098   7.058  0.1328  0.0963 -0.2236
  849loPI   C2A12908   3.337  10.105   7.535  0.1681  0.0715 -0.1920
  849loPI   C3A12909   3.306  10.161   8.046 -0.0872 -0.1256 -0.1601
  849loPI   C4A12910   3.324  10.092   8.446  0.1658 -0.0219  0.1811
  849loPI   C5A12911   3.136  10.215   8.788  0.1169  0.0267  0.2646
  849loPI   C6A12912   2.949  10.159   9.084 -0.3355  0.0713 -0.1849
  849loPI   C1B12913   2.912  10.120   7.100 -0.2052 -0.0192  0.0460
  849loPI   C2B12914   2.817  10.014   7.504 -0.0592 -0.1033 -0.1065
  849loPI   C3B12915   2.779  10.099   7.967  0.0249 -0.0979  0.0462
  849loPI   C4B12916   2.852  10.092   8.359  0.1261 -0.0953  0.4188
  850loPI    C112917  13.835  14.010   5.976  0.2516 -0.0726 -0.0176
  850loPI    C212918  13.619  13.774   5.736 -0.1642  0.1451  0.1317
  850loPI    C312919  13.879  14.035   5.579 -0.0092 -0.1135 -0.0509
  850loPI   PO412920  13.857  13.874   6.163  0.0964 -0.1202  0.1548
  850loPI   GL112921  13.918  13.748   6.567 -0.0543 -0.2378 -0.0810
  850loPI   GL212922  13.974  13.916   6.721  0.1013 -0.4836  0.1783
  850loPI   C1A12923  13.521  13.837   6.866  0.0173  0.0474 -0.1150
  850loPI   C2A12924  13.442  13.763   7.358 -0.0519 -0.2103 -0.2299
  850loPI   C3A12925  13.341  13.692   7.791  0.0611  0.0790 -0.0847
  850loPI   C4A12926  13.302  13.805   8.201 -0.0367 -0.0264  0.0777
  850loPI   C5A12927  13.331  13.737   8.642  0.1636  0.3448  0.0705
  850loPI   C6A12928  13.445  13.492   8.934 -0.1026  0.1672  0.0098
  850loPI   C1B12929  13.911  13.780   7.177  0.1626 -0.0515 -0.0781
  850loPI   C2B12930  13.865  13.802   7.627 -0.1434 -0.1004 -0.1835
  850loPI   C3B12931  13.814  13.755   8.069  0.1201 -0.0575 -0.1087
  850loPI   C4B12932  13.766  13.751   8.522 -0.1183  0.1356  0.0034
  851loPI    C112933   1.339   3.603   6.028 -0.1233  0.3632 -0.2002
  851loPI    C212934   0.985   3.635   6.210  0.0154  0.2072  0.1053
  851loPI    C312935   1.048   3.819   5.860 -0.4554  0.0109 -0.0910
  851loPI   PO412936   1.450   3.577   6.210  0.1234 -0.0293  0.1339
  851loPI   GL112937   1.244   3.535   6.661  0.1983 -0.1868  0.2494
  851loPI   GL212938   1.045   3.800   6.738  0.1235 -0.2112 -0.2478
  851loPI   C1A12939   1.244   3.359   7.107  0.2356 -0.2026 -0.4127
  851loPI   C2A12940   1.326   3.339   7.566  0.1782 -0.0652 -0.1406
  851loPI   C3A12941   1.282   3.374   7.963  0.0858  0.1552  0.0779
  851loPI   C4A12942   1.283   3.429   8.435  0.0232 -0.0885 -0.1498
  851loPI   C5A12943   0.998   3.459   8.763  0.0087 -0.0108  0.1473
  851loPI   C6A12944   0.757   3.787   8.958  0.0109  0.0331 -0.2678
  851loPI   C1B12945   0.921   3.874   7.154  0.0411 -0.0455 -0.1925
  851loPI   C2B12946   1.004   3.794   7.597  0.0704  0.1482 -0.0129
  851loPI   C3B12947   1.037   3.898   7.956 -0.0125  0.0880  0.1339
  851loPI   C4B12948   1.076   3.907   8.408  0.2149 -0.1464 -0.0895
  852loPI    C112949  10.240   8.432   5.816 -0.1138  0.0934  0.0586
  852loPI    C212950  10.033   8.772   5.770  0.1320  0.2364 -0.0129
  852loPI    C312951  10.317   8.674   5.507 -0.1151 -0.1589 -0.1425
  852loPI   PO412952  10.262   8.424   6.080 -0.0001  0.1278  0.4296
  852loPI   GL112953  10.430   8.563   6.434 -0.0569  0.1119 -0.1444
  852loPI   GL212954  10.719   8.345   6.437  0.1966 -0.1572 -0.1063
  852loPI   C1A12955  10.265   8.597   6.935 -0.1708 -0.1893 -0.1926
  852loPI   C2A12956  10.290   8.631   7.440  0.0511 -0.0276 -0.0157
  852loPI   C3A12957  10.154   8.548   7.964  0.1421 -0.0613  0.0846
  852loPI   C4A12958   9.968   8.327   8.372  0.4985 -0.1822 -0.0700
  852loPI   C5A12959   9.681   8.011   8.295 -0.2584  0.1412 -0.1744
  852loPI   C6A12960   9.515   7.575   8.365 -0.0679  0.2198  0.0609
  852loPI   C1B12961  10.579   8.190   6.881 -0.0211  0.1966  0.2065
  852loPI   C2B12962  10.523   8.181   7.306  0.0685 -0.0048 -0.1148
  852loPI   C3B12963  10.527   8.168   7.685 -0.1572 -0.3692  0.1011
  852loPI   C4B12964  10.523   8.221   8.119 -0.2231  0.0206 -0.2845
  853loPI    C112965   1.460  17.037   5.824 -0.1486  0.1280 -0.1179
  853loPI    C212966   1.760  16.821   5.674 -0.0494  0.0348  0.2057
  853loPI    C312967   1.494  16.991   5.428  0.1026 -0.1178 -0.0706
  853loPI   PO412968   1.429  16.943   6.036  0.0656  0.1441 -0.0172
  853loPI   GL112969   1.359  17.026   6.405 -0.0249 -0.0647 -0.1241
  853loPI   GL212970   1.485  17.332   6.495 -0.1467  0.0080  0.3183
  853loPI   C1A12971   1.633  16.804   6.664  0.1617  0.0984  0.0801
  853loPI   C2A12972   1.723  16.855   7.078  0.0032  0.2139 -0.0649
  853loPI   C3A12973   1.683  16.771   7.481 -0.3453  0.0574 -0.0114
  853loPI   C4A12974   1.703  16.784   7.948  0.1082 -0.1523  0.1188
  853loPI   C5A12975   1.564  16.735   8.363 -0.1972  0.0691  0.0230
  853loPI   C6A12976   1.186  16.719   8.588 -0.0126  0.1498 -0.0250
  853loPI   C1B12977   1.413  17.207   6.898 -0.2527  0.0668 -0.3710
  853loPI   C2B12978   1.463  17.199   7.316  0.2381 -0.0107 -0.0301
  853loPI   C3B12979   1.340  17.249   7.720  0.0157 -0.0589  0.0420
  853loPI   C4B12980   1.433  17.197   8.177  0.2396  0.2220 -0.0239
  854loPI    C112981   4.093  11.852   5.868 -0.0045  0.2039 -0.1777
  854loPI    C212982   3.805  11.668   5.661  0.1216  0.0818 -0.2468
  854loPI    C312983   4.045  11.931   5.479  0.2433 -0.0382 -0.2617
  854loPI   PO412984   4.181  11.670   6.110 -0.2190  0.2740 -0.0773
  854loPI   GL112985   4.432  11.795   6.467  0.2014 -0.0227 -0.0114
  854loPI   GL212986   4.565  11.537   6.543 -0.1896  0.2221  0.0550
  854loPI   C1A12987   4.279  11.856   6.949  0.0662  0.0055  0.3987
  854loPI   C2A12988   4.206  12.046   7.344 -0.2503  0.0148 -0.0559
  854loPI   C3A12989   4.210  11.920   7.832 -0.3337  0.2234  0.1502
  854loPI   C4A12990   4.036  11.934   8.192 -0.3525 -0.1384 -0.1566
  854loPI   C5A12991   4.201  11.875   8.604 -0.1969 -0.2206 -0.2707
  854loPI   C6A12992   4.627  11.851   8.691  0.3178  0.0256  0.1541
  854loPI   C1B12993   4.600  11.473   6.935  0.1139  0.1088  0.0561
  854loPI   C2B12994   4.468  11.470   7.396 -0.0929  0.0931  0.1584
  854loPI   C3B12995   4.529  11.452   7.938  0.1749  0.1374 -0.1764
  854loPI   C4B12996   4.545  11.673   8.237  0.1558 -0.0958  0.3212
  855loPI    C112997   1.198   0.882   5.680  0.0063  0.0925 -0.1076
  855loPI    C212998   0.847   0.794   5.511 -0.0609 -0.0595  0.1062
  855loPI    C312999   1.158   0.897   5.283 -0.1799 -0.1518 -0.1006
  855loPI   PO413000   1.081   0.915   5.962  0.0343  0.0910  0.0807
  855loPI   GL113001   1.206   1.069   6.351  0.1862 -0.1472  0.2492
  855loPI   GL213002   1.338   0.879   6.461 -0.0293 -0.0503  0.0657
  855loPI   C1A13003   1.012   1.152   6.765 -0.0600  0.1372  0.0975
  855loPI   C2A13004   1.116   1.073   7.220 -0.2802  0.1561 -0.0600
  855loPI   C3A13005   1.138   1.105   7.642  0.1294 -0.1642 -0.0721
  855loPI   C4A13006   1.167   1.216   8.034  0.2945  0.1335  0.1618
  855loPI   C5A13007   1.097   1.200   8.480  0.0800 -0.2216 -0.3346
  855loPI   C6A13008   1.025   1.064   8.902 -0.4046 -0.2886  0.2179
  855loPI   C1B13009   1.397   0.740   6.857  0.0939  0.2859  0.1238
  855loPI   C2B13010   1.377   0.635   7.343  0.2108 -0.4016 -0.0480
  855loPI   C3B13011   1.356   0.708   7.819 -0.1742  0.0655 -0.0271
  855loPI   C4B13012   1.372   0.663   8.338  0.1466 -0.1731  0.0501
  856loPI    C113013   8.462   1.156   5.716  0.2051 -0.0040 -0.3718
  856loPI    C213014   8.130   0.936   5.679  0.1533  0.0068 -0.0083
  856loPI    C313015   8.466   0.823   5.494  0.0564 -0.2306 -0.0425
  856loPI   PO413016   8.537   1.122   5.949  0.1569 -0.1684  0.0703
  856loPI   GL113017   8.553   1.284   6.339 -0.1914  0.0570  0.1964
  856loPI   GL213018   8.850   1.068   6.349 -0.0469  0.0947 -0.0372
  856loPI   C1A13019   8.397   1.196   6.694  0.1884  0.1456  0.1071
  856loPI   C2A13020   8.408   1.250   7.104 -0.2520 -0.0624 -0.0357
  856loPI   C3A13021   8.409   1.220   7.529 -0.0351  0.0629  0.1473
  856loPI   C4A13022   8.355   1.288   7.911  0.1788 -0.2849  0.1840
  856loPI   C5A13023   8.286   1.223   8.441  0.0573  0.0207 -0.1861
  856loPI   C6A13024   8.605   1.295   8.899  0.2001 -0.2761 -0.0999
  856loPI   C1B13025   8.857   1.206   6.756 -0.1361 -0.0037 -0.0793
  856loPI   C2B13026   8.925   1.276   7.223 -0.2209  0.0629  0.0453
  856loPI   C3B13027   8.932   1.251   7.601 -0.0958  0.0408 -0.1227
  856loPI   C4B13028   8.916   1.346   8.008  0.3941  0.0200  0.0361
  857loPI    C113029   3.394  14.047   5.797  0.1564 -0.0679 -0.1582
  857loPI    C213030   3.573  14.296   5.539  0.0502  0.0643 -0.1059
  857loPI    C313031   3.264  14.071   5.419 -0.0174  0.1466 -0.0877
  857loPI   PO413032   3.418  14.273   6.040 -0.1395  0.0757 -0.0971
  857loPI   GL113033   3.687  14.337   6.346  0.0025 -0.1926  0.0672
  857loPI   GL213034   3.369  14.244   6.542 -0.2054  0.2193 -0.0565
  857loPI   C1A13035   3.791  14.177   6.690  0.1261 -0.0719 -0.0484
  857loPI   C2A13036   3.826  14.054   7.052  0.2788 -0.0412  0.0731
  857loPI   C3A13037   3.799  14.140   7.470  0.1098 -0.1701  0.1704
  857loPI   C4A13038   3.849  14.137   7.880  0.1962  0.0036 -0.0984
  857loPI   C5A13039   3.785  14.243   8.360  0.1745  0.3320  0.3927
  857loPI   C6A13040   3.482  14.084   8.661  0.0411  0.1291  0.1069
  857loPI   C1B13041   3.258  14.151   6.923  0.0152 -0.1871  0.2507
  857loPI   C2B13042   3.294  14.070   7.322  0.0674  0.0144 -0.1219
  857loPI   C3B13043   3.335  14.059   7.705  0.3727  0.0732  0.1697
  857loPI   C4B13044   3.401  14.064   8.144  0.2648  0.2491  0.0387
  858loPI    C113045   5.087   0.453   5.654  0.0469 -0.3077 -0.0929
  858loPI    C213046   4.888   0.785   5.551  0.1269 -0.2419 -0.0373
  858loPI    C313047   4.711   0.427   5.520 -0.0514 -0.1716  0.1503
  858loPI   PO413048   5.187   0.531   5.923  0.1795 -0.2392 -0.2287
  858loPI   GL113049   5.075   0.422   6.347  0.0897  0.2768 -0.0219
  858loPI   GL213050   5.225   0.297   6.552  0.0511  0.1454 -0.0478
  858loPI   C1A13051   5.042   0.681   6.756 -0.1060 -0.0529 -0.4125
  858loPI   C2A13052   5.065   0.827   7.155  0.3209 -0.0832 -0.0469
  858loPI   C3A13053   4.997   0.738   7.637  0.1619 -0.0932 -0.1349
  858loPI   C4A13054   4.993   0.818   8.088  0.0838  0.1305 -0.1204
  858loPI   C5A13055   4.994   0.726   8.521  0.2415  0.0677  0.0248
  858loPI   C6A13056   4.975   0.588   8.973  0.1140  0.0822  0.2615
  858loPI   C1B13057   5.308   0.380   7.020  0.3023  0.0540  0.2965
  858loPI   C2B13058   5.266   0.328   7.454 -0.2246  0.0373  0.3031
  858loPI   C3B13059   5.339   0.301   7.866 -0.2147  0.2815  0.0354
  858loPI   C4B13060   5.212   0.304   8.279  0.0016 -0.0142 -0.0674
  859loPI    C113061   5.171  10.119   5.630  0.0777  0.2674  0.1856
  859loPI    C213062   5.401  10.430   5.529  0.0514  0.2292  0.0035
  859loPI    C313063   5.099  10.319   5.291  0.0879  0.0371  0.0449
  859loPI   PO413064   5.176  10.169   5.878  0.0823 -0.0520  0.0371
  859loPI   GL113065   5.100  10.029   6.243  0.0581 -0.0158  0.2290
  859loPI   GL213066   5.460   9.933   6.302 -0.0560 -0.0992 -0.2635
  859loPI   C1A13067   4.960  10.243   6.664 -0.1137  0.0060 -0.0673
  859loPI   C2A13068   4.876  10.164   7.103  0.2168  0.0345 -0.3578
  859loPI   C3A13069   4.800  10.167   7.491  0.0502 -0.0745 -0.1551
  859loPI   C4A13070   4.915  10.157   7.877 -0.0069  0.0307 -0.2626
  859loPI   C5A13071   4.987  10.082   8.360  0.2003 -0.2424  0.1053
  859loPI   C6A13072   5.166   9.722   8.508  0.1565  0.0101 -0.3166
  859loPI   C1B13073   5.328   9.852   6.684  0.0523 -0.1653  0.1125
  859loPI   C2B13074   5.260   9.756   7.172 -0.0804  0.0349  0.0152
  859loPI   C3B13075   5.159   9.738   7.619 -0.0680  0.0985  0.2442
  859loPI   C4B13076   5.268   9.728   8.027 -0.0569 -0.0328 -0.2137
  860loPI    C113077   5.042   4.367   5.701  0.0155 -0.1144 -0.1212
  860loPI    C213078   5.307   4.456   5.415 -0.0851 -0.0116 -0.1828
  860loPI    C313079   4.918   4.529   5.358 -0.0866  0.1748  0.0486
  860loPI   PO413080   5.105   4.552   5.931 -0.0547  0.0921  0.0355
  860loPI   GL113081   4.892   4.598   6.261  0.0721  0.4389 -0.1499
  860loPI   GL213082   5.004   4.440   6.443  0.2097  0.4003  0.1475
  860loPI   C1A13083   4.573   4.524   6.589  0.1914 -0.0538  0.0043
  860loPI   C2A13084   4.395   4.403   6.934 -0.2969  0.1673 -0.0135
  860loPI   C3A13085   4.513   4.417   7.449 -0.1945  0.0308 -0.2196
  860loPI   C4A13086   4.563   4.432   7.861  0.3213  0.0517  0.1782
  860loPI   C5A13087   4.396   4.459   8.256  0.1552  0.4465  0.0582
  860loPI   C6A13088   4.029   4.630   8.523 -0.0209 -0.0686  0.0670
  860loPI   C1B13089   4.997   4.508   6.873 -0.2263  0.0535  0.0266
  860loPI   C2B13090   4.990   4.439   7.290 -0.0116 -0.1309 -0.0103
  860loPI   C3B13091   5.043   4.470   7.750 -0.2544  0.3184  0.1329
  860loPI   C4B13092   4.951   4.440   8.236  0.0040  0.0095 -0.1647
  861loPI    C113093  11.466  13.429   5.748  0.2674  0.0627  0.3037
  861loPI    C213094  11.821  13.495   5.576  0.0972 -0.1244 -0.1352
  861loPI    C313095  11.488  13.496   5.354 -0.1477 -0.2368  0.2223
  861loPI   PO413096  11.610  13.491   6.053 -0.0095  0.1210 -0.0191
  861loPI   GL113097  11.433  13.365   6.545 -0.2795 -0.1200  0.2370
  861loPI   GL213098  11.123  13.092   6.577  0.0689  0.1842  0.0067
  861loPI   C1A13099  11.526  13.168   6.989  0.0909  0.2252  0.2431
  861loPI   C2A13100  11.602  13.292   7.397  0.0563 -0.1825 -0.1300
  861loPI   C3A13101  11.639  13.262   7.842  0.1148 -0.2627  0.1304
  861loPI   C4A13102  11.639  13.374   8.249  0.1650  0.3410  0.5187
  861loPI   C5A13103  11.761  13.457   8.576 -0.1072 -0.0165 -0.1122
  861loPI   C6A13104  11.741  13.412   8.971  0.2334 -0.1528 -0.1381
  861loPI   C1B13105  11.028  13.205   6.947  0.3735 -0.0173 -0.0449
  861loPI   C2B13106  11.114  13.240   7.395 -0.1592  0.0724  0.0834
  861loPI   C3B13107  11.089  13.261   7.801 -0.1191  0.3163  0.2848
  861loPI   C4B13108  11.046  13.254   8.289 -0.5143 -0.1067  0.4462
  862loPI    C113109  16.656  10.381   5.785  0.1632 -0.2114 -0.2406
  862loPI    C213110  16.477  10.417   5.430  0.1772 -0.0110 -0.2288
  862loPI    C313111  16.837  10.580   5.489  0.1184  0.0675 -0.0838
  862loPI   PO413112  16.508  10.420   5.978  0.0740  0.2249 -0.2845
  862loPI   GL113113  16.547  10.370   6.378  0.0722 -0.1020  0.2521
  862loPI   GL213114  16.525  10.617   6.562  0.0664 -0.0636 -0.0482
  862loPI   C1A13115  16.696  10.197   6.779 -0.3360 -0.1737  0.0705
  862loPI   C2A13116  16.647  10.198   7.215  0.0480  0.0736  0.1177
  862loPI   C3A13117  16.526  10.186   7.578  0.2177 -0.1578  0.2142
  862loPI   C4A13118  16.606  10.141   7.966 -0.3562  0.2627 -0.0681
  862loPI   C5A13119  16.557  10.164   8.370  0.0008 -0.2246 -0.4258
  862loPI   C6A13120  16.419   9.980   8.704 -0.0749 -0.2703 -0.1598
  862loPI   C1B13121  16.429  10.634   7.058 -0.2020  0.1982  0.0455
  862loPI   C2B13122  16.464  10.670   7.470  0.1763 -0.2074 -0.0946
  862loPI   C3B13123  16.357  10.643   7.945 -0.0246  0.0579  0.0468
  862loPI   C4B13124  16.292  10.648   8.391  0.0644 -0.0545 -0.0457
  863loPI    C113125   0.574   4.966   5.632  0.0469 -0.1273 -0.0629
  863loPI    C213126   0.778   4.672   5.452  0.4037 -0.0012  0.1247
  863loPI    C313127   0.391   4.728   5.368  0.4643 -0.1907 -0.3048
  863loPI   PO413128   0.648   4.931   5.911  0.2069 -0.2049 -0.1983
  863loPI   GL113129   0.522   4.972   6.409  0.1347  0.1058  0.1855
  863loPI   GL213130   0.250   5.175   6.566  0.0098 -0.1160  0.0617
  863loPI   C1A13131   0.551   4.833   6.814  0.0991  0.1876 -0.0451
  863loPI   C2A13132   0.521   4.827   7.273  0.1137 -0.0044  0.1820
  863loPI   C3A13133   0.525   4.712   7.726  0.1519 -0.0770  0.1202
  863loPI   C4A13134   0.541   4.729   8.150  0.0267 -0.0272 -0.0532
  863loPI   C5A13135   0.212   4.681   8.519  0.2556  0.0833 -0.1456
  863loPI   C6A13136  -0.111   4.869   8.706  0.0195  0.3314  0.1464
  863loPI   C1B13137   0.217   5.242   7.018  0.1812  0.2706 -0.1003
  863loPI   C2B13138   0.158   5.216   7.420 -0.0696  0.1217  0.0695
  863loPI   C3B13139   0.305   5.143   7.803 -0.0967  0.1456 -0.1625
  863loPI   C4B13140   0.097   5.115   8.214 -0.0260 -0.0039 -0.0369
  864loPI    C113141   9.808   5.125   5.857  0.1171  0.0842 -0.0966
  864loPI    C213142   9.646   5.231   5.507  0.1020  0.2487 -0.0404
  864loPI    C313143   9.839   4.883   5.541 -0.1123  0.1178 -0.1466
  864loPI   PO413144   9.722   5.362   6.042  0.2925  0.1540 -0.4053
  864loPI   GL113145   9.871   5.507   6.398  0.1508 -0.1771 -0.0172
  864loPI   GL213146  10.052   5.517   6.549  0.0310  0.2476  0.0596
  864loPI   C1A13147   9.552   5.406   6.675 -0.0573 -0.1011  0.0866
  864loPI   C2A13148   9.533   5.437   7.104  0.1077  0.1234  0.0439
  864loPI   C3A13149   9.608   5.444   7.627 -0.0746 -0.1142 -0.1280
  864loPI   C4A13150   9.549   5.453   8.133 -0.3101 -0.1413 -0.1658
  864loPI   C5A13151   9.364   5.443   8.527 -0.0719  0.3130  0.2082
  864loPI   C6A13152   9.032   5.756   8.778 -0.1593 -0.1374  0.0994
  864loPI   C1B13153  10.060   5.402   7.033 -0.0494  0.0098  0.0160
  864loPI   C2B13154  10.071   5.463   7.533 -0.1166  0.0949  0.0612
  864loPI   C3B13155  10.067   5.432   7.946 -0.3010  0.0838 -0.0743
  864loPI   C4B13156  10.043   5.475   8.342 -0.1215  0.1609  0.1706
  865loPI    C113157  15.537   0.191   6.162 -0.0845 -0.0064  0.0377
  865loPI    C213158  15.335   0.459   5.945  0.0615  0.0519 -0.0275
  865loPI    C313159  15.527   0.159   5.764 -0.0867 -0.0879  0.0442
  865loPI   PO413160  15.650   0.322   6.283  0.3861 -0.0997 -0.1334
  865loPI   GL113161  15.851   0.185   6.584  0.2492  0.0474  0.0976
  865loPI   GL213162  15.522   0.217   6.742  0.2096 -0.1487  0.0780
  865loPI   C1A13163  15.846   0.117   7.032 -0.0589 -0.1679 -0.1111
  865loPI   C2A13164  15.855   0.117   7.503 -0.7182  0.0610  0.5737
  865loPI   C3A13165  15.954   0.096   7.872  0.2710  0.2590 -0.0950
  865loPI   C4A13166  16.014   0.113   8.357  0.0396 -0.0839  0.2041
  865loPI   C5A13167  16.081   0.237   8.741 -0.3590  0.3523  0.1765
  865loPI   C6A13168  16.455   0.152   9.063  0.1747 -0.0039 -0.2706
  865loPI   C1B13169  15.378   0.197   7.090 -0.3952 -0.1941 -0.0558
  865loPI   C2B13170  15.369   0.121   7.487  0.2129  0.0611  0.0741
  865loPI   C3B13171  15.281   0.146   7.886 -0.3174 -0.0359 -0.0772
  865loPI   C4B13172  15.513   0.142   8.167 -0.0674 -0.2070 -0.0605
  866loPI    C113173   3.557   0.443   6.060 -0.1963  0.0238 -0.0007
  866loPI    C213174   3.597   0.062   6.176 -0.0915  0.0729  0.1260
  866loPI    C313175   3.424   0.147   5.825 -0.1264 -0.0906  0.1030
  866loPI   PO413176   3.672   0.546   6.269 -0.1147  0.0569  0.0421
  866loPI   GL113177   3.516   0.376   6.568 -0.2006 -0.2102 -0.1101
  866loPI   GL213178   3.702   0.200   6.765  0.1677 -0.0643 -0.0746
  866loPI   C1A13179   3.217   0.252   6.848 -0.2182  0.2510 -0.2013
  866loPI   C2A13180   3.173   0.233   7.241 -0.1234  0.0252  0.1193
  866loPI   C3A13181   3.128   0.280   7.683 -0.5081  0.0959 -0.1327
  866loPI   C4A13182   3.179   0.257   8.187 -0.0839 -0.0580  0.1129
  866loPI   C5A13183   3.158   0.399   8.612  0.1500 -0.1942 -0.0596
  866loPI   C6A13184   3.522   0.340   9.046 -0.1739 -0.1947  0.1312
  866loPI   C1B13185   3.700   0.216   7.147 -0.1554  0.2300 -0.1601
  866loPI   C2B13186   3.672   0.258   7.604  0.2666  0.2218 -0.1011
  866loPI   C3B13187   3.713   0.321   8.029  0.1932 -0.1618 -0.4300
  866loPI   C4B13188   3.702   0.336   8.465  0.2973 -0.2405 -0.2008
  867loPI    C113189   8.417   4.428   5.807  0.3127 -0.0031 -0.0777
  867loPI    C213190   8.673   4.192   5.610  0.1870 -0.1451 -0.0728
  867loPI    C313191   8.497   4.498   5.421  0.2979 -0.0961 -0.0978
  867loPI   PO413192   8.512   4.466   6.021 -0.3039  0.3941  0.1808
  867loPI   GL113193   8.521   4.527   6.361  0.3067  0.0582 -0.0014
  867loPI   GL213194   8.750   4.328   6.456  0.1862  0.0161 -0.0160
  867loPI   C1A13195   8.090   4.550   6.690 -0.1193 -0.0574 -0.0025
  867loPI   C2A13196   8.158   4.432   7.124 -0.2265  0.1610 -0.0700
  867loPI   C3A13197   8.015   4.508   7.531 -0.1767 -0.0097  0.6181
  867loPI   C4A13198   7.984   4.582   7.974  0.1596 -0.1009 -0.1636
  867loPI   C5A13199   8.082   4.265   8.265  0.0580  0.0731 -0.3104
  867loPI   C6A13200   8.468   4.198   8.483  0.0566 -0.0623  0.1209
  867loPI   C1B13201   8.718   4.397   6.853 -0.2905  0.2530 -0.0449
  867loPI   C2B13202   8.594   4.432   7.278 -0.1835 -0.0654  0.2897
  867loPI   C3B13203   8.523   4.499   7.622  0.0383 -0.0802 -0.2499
  867loPI   C4B13204   8.448   4.492   8.070 -0.0889 -0.1235  0.1426
  868loPI    C113205  10.080   5.663   5.898 -0.1493 -0.3782  0.2107
  868loPI    C213206   9.778   5.673   5.635  0.0338  0.0005  0.0073
  868loPI    C313207  10.094   5.438   5.568  0.0271  0.0087 -0.0533
  868loPI   PO413208   9.987   5.860   6.094 -0.0987 -0.0656 -0.2779
  868loPI   GL113209   9.886   5.999   6.487 -0.0200 -0.1358  0.2231
  868loPI   GL213210  10.092   6.243   6.708 -0.0023 -0.2957  0.3828
  868loPI   C1A13211   9.733   5.807   6.885  0.4015 -0.2226 -0.1693
  868loPI   C2A13212   9.787   5.829   7.359 -0.1422  0.1355 -0.3275
  868loPI   C3A13213   9.858   5.891   7.804  0.1701 -0.1762  0.0647
  868loPI   C4A13214   9.817   5.975   8.236  0.3594 -0.1299 -0.3113
  868loPI   C5A13215   9.636   5.906   8.649 -0.0906  0.2719 -0.0531
  868loPI   C6A13216   9.788   5.490   8.820  0.0780  0.1974 -0.2403
  868loPI   C1B13217  10.089   6.292   7.158  0.4001 -0.1318 -0.0511
  868loPI   C2B13218  10.081   6.256   7.505  0.0670 -0.0662 -0.1178
  868loPI   C3B13219  10.104   6.379   7.973 -0.0823  0.2463  0.0858
  868loPI   C4B13220  10.236   6.407   8.413  0.1492 -0.2795 -0.0361
  869loPI    C113221   5.235   6.315   5.720 -0.0732  0.0776 -0.1693
  869loPI    C213222   5.131   6.027   5.463  0.2050 -0.1043 -0.0826
  869loPI    C313223   5.272   6.376   5.326  0.0757 -0.0902 -0.1822
  869loPI   PO413224   5.328   6.133   5.918  0.1918  0.0027  0.0920
  869loPI   GL113225   5.484   6.255   6.398  0.1120  0.1148  0.0129
  869loPI   GL213226   5.740   6.268   6.502  0.0747 -0.5089  0.7626
  869loPI   C1A13227   5.373   6.234   6.819 -0.2244  0.0924  0.0831
  869loPI   C2A13228   5.452   6.198   7.196 -0.5116 -0.3971  0.0185
  869loPI   C3A13229   5.336   6.221   7.553 -0.3503 -0.1575 -0.1224
  869loPI   C4A13230   5.323   6.245   7.963  0.2392 -0.1386 -0.0875
  869loPI   C5A13231   5.295   6.264   8.460  0.0805  0.2780  0.1491
  869loPI   C6A13232   4.997   6.261   8.768 -0.1843 -0.1375 -0.0346
  869loPI   C1B13233   5.928   6.278   6.890 -0.2855 -0.0857  0.1440
  869loPI   C2B13234   5.974   6.227   7.281  0.0420 -0.0526 -0.0206
  869loPI   C3B13235   5.891   6.219   7.678 -0.5047 -0.0209 -0.1337
  869loPI   C4B13236   5.894   6.264   8.123 -0.0905  0.1217 -0.1314
  870loPI    C113237  15.290   4.181   6.027 -0.0553  0.2300  0.2428
  870loPI    C213238  14.955   4.368   5.912 -0.1373  0.0092  0.1170
  870loPI    C313239  15.306   4.467   5.747 -0.1807  0.0497  0.0486
  870loPI   PO413240  15.282   4.221   6.305 -0.0449  0.1188  0.0763
  870loPI   GL113241  15.098   4.529   6.450 -0.0398 -0.1552 -0.1245
  870loPI   GL213242  14.943   4.876   6.451  0.0434  0.1409 -0.1391
  870loPI   C1A13243  14.993   4.311   6.943 -0.1417 -0.0703  0.3129
  870loPI   C2A13244  15.081   4.222   7.410  0.0278  0.0903 -0.0006
  870loPI   C3A13245  14.998   4.171   7.855 -0.3568 -0.0088 -0.0602
  870loPI   C4A13246  14.923   4.193   8.313  0.0456  0.0110  0.0757
  870loPI   C5A13247  14.783   4.116   8.716 -0.1086  0.0440  0.0441
  870loPI   C6A13248  14.562   3.895   9.036  0.1374  0.0916  0.2422
  870loPI   C1B13249  14.698   4.731   6.771 -0.1196  0.3389 -0.1306
  870loPI   C2B13250  14.743   4.684   7.207 -0.1243 -0.1435  0.2191
  870loPI   C3B13251  14.650   4.708   7.737  0.0267 -0.0345 -0.4452
  870loPI   C4B13252  14.608   4.702   8.135 -0.1342  0.1377  0.1723
  871loPI    C113253   4.153  10.501   5.967 -0.0534  0.0457 -0.2108
  871loPI    C213254   4.483  10.727   5.955 -0.1096  0.1298 -0.1856
  871loPI    C313255   4.349  10.550   5.623 -0.0256  0.0758 -0.1908
  871loPI   PO413256   4.150  10.339   6.163 -0.0981 -0.0503  0.0494
  871loPI   GL113257   3.998  10.053   6.502  0.0987  0.2805 -0.3146
  871loPI   GL213258   3.745  10.198   6.549  0.0850 -0.2835  0.0615
  871loPI   C1A13259   3.909  10.053   6.987 -0.0173 -0.0154  0.2669
  871loPI   C2A13260   3.874  10.133   7.504  0.0754  0.0258  0.1594
  871loPI   C3A13261   3.796  10.111   7.945  0.1669 -0.0802  0.3419
  871loPI   C4A13262   3.840  10.056   8.366  0.2714  0.1500 -0.2405
  871loPI   C5A13263   3.705   9.959   8.822 -0.2061  0.2354  0.0486
  871loPI   C6A13264   3.539  10.191   9.142 -0.1021  0.2171  0.0137
  871loPI   C1B13265   4.069  10.509   6.794 -0.3069 -0.2191 -0.0447
  871loPI   C2B13266   4.135  10.537   7.252  0.0930  0.0811  0.0685
  871loPI   C3B13267   4.185  10.593   7.621 -0.0550 -0.2348 -0.1374
  871loPI   C4B13268   4.114  10.587   8.092 -0.0856  0.1731  0.0232
  872loPI    C113269   9.823   8.175   5.673  0.0110  0.0398 -0.1169
  872loPI    C213270   9.766   8.464   5.401  0.1977 -0.0561 -0.2599
  872loPI    C313271  10.096   8.238   5.388  0.0581 -0.2710 -0.1436
  872loPI   PO413272   9.761   8.352   5.903 -0.0493  0.0155  0.1071
  872loPI   GL113273   9.747   8.271   6.259  0.1373 -0.0023  0.0932
  872loPI   GL213274   9.714   7.960   6.275  0.1113 -0.0598  0.0775
  872loPI   C1A13275   9.817   8.497   6.639  0.1317  0.1410 -0.2403
  872loPI   C2A13276   9.706   8.681   6.993 -0.1930 -0.3450  0.0628
  872loPI   C3A13277   9.803   8.683   7.327 -0.0400  0.2770 -0.0775
  872loPI   C4A13278   9.715   8.590   7.818  0.1310  0.0831  0.0429
  872loPI   C5A13279   9.608   8.588   8.151 -0.1608  0.0580 -0.2740
  872loPI   C6A13280   9.625   8.738   8.538  0.3997 -0.0291  0.3194
  872loPI   C1B13281   9.540   8.069   6.692  0.1434  0.0143 -0.1387
  872loPI   C2B13282   9.431   8.091   7.068 -0.1517 -0.2655 -0.1487
  872loPI   C3B13283   9.411   8.120   7.542 -0.0040 -0.0276 -0.0635
  872loPI   C4B13284   9.295   8.295   7.896  0.0515 -0.0220 -0.0139
  873loPI    C113285  10.521   4.839   5.952  0.0642  0.2885  0.0458
  873loPI    C213286  10.351   4.966   5.614  0.1447  0.3386  0.0239
  873loPI    C313287  10.506   4.598   5.634 -0.2421  0.1773  0.1409
  873loPI   PO413288  10.736   5.037   6.072 -0.5357 -0.0808 -0.2182
  873loPI   GL113289  10.808   5.076   6.448 -0.3305 -0.4009 -0.0251
  873loPI   GL213290  10.653   4.755   6.481 -0.2709 -0.0790 -0.2741
  873loPI   C1A13291  10.848   5.068   6.891  0.0422  0.1216 -0.1623
  873loPI   C2A13292  10.846   4.990   7.366 -0.2954 -0.2313 -0.0041
  873loPI   C3A13293  10.830   5.018   7.805 -0.0871  0.1453 -0.0192
  873loPI   C4A13294  10.938   4.886   8.215  0.0976  0.1631  0.0019
  873loPI   C5A13295  11.193   4.502   8.402 -0.1111  0.0250  0.1735
  873loPI   C6A13296  11.438   4.302   8.605 -0.4770 -0.0284  0.1418
  873loPI   C1B13297  10.661   4.561   6.886 -0.0123 -0.1554 -0.1013
  873loPI   C2B13298  10.645   4.541   7.464  0.0258  0.0166 -0.0516
  873loPI   C3B13299  10.667   4.478   7.957  0.0209 -0.3171  0.0557
  873loPI   C4B13300  10.705   4.365   8.313 -0.1356  0.0116  0.1640
  874loPI    C113301   7.715   0.207   5.764 -0.0327 -0.0286  0.0542
  874loPI    C213302   7.852   0.483   5.508 -0.1820  0.1340  0.1479
  874loPI    C313303   7.552   0.241   5.400  0.2558 -0.3142 -0.1078
  874loPI   PO413304   7.831   0.289   5.943 -0.0628  0.0563 -0.0112
  874loPI   GL113305   7.918   0.512   6.306 -0.1173 -0.1305  0.0903
  874loPI   GL213306   7.738   0.760   6.409  0.2841  0.0453 -0.0807
  874loPI   C1A13307   7.869   0.290   6.770 -0.1247 -0.0120 -0.0706
  874loPI   C2A13308   7.876   0.468   7.145  0.0754 -0.1836 -0.2140
  874loPI   C3A13309   7.854   0.416   7.531  0.3208 -0.2203  0.0915
  874loPI   C4A13310   7.842   0.417   7.974  0.3319  0.1480 -0.0156
  874loPI   C5A13311   7.902   0.333   8.367 -0.0607  0.0386  0.2599
  874loPI   C6A13312   7.585   0.368   8.715  0.1076  0.4199 -0.1919
  874loPI   C1B13313   7.744   0.756   6.790  0.0237  0.1415  0.3548
  874loPI   C2B13314   7.585   0.856   7.224  0.1142  0.0492 -0.0008
  874loPI   C3B13315   7.579   0.789   7.686 -0.1901 -0.0829  0.0584
  874loPI   C4B13316   7.542   0.806   8.032  0.1121  0.1171  0.1788
  875loPI    C113317   7.328   6.698   5.834 -0.1021 -0.1992  0.1118
  875loPI    C213318   7.487   6.399   5.621  0.1661 -0.0122  0.0439
  875loPI    C313319   7.299   6.699   5.435  0.1765  0.0222  0.0886
  875loPI   PO413320   7.347   6.630   6.063  0.0943  0.0068 -0.0701
  875loPI   GL113321   7.654   6.538   6.458  0.1476 -0.2316 -0.1447
  875loPI   GL213322   7.545   6.225   6.493 -0.0278 -0.0178 -0.0436
  875loPI   C1A13323   7.653   6.730   6.823 -0.0180  0.1288 -0.0306
  875loPI   C2A13324   7.753   6.664   7.256 -0.3561 -0.0433  0.2019
  875loPI   C3A13325   7.769   6.677   7.692  0.1097 -0.0491 -0.0075
  875loPI   C4A13326   7.679   6.850   8.160 -0.3165  0.0880 -0.2942
  875loPI   C5A13327   7.745   7.248   8.412  0.0030 -0.0261 -0.1294
  875loPI   C6A13328   7.809   7.633   8.609 -0.1046 -0.3903  0.2112
  875loPI   C1B13329   7.477   6.214   6.910 -0.1838  0.1683  0.2514
  875loPI   C2B13330   7.472   6.207   7.358  0.0733 -0.0840  0.1881
  875loPI   C3B13331   7.457   6.280   7.733 -0.0202  0.0371  0.0707
  875loPI   C4B13332   7.503   6.359   8.183  0.3759  0.2253  0.1570
  876loPI    C113333   3.281  12.874   5.996 -0.0228  0.1578  0.0489
  876loPI    C213334   3.155  12.810   5.621 -0.1195  0.0584  0.0976
  876loPI    C313335   3.457  13.063   5.691  0.0910 -0.1408 -0.0748
  876loPI   PO413336   3.288  12.739   6.090 -0.1721  0.1243 -0.2647
  876loPI   GL113337   3.495  12.651   6.491 -0.0032  0.0279 -0.0629
  876loPI   GL213338   3.426  12.316   6.656  0.0194 -0.2898 -0.0948
  876loPI   C1A13339   3.671  12.787   6.854  0.2558  0.2358 -0.0376
  876loPI   C2A13340   3.670  12.763   7.335  0.0743 -0.2035 -0.2816
  876loPI   C3A13341   3.686  12.795   7.748  0.0813 -0.0565 -0.0891
  876loPI   C4A13342   3.713  12.793   8.184 -0.1902  0.3793  0.0575
  876loPI   C5A13343   3.877  12.423   8.584  0.3957 -0.2798  0.0542
  876loPI   C6A13344   3.764  12.167   8.781 -0.1373  0.1860  0.1494
  876loPI   C1B13345   3.398  12.359   7.122 -0.2310 -0.0734  0.1450
  876loPI   C2B13346   3.357  12.343   7.575  0.1584 -0.2983 -0.4490
  876loPI   C3B13347   3.388  12.332   8.078  0.2406  0.1344  0.0922
  876loPI   C4B13348   3.421  12.430   8.454  0.1159  0.2232  0.1214
  877loPI    C113349   0.205   4.102   5.764 -0.0627  0.0485  0.1114
  877loPI    C213350   0.397   4.452   5.738  0.0338 -0.0183 -0.0964
  877loPI    C313351   0.048   4.401   5.549 -0.1170  0.0529  0.1567
  877loPI   PO413352   0.127   3.926   5.968 -0.0674  0.0429 -0.2770
  877loPI   GL113353   0.080   3.786   6.511  0.2125 -0.0936 -0.1086
  877loPI   GL213354   0.262   4.100   6.425 -0.1169  0.2690 -0.1144
  877loPI   C1A13355  -0.038   3.848   6.955  0.2233  0.0662 -0.2753
  877loPI   C2A13356  -0.088   3.847   7.410  0.2456 -0.2872 -0.2023
  877loPI   C3A13357  -0.008   3.864   7.882 -0.3303  0.0636 -0.2393
  877loPI   C4A13358  -0.012   3.917   8.301 -0.3969 -0.0752 -0.0869
  877loPI   C5A13359  -0.195   3.695   8.738 -0.0545 -0.3147  0.1769
  877loPI   C6A13360  -0.101   3.578   9.174 -0.0825  0.0190  0.1730
  877loPI   C1B13361   0.226   4.323   6.795 -0.1339 -0.2151  0.1717
  877loPI   C2B13362   0.200   4.395   7.230  0.0729 -0.0142  0.0995
  877loPI   C3B13363   0.212   4.333   7.631  0.0967  0.0861 -0.0730
  877loPI   C4B13364   0.290   4.289   8.150 -0.2399 -0.2701  0.0828
  878loPI    C113365  17.375  10.423   6.219 -0.1874  0.0599 -0.2527
  878loPI    C213366  17.017  10.245   6.213 -0.1003 -0.1334  0.0320
  878loPI    C313367  17.140  10.460   5.898 -0.3897 -0.2137 -0.1394
  878loPI   PO413368  17.487  10.215   6.397 -0.1061 -0.3636 -0.0821
  878loPI   GL113369  17.724  10.156   6.699  0.0999 -0.0151  0.2041
  878loPI   GL213370  17.992  10.223   6.530  0.0357 -0.2926  0.0261
  878loPI   C1A13371  17.752  10.207   7.101  0.0564  0.0002  0.1307
  878loPI   C2A13372  17.636  10.239   7.494  0.1359  0.0296  0.1057
  878loPI   C3A13373  17.645  10.206   7.843 -0.4040  0.1989 -0.0215
  878loPI   C4A13374  17.571  10.170   8.288 -0.2500 -0.1406 -0.0948
  878loPI   C5A13375  17.338  10.253   8.704  0.0481 -0.1536  0.2157
  878loPI   C6A13376  17.200  10.509   9.038 -0.1570  0.1083 -0.2177
  878loPI   C1B13377  18.239  10.257   6.933 -0.0365 -0.1071 -0.0931
  878loPI   C2B13378  18.321  10.169   7.348  0.0947 -0.1490 -0.0256
  878loPI   C3B13379  18.155  10.174   7.768  0.2038  0.0760  0.1901
  878loPI   C4B13380  18.054  10.199   8.157  0.1126 -0.2415 -0.2207
  879loPI    C113381  14.043   9.498   5.873 -0.0719 -0.0436  0.0917
  879loPI    C213382  13.805   9.177   5.864  0.0645 -0.1491  0.1991
  879loPI    C313383  13.819   9.425   5.550 -0.0481 -0.2430  0.1192
  879loPI   PO413384  13.929   9.624   6.086 -0.0361  0.2950 -0.2444
  879loPI   GL113385  13.776   9.459   6.433  0.3899 -0.1322  0.0380
  879loPI   GL213386  13.593   9.202   6.514 -0.0881  0.0656  0.0499
  879loPI   C1A13387  13.924   9.589   6.883  0.1300 -0.0505 -0.0096
  879loPI   C2A13388  13.819   9.617   7.337  0.2744  0.1114 -0.1809
  879loPI   C3A13389  13.823   9.698   7.738 -0.3537 -0.3620  0.0124
  879loPI   C4A13390  13.849   9.646   8.225 -0.2515 -0.1582 -0.1934
  879loPI   C5A13391  14.172   9.346   8.444 -0.2093  0.0701 -0.2350
  879loPI   C6A13392  14.064   8.953   8.597  0.1735  0.1197 -0.0424
  879loPI   C1B13393  13.568   9.237   7.062 -0.0745 -0.0367  0.3580
  879loPI   C2B13394  13.553   9.198   7.519 -0.0830  0.5985 -0.0704
  879loPI   C3B13395  13.581   9.279   7.972 -0.1592 -0.2601 -0.1931
  879loPI   C4B13396  13.580   9.114   8.390 -0.1699 -0.0636  0.1757
  880loPI    C113397  16.776  13.984   6.131 -0.1362  0.0349  0.2546
  880loPI    C213398  16.451  13.947   5.902 -0.0593 -0.1271  0.1704
  880loPI    C313399  16.805  14.029   5.735  0.0189 -0.3620  0.2167
  880loPI   PO413400  16.627  14.062   6.344  0.0382 -0.0471 -0.0614
  880loPI   GL113401  16.634  13.873   6.728 -0.2876 -0.1994  0.0357
  880loPI   GL213402  16.918  13.876   6.763 -0.1567 -0.0524 -0.0313
  880loPI   C1A13403  16.548  13.789   7.102 -0.1920 -0.0943 -0.0552
  880loPI   C2A13404  16.616  13.762   7.520 -0.1999 -0.2515 -0.1038
  880loPI   C3A13405  16.504  13.812   7.847 -0.0467 -0.0406  0.1708
  880loPI   C4A13406  16.477  13.837   8.362 -0.2464  0.3179 -0.1391
  880loPI   C5A13407  16.423  13.788   8.823 -0.0699  0.3027 -0.1771
  880loPI   C6A13408  16.189  13.637   8.956  0.0322  0.0154  0.0501
  880loPI   C1B13409  17.045  13.794   7.225 -0.1160  0.0795 -0.0801
  880loPI   C2B13410  17.110  13.731   7.708  0.1606 -0.2967  0.2158
  880loPI   C3B13411  17.025  13.781   8.116  0.1403  0.1042 -0.4769
  880loPI   C4B13412  16.959  13.831   8.590 -0.0811  0.1688  0.0802
  881loPI    C113413  11.016   6.202   5.902 -0.1038  0.0283 -0.0827
  881loPI    C213414  10.914   5.931   5.626  0.0042  0.0362 -0.1306
  881loPI    C313415  10.886   6.321   5.542 -0.0493  0.0393 -0.0988
  881loPI   PO413416  10.871   6.140   6.127  0.0519  0.2092 -0.0395
  881loPI   GL113417  10.930   5.923   6.522 -0.2390 -0.1622  0.0033
  881loPI   GL213418  11.257   5.911   6.447 -0.0671 -0.0951 -0.0068
  881loPI   C1A13419  10.910   5.900   6.999  0.2866  0.1244 -0.0332
  881loPI   C2A13420  10.881   5.900   7.469 -0.3350 -0.1152  0.2168
  881loPI   C3A13421  10.854   5.982   7.836  0.1688 -0.2177  0.0563
  881loPI   C4A13422  10.772   5.756   8.284  0.1046  0.2095  0.0854
  881loPI   C5A13423  10.620   5.683   8.683 -0.0120  0.1697 -0.0805
  881loPI   C6A13424  10.665   5.940   9.023 -0.0956 -0.0952 -0.3197
  881loPI   C1B13425  11.459   5.943   6.790 -0.0989 -0.1530  0.1421
  881loPI   C2B13426  11.307   5.886   7.227  0.0503 -0.0076  0.0489
  881loPI   C3B13427  11.384   5.915   7.693  0.0776 -0.3540  0.0984
  881loPI   C4B13428  11.298   5.839   8.146 -0.1571 -0.0065 -0.3164
  882loPI    C113429  15.588  14.012   6.302 -0.2549  0.0957  0.1463
  882loPI    C213430  15.540  14.117   5.919 -0.0626 -0.3820 -0.0163
  882loPI    C313431  15.405  13.764   6.048 -0.0147 -0.2784  0.3298
  882loPI   PO413432  15.819  14.152   6.382  0.1409  0.0506 -0.0392
  882loPI   GL113433  15.942  14.293   6.772 -0.2148 -0.1448  0.1894
  882loPI   GL213434  16.179  14.105   6.771 -0.0653 -0.0280  0.0541
  882loPI   C1A13435  15.893  14.322   7.306 -0.1648  0.0047 -0.0082
  882loPI   C2A13436  15.801  14.254   7.803 -0.2165 -0.3444 -0.1157
  882loPI   C3A13437  15.641  14.163   8.217 -0.0105 -0.2624  0.1198
  882loPI   C4A13438  15.722  14.226   8.683  0.2604  0.1397  0.0803
  882loPI   C5A13439  16.026  14.168   8.954  0.1873 -0.0082 -0.1119
  882loPI   C6A13440  16.212  14.352   9.267  0.1326 -0.0453 -0.2142
  882loPI   C1B13441  16.376  14.275   7.114  0.0636 -0.0251  0.3502
  882loPI   C2B13442  16.332  14.286   7.559 -0.0425  0.2141 -0.0644
  882loPI   C3B13443  16.236  14.475   8.055 -0.2131  0.0828 -0.2774
  882loPI   C4B13444  16.186  14.282   8.409  0.1863 -0.0646  0.0025
  883loPI    C113445  13.038   4.433   5.955 -0.0983 -0.0501  0.0114
  883loPI    C213446  12.782   4.625   6.196 -0.0996 -0.0316 -0.0046
  883loPI    C313447  12.698   4.585   5.807  0.0885  0.2883 -0.0817
  883loPI   PO413448  13.006   4.186   6.095 -0.1452  0.5414  0.1796
  883loPI   GL113449  12.945   3.921   6.430 -0.2168 -0.0749  0.0214
  883loPI   GL213450  12.514   3.954   6.518 -0.3205 -0.4193  0.4039
  883loPI   C1A13451  13.028   3.935   6.841  0.0188 -0.1577 -0.1876
  883loPI   C2A13452  13.023   4.207   7.174 -0.1386 -0.0095  0.3576
  883loPI   C3A13453  13.016   4.104   7.523  0.0323 -0.0640  0.0617
  883loPI   C4A13454  12.966   4.155   7.907  0.0510 -0.1515  0.0684
  883loPI   C5A13455  12.961   4.203   8.237 -0.2569 -0.2005 -0.0625
  883loPI   C6A13456  12.881   4.152   8.633 -0.1622  0.0507  0.1498
  883loPI   C1B13457  12.507   3.965   6.956  0.0247  0.1126 -0.0776
  883loPI   C2B13458  12.512   4.101   7.380  0.2099  0.0913  0.0906
  883loPI   C3B13459  12.469   4.221   7.768  0.3726 -0.0833 -0.1137
  883loPI   C4B13460  12.407   4.156   8.178  0.2985  0.1366  0.0014
  884loPI    C113461   3.604   6.107   6.021  0.0096  0.2022 -0.0652
  884loPI    C213462   3.948   5.912   5.958  0.0143  0.1740  0.0457
  884loPI    C313463   3.799   6.152   5.674 -0.0201 -0.0332 -0.1137
  884loPI   PO413464   3.602   6.095   6.278 -0.0228 -0.0688  0.0113
  884loPI   GL113465   3.978   6.096   6.395 -0.2165 -0.1289 -0.2335
  884loPI   GL213466   4.291   6.002   6.253  0.1991 -0.1630  0.1262
  884loPI   C1A13467   3.800   6.119   6.922 -0.2776 -0.0319  0.0847
  884loPI   C2A13468   3.803   6.208   7.302 -0.1163 -0.1462  0.2385
  884loPI   C3A13469   3.791   6.171   7.696  0.0716 -0.0123 -0.4622
  884loPI   C4A13470   3.711   6.106   8.036  0.0810  0.0158 -0.2476
  884loPI   C5A13471   3.700   5.970   8.386 -0.2648  0.0728 -0.0496
  884loPI   C6A13472   4.104   6.004   8.544  0.3249  0.0983  0.0696
  884loPI   C1B13473   4.410   6.309   6.627  0.1690 -0.0010  0.0971
  884loPI   C2B13474   4.325   6.234   7.108 -0.0640 -0.1562 -0.0705
  884loPI   C3B13475   4.325   6.140   7.594  0.0538 -0.2814 -0.2045
  884loPI   C4B13476   4.240   6.224   8.085  0.0420  0.2835  0.1326
  885loPI    C113477   2.814   1.582   5.950  0.0199  0.0741 -0.0632
  885loPI    C213478   2.428   1.554   6.051  0.0770 -0.1140  0.1087
  885loPI    C313479   2.531   1.613   5.669 -0.1174 -0.2260  0.0375
  885loPI   PO413480   2.877   1.642   6.237  0.0403  0.2333 -0.2522
  885loPI   GL113481   2.871   1.828   6.596 -0.2998 -0.1076  0.0801
  885loPI   GL213482   2.634   2.068   6.747  0.4397 -0.2158 -0.1266
  885loPI   C1A13483   2.916   1.676   7.001  0.1934 -0.1001  0.0407
  885loPI   C2A13484   2.873   1.625   7.501  0.1265 -0.0740 -0.0945
  885loPI   C3A13485   2.876   1.635   7.896  0.0469 -0.0846 -0.1413
  885loPI   C4A13486   2.858   1.727   8.363 -0.3043  0.2831  0.0882
  885loPI   C5A13487   3.235   1.740   8.658  0.0328 -0.1854  0.2436
  885loPI   C6A13488   3.320   2.033   9.032 -0.0497  0.0470 -0.3273
  885loPI   C1B13489   2.615   2.032   7.267 -0.3530 -0.0305  0.1451
  885loPI   C2B13490   2.605   2.111   7.671 -0.0998  0.0679  0.1589
  885loPI   C3B13491   2.590   2.020   8.080 -0.0394  0.2087  0.0083
  885loPI   C4B13492   2.669   2.179   8.482  0.1876  0.2375 -0.0212
  886loPI    C113493   6.593  16.067   5.920 -0.1460 -0.0024  0.0090
  886loPI    C213494   6.343  15.909   5.652 -0.0710  0.0470 -0.0905
  886loPI    C313495   6.703  16.039   5.537 -0.0264  0.0399  0.0397
  886loPI   PO413496   6.486  16.167   6.058  0.0513 -0.2742 -0.0232
  886loPI   GL113497   6.566  16.223   6.465  0.0237 -0.2230 -0.2937
  886loPI   GL213498   6.741  16.338   6.691 -0.1047  0.1243  0.2620
  886loPI   C1A13499   6.426  15.981   6.842 -0.1088  0.1022  0.1876
  886loPI   C2A13500   6.416  16.038   7.387 -0.1314  0.0189 -0.2973
  886loPI   C3A13501   6.381  16.040   7.795 -0.0848 -0.2118  0.3532
  886loPI   C4A13502   6.350  15.941   8.286 -0.2391  0.1171  0.0222
  886loPI   C5A13503   6.289  16.050   8.657 -0.0084  0.0839  0.0705
  886loPI   C6A13504   6.230  16.429   8.957  0.0396 -0.0018  0.3753
  886loPI   C1B13505   6.656  16.426   7.162  0.0587  0.2326 -0.1043
  886loPI   C2B13506   6.640  16.401   7.589 -0.1587 -0.2658 -0.2852
  886loPI   C3B13507   6.623  16.452   8.029 -0.1369 -0.1167 -0.3545
  886loPI   C4B13508   6.516  16.478   8.383  0.1083 -0.0170 -0.0289
  887loPI    C113509   4.055  11.291   5.850  0.2996  0.0761  0.1335
  887loPI    C213510   4.327  11.090   5.636  0.0413 -0.2159  0.0699
  887loPI    C313511   3.999  11.234   5.458  0.2814  0.3870  0.0883
  887loPI   PO413512   4.010  11.095   6.053 -0.0004 -0.1664 -0.1432
  887loPI   GL113513   4.216  10.839   6.349  0.1090  0.0278 -0.1399
  887loPI   GL213514   4.383  10.700   6.440 -0.2276  0.1803 -0.0143
  887loPI   C1A13515   4.251  11.010   6.844 -0.0265  0.3114  0.0116
  887loPI   C2A13516   4.297  10.996   7.272  0.3577 -0.2304 -0.1593
  887loPI   C3A13517   4.304  11.067   7.743 -0.2803  0.3181  0.2610
  887loPI   C4A13518   4.347  10.993   8.222 -0.4381  0.2854  0.0339
  887loPI   C5A13519   4.361  10.891   8.645  0.0237  0.2397 -0.1800
  887loPI   C6A13520   4.368  10.798   9.001 -0.0822  0.1461  0.1250
  887loPI   C1B13521   4.576  10.552   6.883  0.0832 -0.0803  0.1388
  887loPI   C2B13522   4.653  10.620   7.276  0.0927  0.1342  0.0537
  887loPI   C3B13523   4.664  10.623   7.837 -0.1938  0.1401 -0.0075
  887loPI   C4B13524   4.668  10.529   8.264 -0.3463  0.0438  0.0321
  888loPI    C113525   4.787   5.407   5.570  0.0801  0.0677  0.0179
  888loPI    C213526   4.424   5.392   5.402  0.1159  0.0803 -0.0610
  888loPI    C313527   4.657   5.713   5.348  0.1657  0.0436 -0.0662
  888loPI   PO413528   4.758   5.413   5.814  0.2042  0.2963 -0.2051
  888loPI   GL113529   4.746   5.461   6.219  0.0521 -0.1042  0.2246
  888loPI   GL213530   4.698   5.678   6.307 -0.1762  0.0071  0.1276
  888loPI   C1A13531   4.996   5.361   6.715  0.0664 -0.2160  0.1036
  888loPI   C2A13532   4.966   5.267   7.198  0.2063  0.0751 -0.2975
  888loPI   C3A13533   4.907   5.295   7.549 -0.1318 -0.3277 -0.1530
  888loPI   C4A13534   4.769   5.409   8.099  0.2423 -0.0646 -0.3654
  888loPI   C5A13535   4.613   5.349   8.621  0.3785 -0.1365  0.2572
  888loPI   C6A13536   4.869   5.225   8.949  0.1231  0.1822 -0.0076
  888loPI   C1B13537   4.683   5.790   6.707  0.2406 -0.3361 -0.0913
  888loPI   C2B13538   4.745   5.653   7.014 -0.1594 -0.0097 -0.1081
  888loPI   C3B13539   4.633   5.823   7.423  0.1199  0.1594  0.3878
  888loPI   C4B13540   4.558   5.804   7.888  0.4325  0.1446 -0.1082
  889loPI    C113541  13.839  12.896   5.937  0.3360  0.0883  0.0249
  889loPI    C213542  13.710  12.735   5.595 -0.1038  0.4014  0.0362
  889loPI    C313543  14.102  12.755   5.670 -0.0167 -0.0641 -0.2506
  889loPI   PO413544  13.753  12.732   6.102  0.0420 -0.2580  0.2041
  889loPI   GL113545  13.602  12.599   6.541  0.2350  0.0101  0.1424
  889loPI   GL213546  13.724  12.314   6.608 -0.3547 -0.2752 -0.3486
  889loPI   C1A13547  13.398  12.781   7.005  0.0747 -0.0969  0.2002
  889loPI   C2A13548  13.359  12.946   7.387 -0.1235 -0.0906  0.2331
  889loPI   C3A13549  13.364  12.832   7.790 -0.1950  0.0546 -0.0394
  889loPI   C4A13550  13.379  12.885   8.346 -0.0569  0.0276  0.2833
  889loPI   C5A13551  13.286  12.565   8.681 -0.0928  0.1446 -0.0584
  889loPI   C6A13552  13.153  12.106   8.824  0.0118 -0.3545  0.1420
  889loPI   C1B13553  13.723  12.374   6.988 -0.0345 -0.0953  0.0935
  889loPI   C2B13554  13.702  12.400   7.478  0.3089 -0.1776  0.3791
  889loPI   C3B13555  13.653  12.452   7.876 -0.0114  0.1206 -0.2660
  889loPI   C4B13556  13.493  12.412   8.251 -0.1725  0.2602  0.4237
  890loPI    C113557   6.087   3.992   5.621 -0.3138 -0.3851  0.0216
  890loPI    C213558   6.369   4.219   5.450 -0.2786 -0.2549  0.2476
  890loPI    C313559   6.048   4.105   5.240 -0.2619 -0.0551  0.1109
  890loPI   PO413560   5.986   4.198   5.915 -0.0343  0.1143  0.1675
  890loPI   GL113561   6.029   4.396   6.362 -0.1021 -0.3419  0.0138
  890loPI   GL213562   6.354   4.463   6.340  0.0058 -0.2220 -0.2420
  890loPI   C1A13563   6.062   4.454   6.767 -0.0203  0.0882 -0.0360
  890loPI   C2A13564   6.023   4.490   7.194 -0.1694 -0.2577 -0.2574
  890loPI   C3A13565   6.008   4.512   7.619 -0.1437 -0.1830  0.2480
  890loPI   C4A13566   6.043   4.356   8.095 -0.1765 -0.0053  0.3157
  890loPI   C5A13567   6.228   4.277   8.528 -0.0587  0.0152  0.0458
  890loPI   C6A13568   6.618   4.132   8.541  0.0357 -0.2819  0.0617
  890loPI   C1B13569   6.550   4.525   6.740  0.2635 -0.2388 -0.0964
  890loPI   C2B13570   6.568   4.494   7.174 -0.0475 -0.1042  0.2290
  890loPI   C3B13571   6.524   4.507   7.617  0.1090 -0.1805  0.0433
  890loPI   C4B13572   6.535   4.337   8.072  0.2715 -0.0249  0.3561
  891loPI    C113573   0.472  14.681   6.284  0.1129  0.1203  0.1763
  891loPI    C213574   0.784  14.813   6.070  0.0159  0.1291  0.0395
  891loPI    C313575   0.697  14.422   6.078  0.1601  0.1000  0.2530
  891loPI   PO413576   0.275  14.920   6.328  0.0206  0.0296  0.0675
  891loPI   GL113577   0.167  14.725   6.704  0.1747  0.3495 -0.1404
  891loPI   GL213578   0.387  14.951   6.855 -0.1864  0.0587  0.0059
  891loPI   C1A13579   0.165  14.717   7.280 -0.1175 -0.1075 -0.1384
  891loPI   C2A13580   0.151  14.829   7.701  0.1638  0.1025 -0.1819
  891loPI   C3A13581   0.173  14.813   8.141  0.0496 -0.0647 -0.3168
  891loPI   C4A13582   0.088  14.822   8.550 -0.1192  0.1915 -0.0891
  891loPI   C5A13583   0.352  15.025   8.815  0.3455  0.1484  0.1219
  891loPI   C6A13584   0.542  15.069   9.209  0.0366  0.0736  0.2565
  891loPI   C1B13585   0.587  15.097   7.215 -0.3513  0.1362 -0.1364
  891loPI   C2B13586   0.611  14.979   7.570 -0.3280 -0.3113 -0.0490
  891loPI   C3B13587   0.668  14.857   7.972  0.0632  0.0202 -0.1012
  891loPI   C4B13588   0.599  14.760   8.421 -0.0258 -0.2551 -0.4211
  892loPI    C113589  15.918  12.697   6.139 -0.1729 -0.1151 -0.0083
  892loPI    C213590  15.917  13.072   6.000  0.1001 -0.1422 -0.0890
  892loPI    C313591  15.652  12.806   5.862 -0.0255 -0.0075 -0.1089
  892loPI   PO413592  15.888  12.769   6.479 -0.0206  0.2070  0.0295
  892loPI   GL113593  15.985  12.977   6.856  0.1931 -0.0287 -0.0219
  892loPI   GL213594  15.711  13.263   6.872  0.2441 -0.2067 -0.1764
  892loPI   C1A13595  16.052  12.904   7.310  0.2539  0.1021  0.4002
  892loPI   C2A13596  16.022  12.915   7.809 -0.2296 -0.1268 -0.1484
  892loPI   C3A13597  16.069  12.948   8.215 -0.1083 -0.0286 -0.0283
  892loPI   C4A13598  16.064  12.766   8.626  0.1984  0.1643 -0.0433
  892loPI   C5A13599  16.411  12.697   8.850 -0.0556  0.3511  0.0923
  892loPI   C6A13600  16.788  12.765   8.903 -0.0876 -0.0550 -0.0588
  892loPI   C1B13601  15.696  13.364   7.353  0.3365  0.1268 -0.0985
  892loPI   C2B13602  15.734  13.382   7.792  0.1149  0.1644 -0.3973
  892loPI   C3B13603  15.755  13.382   8.181 -0.1062 -0.0951 -0.0921
  892loPI   C4B13604  15.748  13.381   8.624  0.0724  0.0047 -0.0269
  893loPI    C113605   1.301  11.020   6.110 -0.0113  0.0486 -0.0128
  893loPI    C213606   1.597  10.964   5.847 -0.1850 -0.2247 -0.1557
  893loPI    C313607   1.263  11.153   5.735  0.0468  0.3516  0.0865
  893loPI   PO413608   1.423  11.033   6.342 -0.1447 -0.0057 -0.1268
  893loPI   GL113609   1.194  10.852   6.767 -0.0122  0.1717  0.1433
  893loPI   GL213610   1.171  10.635   6.547 -0.3726 -0.0169 -0.4297
  893loPI   C1A13611   1.104  10.707   7.233 -0.0434 -0.1075 -0.1476
  893loPI   C2A13612   1.098  10.617   7.691  0.1050  0.1815 -0.2482
  893loPI   C3A13613   0.932  10.631   8.112 -0.0478 -0.0797  0.0071
  893loPI   C4A13614   0.827  10.740   8.639 -0.2012  0.2422  0.2581
  893loPI   C5A13615   0.411  10.837   8.800  0.0042 -0.2018  0.3113
  893loPI   C6A13616   0.041  11.034   8.889 -0.0300 -0.1981 -0.0904
  893loPI   C1B13617   1.310  10.365   6.854  0.0753  0.1392  0.1585
  893loPI   C2B13618   1.402  10.302   7.280 -0.2504  0.1220 -0.1226
  893loPI   C3B13619   1.434  10.192   7.724  0.2169  0.2216 -0.0439
  893loPI   C4B13620   1.249  10.287   8.108  0.3757  0.1813  0.5207
  894loPI    C113621   4.093   4.843   5.725  0.2339  0.0680 -0.1467
  894loPI    C213622   3.894   4.637   5.446  0.1059  0.0717 -0.0590
  894loPI    C313623   4.145   4.928   5.338  0.0601  0.0704 -0.1705
  894loPI   PO413624   3.967   4.880   5.868  0.0480 -0.0257  0.0030
  894loPI   GL113625   3.877   5.073   6.218 -0.2325 -0.4408 -0.4331
  894loPI   GL213626   3.730   4.852   6.400  0.1538 -0.1587  0.2493
  894loPI   C1A13627   3.974   5.203   6.646  0.3875  0.0089 -0.0837
  894loPI   C2A13628   3.936   5.276   7.104  0.0110 -0.1726  0.0795
  894loPI   C3A13629   3.965   5.149   7.544 -0.0246 -0.1494  0.2785
  894loPI   C4A13630   3.873   5.265   7.915  0.0508 -0.0441  0.0992
  894loPI   C5A13631   3.704   5.477   8.349 -0.1097  0.0075  0.0695
  894loPI   C6A13632   3.240   5.613   8.401 -0.0058  0.0715  0.0235
  894loPI   C1B13633   3.724   4.845   6.875  0.2739  0.0584  0.1486
  894loPI   C2B13634   3.668   4.815   7.260 -0.2292 -0.2027  0.1044
  894loPI   C3B13635   3.640   4.818   7.746 -0.0346 -0.1712 -0.5004
  894loPI   C4B13636   3.687   4.921   8.185  0.0930  0.1883  0.2532
  895loPI    C113637  10.584  15.534   5.902  0.0981  0.0194  0.1169
  895loPI    C213638  10.581  15.469   5.507 -0.0669 -0.1061  0.1380
  895loPI    C313639  10.851  15.717   5.666  0.1543 -0.2384 -0.0244
  895loPI   PO413640  10.525  15.382   6.013 -0.1400 -0.1555  0.3493
  895loPI   GL113641  10.323  15.395   6.422  0.1796  0.0045 -0.1474
  895loPI   GL213642  10.279  15.135   6.451 -0.1682 -0.2264  0.2524
  895loPI   C1A13643  10.237  15.460   6.908 -0.2721  0.1330 -0.1315
  895loPI   C2A13644  10.284  15.477   7.279 -0.0904  0.2460 -0.0466
  895loPI   C3A13645  10.308  15.661   7.741  0.1503  0.0102  0.3002
  895loPI   C4A13646  10.246  15.574   8.160 -0.0512 -0.2676  0.0432
  895loPI   C5A13647  10.546  15.456   8.509  0.1683 -0.0580 -0.0311
  895loPI   C6A13648  10.795  15.678   8.765 -0.0983  0.1236  0.0812
  895loPI   C1B13649  10.434  14.994   6.780  0.1678  0.0935  0.1321
  895loPI   C2B13650  10.447  15.004   7.149  0.1306 -0.0887  0.0640
  895loPI   C3B13651  10.533  15.072   7.591 -0.1544  0.2593  0.1943
  895loPI   C4B13652  10.558  15.199   8.025 -0.0274  0.0150  0.3086
  896loPI    C113653  11.500   0.242   5.697 -0.3189 -0.1743 -0.0164
  896loPI    C213654  11.776  -0.016   5.565 -0.3652 -0.1741 -0.1148
  896loPI    C313655  11.670   0.296   5.339 -0.2068  0.0116  0.0635
  896loPI   PO413656  11.525   0.211   5.955 -0.1256  0.1748  0.0052
  896loPI   GL113657  11.396   0.132   6.337 -0.2758  0.1262 -0.1959
  896loPI   GL213658  11.599   0.002   6.443  0.0663  0.0811 -0.0048
  896loPI   C1A13659  11.191  -0.057   6.753 -0.1444 -0.5343  0.2302
  896loPI   C2A13660  11.231   0.025   7.119  0.2023 -0.1341  0.2722
  896loPI   C3A13661  11.264  -0.019   7.564  0.2436 -0.0140 -0.0697
  896loPI   C4A13662  11.296   0.013   7.975 -0.1894 -0.0881  0.0082
  896loPI   C5A13663  11.403  -0.075   8.392  0.0334  0.1258  0.1588
  896loPI   C6A13664  11.407   0.107   8.846 -0.7202 -0.0672  0.1652
  896loPI   C1B13665  11.675  -0.079   6.868 -0.2724  0.1287 -0.0888
  896loPI   C2B13666  11.768  -0.027   7.170 -0.1409 -0.2011  0.2012
  896loPI   C3B13667  11.793  -0.039   7.639  0.0564 -0.2147 -0.0786
  896loPI   C4B13668  11.839  -0.042   8.049 -0.1563  0.1898  0.4162
  897loPI    C113669  12.871   6.004   5.877 -0.0001 -0.2662  0.1853
  897loPI    C213670  12.581   6.173   5.660  0.2016  0.0455  0.1511
  897loPI    C313671  12.795   5.871   5.508  0.1996  0.1194 -0.0006
  897loPI   PO413672  12.771   5.958   6.163  0.1913  0.0154 -0.2465
  897loPI   GL113673  12.785   5.737   6.465 -0.0174  0.0758  0.1405
  897loPI   GL213674  12.619   5.509   6.690  0.0406 -0.0397  0.1049
  897loPI   C1A13675  12.918   5.941   6.807 -0.1430 -0.1496 -0.3124
  897loPI   C2A13676  12.911   5.967   7.255  0.2669  0.0143 -0.1767
  897loPI   C3A13677  12.943   5.952   7.701 -0.2605 -0.0271 -0.0699
  897loPI   C4A13678  12.874   5.949   8.092 -0.0857  0.0958 -0.2867
  897loPI   C5A13679  12.617   6.051   8.566 -0.1119 -0.0152 -0.0329
  897loPI   C6A13680  12.680   6.040   9.051 -0.1217 -0.1339  0.0280
  897loPI   C1B13681  12.697   5.489   7.074  0.0091 -0.1002 -0.4727
  897loPI   C2B13682  12.714   5.497   7.540  0.3302 -0.0231  0.2961
  897loPI   C3B13683  12.542   5.495   7.945  0.1072 -0.0007 -0.2441
  897loPI   C4B13684  12.575   5.558   8.393  0.1302 -0.0145 -0.0724
  898loPI    C113685  17.349  14.224   5.739  0.0771 -0.0480 -0.1531
  898loPI    C213686  17.097  14.496   5.890 -0.0387 -0.2880  0.0951
  898loPI    C313687  17.243  14.542   5.520  0.0079  0.1509  0.1624
  898loPI   PO413688  17.251  14.032   5.998 -0.0536 -0.0965  0.2695
  898loPI   GL113689  17.317  14.053   6.490  0.0721  0.1054 -0.2875
  898loPI   GL213690  17.484  13.786   6.719  0.0036  0.0600 -0.0890
  898loPI   C1A13691  17.283  14.257   6.967  0.3736 -0.1255 -0.0220
  898loPI   C2A13692  17.297  14.235   7.467  0.0585  0.3336  0.1344
  898loPI   C3A13693  17.398  14.355   7.883 -0.3159  0.1392 -0.0078
  898loPI   C4A13694  17.166  14.229   8.316 -0.0038  0.0260 -0.0627
  898loPI   C5A13695  17.377  14.157   8.767 -0.0119 -0.1559  0.1999
  898loPI   C6A13696  17.658  14.100   9.112 -0.0327 -0.1446  0.0584
  898loPI   C1B13697  17.537  13.830   7.136  0.0081  0.1073  0.1462
  898loPI   C2B13698  17.583  13.800   7.632 -0.3332  0.2142  0.0901
  898loPI   C3B13699  17.535  13.867   8.012 -0.1084 -0.2788  0.2352
  898loPI   C4B13700  17.560  13.804   8.471 -0.0531  0.0020  0.1326
  899loPI    C113701   3.514  15.802   6.135 -0.1324  0.2045 -0.2174
  899loPI    C213702   3.886  15.666   6.080 -0.1193  0.0458  0.2242
  899loPI    C313703   3.709  15.886   5.797  0.2531 -0.0020 -0.0523
  899loPI   PO413704   3.537  15.883   6.392 -0.1327 -0.0415 -0.2450
  899loPI   GL113705   3.683  15.839   6.786 -0.1691  0.2003 -0.0603
  899loPI   GL213706   3.541  15.535   6.718 -0.1385 -0.1622  0.1155
  899loPI   C1A13707   3.837  15.905   7.122 -0.0400  0.0562  0.1664
  899loPI   C2A13708   3.854  15.988   7.568 -0.3030  0.0698 -0.1775
  899loPI   C3A13709   3.837  15.925   7.987  0.0335 -0.2270 -0.0896
  899loPI   C4A13710   3.726  15.965   8.416  0.0213  0.1681  0.1425
  899loPI   C5A13711   3.775  16.208   8.697 -0.2459 -0.2077  0.1934
  899loPI   C6A13712   3.953  16.414   9.146  0.1029  0.0565 -0.0038
  899loPI   C1B13713   3.537  15.465   7.175 -0.1512  0.1435  0.3502
  899loPI   C2B13714   3.496  15.444   7.701  0.0460  0.0103 -0.2088
  899loPI   C3B13715   3.525  15.506   8.148 -0.0485 -0.2325 -0.0096
  899loPI   C4B13716   3.353  15.464   8.543  0.0151 -0.1037 -0.5426
  900loPI    C113717   6.464   0.433   5.909  0.0412  0.0176 -0.1768
  900loPI    C213718   6.141   0.315   5.704  0.0658 -0.1455 -0.1228
  900loPI    C313719   6.494   0.347   5.520 -0.0068  0.1651 -0.2140
  900loPI   PO413720   6.455   0.409   6.117  0.1973 -0.0317  0.0969
  900loPI   GL113721   6.276   0.590   6.464  0.3224 -0.1671  0.0210
  900loPI   GL213722   6.332   0.287   6.650 -0.1501  0.3127 -0.0698
  900loPI   C1A13723   6.063   0.865   6.855 -0.2029  0.1027 -0.2838
  900loPI   C2A13724   6.026   0.813   7.221 -0.1810 -0.1732 -0.4134
  900loPI   C3A13725   6.054   0.808   7.739 -0.1675  0.3639 -0.1069
  900loPI   C4A13726   6.036   0.851   8.181  0.0157  0.1047  0.1118
  900loPI   C5A13727   5.972   0.760   8.599  0.3929  0.0045  0.0954
  900loPI   C6A13728   5.949   0.974   9.082  0.2387  0.0018  0.1912
  900loPI   C1B13729   6.288   0.371   7.055  0.0114 -0.0425  0.2880
  900loPI   C2B13730   6.329   0.386   7.510  0.0030  0.1069 -0.0915
  900loPI   C3B13731   6.352   0.406   7.981 -0.1326 -0.2230  0.1944
  900loPI   C4B13732   6.245   0.377   8.364  0.1367  0.2255 -0.2876
  901loPI    C113733  15.492   9.643   6.136 -0.1393 -0.0573  0.0424
  901loPI    C213734  15.624  10.004   6.249  0.1654 -0.1104 -0.1325
  901loPI    C313735  15.787   9.673   6.406  0.0902 -0.1756 -0.1907
  901loPI   PO413736  15.215   9.683   6.140  0.1316  0.1940  0.1257
  901loPI   GL113737  15.164   9.978   6.458  0.1201 -0.2552  0.1219
  901loPI   GL213738  15.323   9.737   6.592 -0.2686 -0.1200 -0.2045
  901loPI   C1A13739  15.119  10.125   6.848 -0.1481  0.0072  0.1143
  901loPI   C2A13740  15.116  10.112   7.336  0.2861 -0.0032  0.0956
  901loPI   C3A13741  15.073  10.091   7.720 -0.0790  0.3756 -0.0289
  901loPI   C4A13742  15.021  10.133   8.123 -0.2082  0.0375  0.0436
  901loPI   C5A13743  14.939  10.112   8.467 -0.0624  0.3871  0.2859
  901loPI   C6A13744  14.899   9.820   8.789 -0.1035 -0.0376  0.1701
  901loPI   C1B13745  15.434   9.745   7.051 -0.0513  0.3245  0.3744
  901loPI   C2B13746  15.373   9.711   7.455 -0.2193  0.4390  0.0494
  901loPI   C3B13747  15.277   9.633   7.810 -0.0379 -0.3886 -0.2329
  901loPI   C4B13748  15.266   9.694   8.261  0.2143  0.1119 -0.0303
  902loPI    C113749   3.425   3.015   5.863 -0.1247 -0.0308  0.4238
  902loPI    C213750   3.774   3.120   5.698 -0.3781  0.1738  0.0008
  902loPI    C313751   3.723   2.749   5.839 -0.1138  0.0259 -0.2816
  902loPI   PO413752   3.318   3.226   6.091 -0.0743 -0.0817 -0.3002
  902loPI   GL113753   3.263   3.533   6.428 -0.1067 -0.1788 -0.2127
  902loPI   GL213754   2.981   3.365   6.432  0.1860  0.2148 -0.0327
  902loPI   C1A13755   3.430   3.508   6.862 -0.1323  0.1555 -0.0740
  902loPI   C2A13756   3.376   3.509   7.372  0.1532  0.0978  0.0275
  902loPI   C3A13757   3.327   3.469   7.734 -0.0761 -0.0034 -0.3143
  902loPI   C4A13758   3.476   3.494   8.115 -0.1757 -0.0425 -0.0648
  902loPI   C5A13759   3.512   3.716   8.487 -0.1644  0.0029  0.2042
  902loPI   C6A13760   3.258   4.076   8.589 -0.1424  0.1909  0.1134
  902loPI   C1B13761   2.949   3.484   6.842  0.0028 -0.0051  0.0413
  902loPI   C2B13762   2.861   3.451   7.254  0.0372  0.0184  0.1726
  902loPI   C3B13763   2.874   3.396   7.780 -0.1963 -0.0712 -0.1279
  902loPI   C4B13764   2.806   3.322   8.188  0.0021  0.0343 -0.0617
  903loPI    C113765   8.517   1.707   5.854 -0.1016  0.0608 -0.1959
  903loPI    C213766   8.781   1.961   5.693 -0.0063  0.0112 -0.1191
  903loPI    C313767   8.597   1.691   5.462  0.2130 -0.1332 -0.1272
  903loPI   PO413768   8.587   1.695   6.097  0.1597  0.1123  0.0213
  903loPI   GL113769   8.691   1.901   6.446  0.1949  0.0901  0.0880
  903loPI   GL213770   8.743   2.184   6.555  0.1105 -0.2304  0.4204
  903loPI   C1A13771   8.650   1.663   6.698 -0.3283  0.0707  0.0720
  903loPI   C2A13772   8.666   1.720   7.122  0.4100  0.0598 -0.3234
  903loPI   C3A13773   8.642   1.650   7.573 -0.2654 -0.1720  0.1028
  903loPI   C4A13774   8.578   1.725   7.958 -0.3565 -0.1800  0.1681
  903loPI   C5A13775   8.574   1.640   8.424 -0.1170 -0.0812 -0.0772
  903loPI   C6A13776   8.226   1.640   8.676 -0.3643 -0.2395  0.0241
  903loPI   C1B13777   8.860   2.265   6.917  0.0601  0.0327  0.0905
  903loPI   C2B13778   8.897   2.262   7.382  0.0733  0.2952  0.2320
  903loPI   C3B13779   8.904   2.251   7.820 -0.2128 -0.0787  0.1151
  903loPI   C4B13780   8.717   2.115   8.256 -0.0391 -0.2197 -0.3179
  904loPI    C113781  10.758   0.569   5.582  0.0709  0.0603 -0.0577
  904loPI    C213782  10.464   0.697   5.343  0.0694  0.0812 -0.0448
  904loPI    C313783  10.619   0.332   5.291 -0.0424  0.0232  0.0255
  904loPI   PO413784  10.700   0.563   5.909  0.3023  0.3553  0.2997
  904loPI   GL113785  10.761   0.868   6.367  0.0638 -0.0403  0.1837
  904loPI   GL213786  10.524   0.741   6.397 -0.0072  0.0969 -0.1208
  904loPI   C1A13787  10.751   0.841   6.922 -0.0405 -0.0342 -0.1218
  904loPI   C2A13788  10.714   0.761   7.300 -0.2064  0.0469 -0.1284
  904loPI   C3A13789  10.701   0.886   7.771 -0.1147 -0.1242  0.0388
  904loPI   C4A13790  10.550   1.000   8.196 -0.2436  0.0742  0.1947
  904loPI   C5A13791  10.610   1.386   8.478  0.0576 -0.1399  0.1649
  904loPI   C6A13792  10.364   1.633   8.701  0.3419  0.1222  0.3518
  904loPI   C1B13793  10.251   0.719   6.738  0.4712 -0.1098  0.0521
  904loPI   C2B13794  10.228   0.753   7.122  0.3585  0.2037 -0.1755
  904loPI   C3B13795  10.185   0.783   7.451 -0.1340  0.0019 -0.1828
  904loPI   C4B13796  10.230   0.818   7.865 -0.1041  0.1322 -0.1002
  905loPI    C113797   0.583   5.839   5.919  0.0795 -0.0350  0.1360
  905loPI    C213798   0.718   6.133   5.683  0.0374 -0.0981  0.0327
  905loPI    C313799   0.431   5.887   5.552  0.1845 -0.2853  0.0576
  905loPI   PO413800   0.802   5.779   6.059 -0.1136 -0.0488  0.0858
  905loPI   GL113801   0.745   5.457   6.351 -0.0285 -0.0283  0.0635
  905loPI   GL213802   0.499   5.665   6.408 -0.1402 -0.0616  0.1039
  905loPI   C1A13803   0.782   5.243   6.752 -0.3375 -0.0823  0.0958
  905loPI   C2A13804   0.782   5.199   7.159  0.2451  0.1574 -0.1562
  905loPI   C3A13805   0.710   5.326   7.561  0.0280  0.0609 -0.4362
  905loPI   C4A13806   0.805   5.163   8.011  0.2224  0.1097  0.1764
  905loPI   C5A13807   0.764   5.138   8.418  0.0171 -0.1133  0.1520
  905loPI   C6A13808   0.358   5.135   8.645  0.0764  0.0350  0.1709
  905loPI   C1B13809   0.482   5.613   6.869  0.3094 -0.2789  0.3757
  905loPI   C2B13810   0.397   5.663   7.324 -0.1855  0.4373  0.0270
  905loPI   C3B13811   0.436   5.742   7.802  0.1846  0.4688  0.0678
  905loPI   C4B13812   0.436   5.530   8.193 -0.0796 -0.0218 -0.0913
  906loPI    C113813  16.045   5.013   5.950 -0.1314 -0.0075 -0.0688
  906loPI    C213814  16.347   4.766   5.862 -0.0345  0.0196  0.1802
  906loPI    C313815  16.320   5.122   5.681 -0.0065 -0.0483  0.0414
  906loPI   PO413816  16.006   5.002   6.245  0.1230  0.1209 -0.1394
  906loPI   GL113817  15.748   5.063   6.577 -0.1235  0.0399  0.3200
  906loPI   GL213818  15.482   4.897   6.440  0.2188  0.0337  0.0570
  906loPI   C1A13819  15.593   5.185   6.947  0.0595  0.0762 -0.1418
  906loPI   C2A13820  15.494   5.132   7.333 -0.0090 -0.0299  0.0699
  906loPI   C3A13821  15.452   5.167   7.702 -0.0082 -0.1459 -0.0864
  906loPI   C4A13822  15.467   5.038   8.070  0.1417 -0.0293  0.1136
  906loPI   C5A13823  15.352   4.730   8.497 -0.0218 -0.2144  0.0417
  906loPI   C6A13824  14.970   4.601   8.616 -0.4518 -0.1324 -0.1160
  906loPI   C1B13825  15.279   4.790   6.833 -0.1766  0.0301 -0.1182
  906loPI   C2B13826  15.264   4.633   7.262  0.1417 -0.1264  0.1647
  906loPI   C3B13827  15.186   4.682   7.689 -0.2050  0.1381  0.1619
  906loPI   C4B13828  15.098   4.641   8.035 -0.0317 -0.1331 -0.1472
  907loPI    C113829   1.992   6.985   5.865  0.0906  0.0828 -0.0273
  907loPI    C213830   2.061   7.367   5.963  0.0979  0.0826 -0.0314
  907loPI    C313831   2.121   7.243   5.588 -0.0907  0.1225 -0.0757
  907loPI   PO413832   1.709   6.959   5.984  0.0809 -0.0138  0.2483
  907loPI   GL113833   1.817   6.993   6.403 -0.0082 -0.0192  0.1133
  907loPI   GL213834   1.947   7.285   6.421  0.2008  0.1162 -0.1157
  907loPI   C1A13835   1.668   7.095   6.844  0.2677 -0.3037 -0.1645
  907loPI   C2A13836   1.719   6.974   7.221 -0.2279 -0.2043 -0.0492
  907loPI   C3A13837   1.653   7.057   7.693 -0.0253 -0.1064 -0.2195
  907loPI   C4A13838   1.653   7.213   8.099 -0.0220  0.1848 -0.1092
  907loPI   C5A13839   1.806   7.265   8.442  0.1220  0.1914  0.1893
  907loPI   C6A13840   1.975   7.589   8.723  0.1244 -0.2977 -0.1430
  907loPI   C1B13841   1.959   7.528   6.770  0.3881 -0.2953  0.1881
  907loPI   C2B13842   1.988   7.461   7.195  0.0306 -0.0509 -0.3107
  907loPI   C3B13843   1.853   7.500   7.559  0.2789 -0.0324 -0.2389
  907loPI   C4B13844   2.030   7.512   8.028  0.0503  0.2794 -0.1171
  908loPI    C113845  12.864  10.420   5.933  0.0863  0.0047  0.2214
  908loPI    C213846  12.916  10.227   5.586 -0.0869  0.1343  0.1217
  908loPI    C313847  13.134  10.552   5.670 -0.1139  0.1602  0.0911
  908loPI   PO413848  12.883  10.267   6.075 -0.2252  0.1439  0.1418
  908loPI   GL113849  12.993  10.188   6.505  0.1216  0.0221  0.1658
  908loPI   GL213850  13.234  10.032   6.442 -0.1133  0.1024 -0.3576
  908loPI   C1A13851  13.039  10.062   6.908 -0.4566 -0.0061 -0.1299
  908loPI   C2A13852  13.068  10.026   7.344  0.4185  0.4192 -0.1875
  908loPI   C3A13853  13.009  10.079   7.759 -0.1375 -0.0822  0.3315
  908loPI   C4A13854  12.979  10.167   8.300 -0.1562 -0.1506  0.2164
  908loPI   C5A13855  13.038  10.045   8.662  0.0571  0.1335  0.1008
  908loPI   C6A13856  12.962   9.742   9.033 -0.0849 -0.1038  0.2230
  908loPI   C1B13857  13.528  10.113   6.741  0.2662  0.1898 -0.0939
  908loPI   C2B13858  13.540  10.118   7.231  0.1573  0.0175 -0.0296
  908loPI   C3B13859  13.474  10.116   7.621  0.2599  0.0875  0.2578
  908loPI   C4B13860  13.575  10.083   7.983 -0.4033  0.2936 -0.0682
  909loPI    C113861  15.833   0.858   5.949  0.2329 -0.2115 -0.0059
  909loPI    C213862  15.914   0.483   5.834  0.2500 -0.2380  0.0918
  909loPI    C313863  16.191   0.770   5.792  0.1925 -0.2092 -0.0999
  909loPI   PO413864  15.744   0.835   6.226 -0.2019  0.0983 -0.0356
  909loPI   GL113865  15.924   1.065   6.648 -0.3003  0.0718 -0.0957
  909loPI   GL213866  15.868   0.719   6.669  0.0194 -0.0270  0.0502
  909loPI   C1A13867  15.880   1.062   7.039 -0.3520  0.0314  0.1724
  909loPI   C2A13868  15.888   0.974   7.489  0.0525 -0.0504 -0.1227
  909loPI   C3A13869  15.956   1.043   7.925  0.0297 -0.2478  0.1393
  909loPI   C4A13870  16.015   1.053   8.385  0.0234  0.3455  0.1601
  909loPI   C5A13871  16.118   1.123   8.762 -0.2767 -0.0171 -0.1643
  909loPI   C6A13872  15.875   1.083   9.162 -0.0534 -0.1126 -0.1298
  909loPI   C1B13873  15.647   0.611   7.035  0.1414 -0.4247  0.0889
  909loPI   C2B13874  15.608   0.546   7.493  0.1408  0.1416  0.1028
  909loPI   C3B13875  15.709   0.579   7.838 -0.3323  0.1894  0.0623
  909loPI   C4B13876  15.755   0.583   8.308  0.0413  0.2010  0.1731
  910loPI    C113877   8.912  15.018   5.832 -0.0285  0.0153  0.0026
  910loPI    C213878   8.643  15.079   5.543 -0.0273 -0.1433 -0.0329
  910loPI    C313879   9.033  15.124   5.466 -0.0335 -0.0740 -0.0251
  910loPI   PO413880   8.703  15.045   6.104  0.0078 -0.0371  0.0596
  910loPI   GL113881   8.602  15.023   6.497 -0.1591 -0.2547 -0.0001
  910loPI   GL213882   8.922  14.954   6.583  0.0024 -0.0869 -0.1807
  910loPI   C1A13883   8.467  14.976   6.815  0.0151 -0.1570  0.2519
  910loPI   C2A13884   8.434  15.012   7.309 -0.1542 -0.0926 -0.2421
  910loPI   C3A13885   8.441  15.048   7.714  0.1980 -0.1200 -0.0114
  910loPI   C4A13886   8.465  15.034   8.184 -0.0129  0.0474  0.0840
  910loPI   C5A13887   8.425  15.126   8.662  0.0031  0.2521 -0.1317
  910loPI   C6A13888   8.121  14.860   8.883 -0.0585  0.0921 -0.2041
  910loPI   C1B13889   8.936  15.045   7.019 -0.2692 -0.2319 -0.1846
  910loPI   C2B13890   8.942  15.093   7.396 -0.0941 -0.0653  0.1433
  910loPI   C3B13891   9.047  15.097   7.763 -0.0655  0.2363  0.1375
  910loPI   C4B13892   9.098  15.034   8.077  0.1176  0.0205  0.2769
  911loPI    C113893   9.104   2.027   6.095 -0.0560 -0.0732  0.0382
  911loPI    C213894   9.501   1.995   6.133 -0.0383  0.1049  0.0121
  911loPI    C313895   9.319   1.852   5.807  0.0147  0.0988 -0.0149
  911loPI   PO413896   9.044   2.313   6.080 -0.4370  0.1202 -0.1576
  911loPI   GL113897   9.076   2.570   6.413 -0.4090 -0.2760 -0.1739
  911loPI   GL213898   9.229   2.311   6.539  0.5729 -0.0649  0.0162
  911loPI   C1A13899   9.198   2.691   6.795 -0.2197 -0.0491  0.2497
  911loPI   C2A13900   9.181   2.654   7.226  0.1140 -0.0503  0.0202
  911loPI   C3A13901   9.165   2.677   7.603  0.2087 -0.1924 -0.2686
  911loPI   C4A13902   9.100   2.663   8.040 -0.1128 -0.3168  0.0581
  911loPI   C5A13903   9.034   2.696   8.433 -0.1792 -0.3943  0.1979
  911loPI   C6A13904   8.671   2.609   8.628 -0.0489  0.0473 -0.0877
  911loPI   C1B13905   9.406   2.252   6.896  0.0841  0.0556  0.0503
  911loPI   C2B13906   9.473   2.203   7.325  0.0133 -0.0323  0.3614
  911loPI   C3B13907   9.424   2.224   7.765  0.0523 -0.1636 -0.2124
  911loPI   C4B13908   9.237   2.237   8.158 -0.0953 -0.1375 -0.0504
  912loPI    C113909  14.871   0.240   6.260 -0.1757 -0.0699 -0.1328
  912loPI    C213910  15.111  -0.046   6.118 -0.0492  0.0340 -0.1302
  912loPI    C313911  14.923   0.200   5.865  0.0534  0.1192 -0.1246
  912loPI   PO413912  14.980   0.345   6.376 -0.0074 -0.0831  0.0178
  912loPI   GL113913  14.721   0.508   6.722  0.2545 -0.0024 -0.2434
  912loPI   GL213914  15.062   0.478   6.826  0.0499  0.0364  0.3746
  912loPI   C1A13915  14.543   0.619   7.195  0.0074  0.0640  0.2205
  912loPI   C2A13916  14.533   0.614   7.624 -0.0305 -0.0669  0.1069
  912loPI   C3A13917  14.584   0.594   8.008  0.1919 -0.1583  0.2343
  912loPI   C4A13918  14.776   0.563   8.384  0.1203  0.1104 -0.0707
  912loPI   C5A13919  14.858   0.439   8.779  0.2241 -0.2253 -0.0641
  912loPI   C6A13920  14.706   0.530   9.153  0.1072  0.0630  0.0205
  912loPI   C1B13921  15.106   0.616   7.198 -0.2079  0.1578 -0.1581
  912loPI   C2B13922  15.088   0.598   7.683 -0.3967  0.2940  0.0186
  912loPI   C3B13923  15.255   0.566   8.155 -0.3476  0.3950  0.2689
  912loPI   C4B13924  15.284   0.588   8.548  0.2286  0.0190 -0.1086
  913loPI    C113925   9.088  12.552   6.136  0.0096 -0.0343  0.1381
  913loPI    C213926   8.858  12.303   5.923 -0.0792  0.1208  0.0505
  913loPI    C313927   8.944  12.667   5.780  0.2191  0.0661  0.0842
  913loPI   PO413928   9.245  12.484   6.235  0.0861  0.3441  0.0719
  913loPI   GL113929   9.453  12.591   6.571  0.0387 -0.0778  0.2357
  913loPI   GL213930   9.771  12.696   6.500  0.2692  0.1539 -0.4847
  913loPI   C1A13931   9.410  12.671   6.961 -0.0594 -0.2928 -0.1626
  913loPI   C2A13932   9.226  12.722   7.332 -0.1748 -0.1413  0.3267
  913loPI   C3A13933   9.311  12.677   7.748  0.1109  0.1464 -0.3484
  913loPI   C4A13934   9.240  12.689   8.200 -0.1853  0.3992  0.1961
  913loPI   C5A13935   9.163  12.426   8.618  0.2844 -0.0657 -0.1167
  913loPI   C6A13936   8.821  12.184   8.658 -0.0945 -0.0531  0.1540
  913loPI   C1B13937   9.881  12.644   7.000 -0.2567  0.2773  0.3366
  913loPI   C2B13938   9.727  12.659   7.359 -0.1176 -0.2761  0.1342
  913loPI   C3B13939   9.873  12.650   7.638  0.0364  0.0818 -0.1233
  913loPI   C4B13940   9.754  12.689   7.951  0.0955  0.3791  0.0830
  914loPI    C113941   5.205   9.677   5.845  0.1150 -0.1299  0.0132
  914loPI    C213942   4.972   9.417   5.649 -0.0070 -0.0465  0.0464
  914loPI    C313943   5.273   9.599   5.458 -0.0982  0.0016 -0.0525
  914loPI   PO413944   5.312   9.566   6.016 -0.0080  0.0519 -0.0844
  914loPI   GL113945   5.183   9.476   6.389  0.2735 -0.0165  0.1906
  914loPI   GL213946   5.482   9.323   6.510 -0.0183 -0.0628 -0.3478
  914loPI   C1A13947   5.005   9.321   6.719  0.1241  0.0931 -0.0993
  914loPI   C2A13948   4.955   9.329   7.213  0.0078 -0.0280  0.0225
  914loPI   C3A13949   4.975   9.283   7.693  0.1152  0.0456 -0.1089
  914loPI   C4A13950   5.010   9.278   8.163 -0.2602 -0.0681  0.1725
  914loPI   C5A13951   5.056   9.269   8.626  0.3637 -0.1604  0.2009
  914loPI   C6A13952   5.279   9.409   8.932 -0.1311  0.1699  0.1871
  914loPI   C1B13953   5.542   9.446   6.892  0.0907  0.1552  0.0116
  914loPI   C2B13954   5.555   9.331   7.305  0.0526  0.2311  0.0853
  914loPI   C3B13955   5.507   9.301   7.753 -0.1780 -0.3494  0.2859
  914loPI   C4B13956   5.521   9.267   8.163  0.1370 -0.0552  0.1860
  915loPI    C113957  16.844   9.489   5.594 -0.1983 -0.1786 -0.0813
  915loPI    C213958  16.791   9.097   5.535  0.0987 -0.1655 -0.4789
  915loPI    C313959  16.959   9.321   5.250  0.1164  0.2167 -0.1766
  915loPI   PO413960  16.944   9.481   5.889  0.2728  0.2608 -0.1798
  915loPI   GL113961  16.872   9.436   6.244  0.0136 -0.1223  0.3483
  915loPI   GL213962  17.208   9.360   6.419  0.0055  0.2738  0.2913
  915loPI   C1A13963  16.760   9.294   6.650 -0.2705 -0.1805 -0.1685
  915loPI   C2A13964  16.774   9.273   7.087 -0.1224 -0.2102 -0.1005
  915loPI   C3A13965  16.663   9.259   7.531  0.1395 -0.1059 -0.3240
  915loPI   C4A13966  16.669   9.311   7.983  0.0857  0.1780  0.1362
  915loPI   C5A13967  16.670   9.239   8.323 -0.1003  0.2971  0.1973
  915loPI   C6A13968  16.564   9.381   8.755  0.1966 -0.0332 -0.0185
  915loPI   C1B13969  17.232   9.425   6.881  0.0848 -0.0008 -0.0482
  915loPI   C2B13970  17.265   9.300   7.283 -0.0973  0.1093 -0.0025
  915loPI   C3B13971  17.166   9.294   7.719 -0.0650  0.1739  0.2862
  915loPI   C4B13972  17.108   9.344   8.206 -0.0974  0.1090 -0.0799
  916loPI    C113973   5.690   4.891   5.591 -0.0264 -0.1592 -0.1058
  916loPI    C213974   5.861   4.534   5.531  0.0454 -0.1206 -0.1311
  916loPI    C313975   6.079   4.869   5.499  0.0549 -0.0912  0.2111
  916loPI   PO413976   5.495   4.854   5.870 -0.0696  0.2447  0.0037
  916loPI   GL113977   5.407   4.720   6.262 -0.0502 -0.0978  0.1445
  916loPI   GL213978   5.215   4.923   6.524 -0.2269  0.1576 -0.3250
  916loPI   C1A13979   5.482   4.436   6.574  0.1752 -0.0035 -0.3079
  916loPI   C2A13980   5.533   4.388   7.017  0.2616 -0.0585  0.0374
  916loPI   C3A13981   5.549   4.377   7.463 -0.0820 -0.0586 -0.0269
  916loPI   C4A13982   5.538   4.478   7.886  0.2736  0.0111  0.0775
  916loPI   C5A13983   5.531   4.370   8.196 -0.0128 -0.1279  0.0054
  916loPI   C6A13984   5.771   4.617   8.582 -0.0438 -0.0177  0.3341
  916loPI   C1B13985   5.315   4.958   7.010 -0.2014  0.1483  0.0946
  916loPI   C2B13986   5.248   4.877   7.464  0.0764  0.1002 -0.0537
  916loPI   C3B13987   5.179   4.976   7.920 -0.1188 -0.0876  0.1849
  916loPI   C4B13988   5.305   4.873   8.356  0.1493  0.2973 -0.1304
  917loPI    C113989   4.948   8.077   5.815  0.0722 -0.0761 -0.0724
  917loPI    C213990   5.064   8.379   5.580  0.0396 -0.0960 -0.1142
  917loPI    C313991   4.681   8.264   5.583 -0.0333  0.1420  0.2187
  917loPI   PO413992   5.008   8.174   6.052 -0.0299  0.2123  0.1830
  917loPI   GL113993   4.975   8.231   6.448  0.1150 -0.1320  0.1225
  917loPI   GL213994   5.279   8.349   6.445  0.2670 -0.5586 -0.0142
  917loPI   C1A13995   4.930   8.402   6.835 -0.0369  0.3809  0.0869
  917loPI   C2A13996   5.134   8.541   7.181 -0.0681  0.2402 -0.2995
  917loPI   C3A13997   5.013   8.480   7.628  0.0846  0.2722 -0.2673
  917loPI   C4A13998   4.999   8.388   8.082  0.3519  0.0504  0.2152
  917loPI   C5A13999   4.975   8.336   8.463 -0.0496  0.0329 -0.1059
  917loPI   C6A14000   5.452   8.515   8.593 -0.0285  0.1298 -0.0666
  917loPI   C1B14001   5.450   8.545   6.827 -0.0768  0.0039  0.3359
  917loPI   C2B14002   5.608   8.391   7.184 -0.0804 -0.0872 -0.1885
  917loPI   C3B14003   5.553   8.449   7.609 -0.2168  0.3079  0.1021
  917loPI   C4B14004   5.502   8.418   8.072 -0.0520 -0.0367 -0.2779
  918loPI    C114005   8.054  10.712   5.629  0.0352  0.1837 -0.2894
  918loPI    C214006   7.703  10.885   5.711  0.1029  0.3107 -0.2647
  918loPI    C314007   7.713  10.531   5.525 -0.0597 -0.0257  0.3383
  918loPI   PO414008   8.224  10.743   5.790  0.0476  0.2547 -0.1046
  918loPI   GL114009   8.278  10.988   6.145  0.1456 -0.0201 -0.0963
  918loPI   GL214010   7.993  11.098   6.345  0.1491  0.0445  0.2926
  918loPI   C1A14011   8.406  10.823   6.562 -0.2811 -0.0943 -0.0133
  918loPI   C2A14012   8.390  10.734   7.053  0.0308 -0.0428  0.0453
  918loPI   C3A14013   8.349  10.813   7.471  0.2704  0.0829  0.1062
  918loPI   C4A14014   8.264  10.890   7.927 -0.1392  0.1485 -0.2506
  918loPI   C5A14015   8.214  11.102   8.412  0.1460 -0.1883 -0.0696
  918loPI   C6A14016   8.127  11.138   8.773  0.2306 -0.1463 -0.2338
  918loPI   C1B14017   8.146  11.242   6.668 -0.0066  0.0439 -0.1261
  918loPI   C2B14018   8.171  11.220   7.095  0.0298 -0.3738 -0.1467
  918loPI   C3B14019   8.043  11.274   7.554  0.0123 -0.2343 -0.0353
  918loPI   C4B14020   7.926  11.309   8.029  0.0890 -0.1686 -0.0360
  919loPI    C114021  10.902  12.966   5.850  0.1750 -0.0907 -0.1678
  919loPI    C214022  10.718  13.257   5.647  0.0769 -0.0168  0.0237
  919loPI    C314023  11.091  13.149   5.549  0.0239  0.0030 -0.2066
  919loPI   PO414024  10.821  12.988   6.098  0.0719 -0.2008 -0.1332
  919loPI   GL114025  10.793  12.739   6.425 -0.0326 -0.0317  0.0194
  919loPI   GL214026  10.727  12.374   6.415  0.1565 -0.0640 -0.0656
  919loPI   C1A14027  10.870  12.721   6.935  0.0593  0.1681  0.0075
  919loPI   C2A14028  10.836  12.747   7.360  0.0120 -0.0748 -0.0772
  919loPI   C3A14029  10.873  12.744   7.741 -0.0680 -0.0109  0.2334
  919loPI   C4A14030  10.804  12.854   8.094  0.1219  0.0346  0.4575
  919loPI   C5A14031  10.510  12.748   8.383  0.1965  0.0717  0.0318
  919loPI   C6A14032  10.450  12.396   8.777  0.0229  0.1339 -0.0255
  919loPI   C1B14033  10.653  12.261   6.786  0.0872  0.0145 -0.0587
  919loPI   C2B14034  10.639  12.295   7.253  0.0553 -0.0254  0.1070
  919loPI   C3B14035  10.603  12.254   7.724 -0.3143 -0.2129  0.1590
  919loPI   C4B14036  10.565  12.359   8.146 -0.0314  0.0455 -0.4358
  920loPI    C114037  12.598   2.101   5.858 -0.3850 -0.0185  0.1155
  920loPI    C214038  12.534   1.710   5.804  0.2096 -0.1040 -0.0325
  920loPI    C314039  12.735   1.920   5.528  0.2753  0.2107  0.2489
  920loPI   PO414040  12.494   2.173   6.127 -0.0541 -0.1072  0.0887
  920loPI   GL114041  12.487   2.228   6.563  0.0638 -0.1842 -0.1217
  920loPI   GL214042  12.751   2.420   6.526 -0.3447 -0.0235  0.2412
  920loPI   C1A14043  12.594   2.251   6.995 -0.3643 -0.4145 -0.2161
  920loPI   C2A14044  12.482   2.212   7.387  0.4398 -0.0478  0.0637
  920loPI   C3A14045  12.501   2.158   7.866 -0.1357  0.0512 -0.0396
  920loPI   C4A14046  12.513   2.256   8.390 -0.0510 -0.1862 -0.0738
  920loPI   C5A14047  12.678   2.092   8.772 -0.0226 -0.0041  0.0727
  920loPI   C6A14048  12.792   1.862   9.215  0.1631  0.0446  0.5271
  920loPI   C1B14049  12.853   2.669   6.856  0.3574  0.1040  0.0663
  920loPI   C2B14050  12.818   2.694   7.328  0.5375  0.1640 -0.0503
  920loPI   C3B14051  12.783   2.787   7.707  0.0890 -0.2908 -0.1461
  920loPI   C4B14052  12.806   2.780   8.205 -0.2869  0.1681 -0.2380
  921loPI    C114053  12.686  11.046   6.101 -0.0132 -0.1172  0.1427
  921loPI    C214054  12.326  11.049   5.927  0.0643  0.0436 -0.0184
  921loPI    C314055  12.616  11.290   5.792  0.1565  0.0987  0.2710
  921loPI   PO414056  12.679  10.871   6.229 -0.0925  0.2096  0.3380
  921loPI   GL114057  12.858  10.628   6.364  0.1978 -0.1051 -0.0800
  921loPI   GL214058  12.449  10.564   6.483  0.1897  0.0604 -0.0208
  921loPI   C1A14059  12.809  10.565   6.821 -0.1724 -0.0341  0.1904
  921loPI   C2A14060  12.799  10.489   7.167  0.1247  0.1872 -0.0994
  921loPI   C3A14061  12.672  10.585   7.639  0.1663 -0.2670 -0.0322
  921loPI   C4A14062  12.695  10.503   8.032  0.1165  0.0639 -0.2006
  921loPI   C5A14063  12.564  10.391   8.474 -0.1699  0.2328 -0.0405
  921loPI   C6A14064  12.544  10.317   8.940  0.0983  0.0634  0.1540
  921loPI   C1B14065  12.278  10.507   6.840  0.1479 -0.3050  0.0903
  921loPI   C2B14066  12.201  10.517   7.254 -0.0865  0.0411  0.1870
  921loPI   C3B14067  12.178  10.604   7.736  0.0447 -0.2977  0.1583
  921loPI   C4B14068  12.191  10.634   8.145  0.1078  0.0941  0.1544
  922loPI    C114069   0.111   0.621   5.868  0.1219  0.0503  0.0305
  922loPI    C214070   0.356   0.796   5.605  0.2059 -0.3278 -0.1490
  922loPI    C314071   0.021   0.618   5.479 -0.2064  0.2417  0.1016
  922loPI   PO414072   0.131   0.763   6.025  0.0180  0.1839  0.1682
  922loPI   GL114073   0.280   0.882   6.383 -0.2207 -0.0231  0.0313
  922loPI   GL214074   0.057   0.729   6.576  0.3928 -0.4890 -0.0570
  922loPI   C1A14075   0.552   0.991   6.727  0.1315  0.0560 -0.1669
  922loPI   C2A14076   0.619   1.105   7.206  0.1374  0.0723  0.0161
  922loPI   C3A14077   0.602   1.103   7.620  0.3183  0.2490 -0.3225
  922loPI   C4A14078   0.583   1.122   8.090 -0.0590  0.1436 -0.4304
  922loPI   C5A14079   0.591   1.089   8.598 -0.0705 -0.0407 -0.0848
  922loPI   C6A14080   0.565   1.334   8.997  0.0403  0.5088  0.4939
  922loPI   C1B14081  -0.144   0.620   6.945 -0.0019 -0.0964 -0.1095
  922loPI   C2B14082  -0.192   0.601   7.350 -0.2433  0.1772  0.4312
  922loPI   C3B14083  -0.152   0.562   7.773 -0.0426 -0.3498 -0.0713
  922loPI   C4B14084  -0.116   0.569   8.170 -0.2154 -0.0888  0.0398
  923loPI    C114085   6.791  11.978   5.930 -0.2421  0.4413  0.1408
  923loPI    C214086   6.405  11.938   5.835 -0.1686  0.0840 -0.0215
  923loPI    C314087   6.687  11.867   5.560  0.0216 -0.0143  0.1959
  923loPI   PO414088   6.770  11.939   6.218 -0.0232  0.1030 -0.1695
  923loPI   GL114089   6.784  11.732   6.601 -0.1474  0.0240 -0.3693
  923loPI   GL214090   6.998  11.996   6.655 -0.3562  0.1359 -0.2097
  923loPI   C1A14091   6.608  11.520   7.040  0.0805  0.0775 -0.1958
  923loPI   C2A14092   6.642  11.613   7.491 -0.0896  0.0943 -0.3491
  923loPI   C3A14093   6.573  11.641   7.964 -0.1965  0.1303 -0.1857
  923loPI   C4A14094   6.509  11.650   8.405 -0.0053  0.1647 -0.2027
  923loPI   C5A14095   6.617  11.918   8.746  0.0313  0.2345  0.0458
  923loPI   C6A14096   6.392  12.254   8.976 -0.2139  0.1882 -0.1239
  923loPI   C1B14097   6.928  11.894   7.116  0.2180  0.2994  0.0421
  923loPI   C2B14098   6.888  12.036   7.661  0.0532  0.0224 -0.0592
  923loPI   C3B14099   6.867  12.077   8.114 -0.2489 -0.2389  0.0704
  923loPI   C4B14100   7.073  12.153   8.543  0.5259  0.0647 -0.2212
  924loPI    C114101   4.576   6.549   5.814  0.0980 -0.0125  0.1462
  924loPI    C214102   4.933   6.677   5.686  0.1337 -0.1937  0.0611
  924loPI    C314103   4.776   6.341   5.536 -0.0627 -0.1272  0.1151
  924loPI   PO414104   4.605   6.666   6.062  0.2792  0.2262 -0.3815
  924loPI   GL114105   4.847   6.917   6.437  0.0369  0.1763 -0.2480
  924loPI   GL214106   4.798   6.601   6.518 -0.2941  0.2139  0.4074
  924loPI   C1A14107   4.796   7.090   6.904 -0.0228 -0.0236 -0.1733
  924loPI   C2A14108   4.837   7.079   7.381 -0.0668  0.0558  0.0542
  924loPI   C3A14109   4.894   7.118   7.792  0.2129 -0.0734 -0.2689
  924loPI   C4A14110   4.782   7.104   8.242 -0.0484  0.1917 -0.1342
  924loPI   C5A14111   4.505   7.126   8.543 -0.1395  0.3152 -0.2481
  924loPI   C6A14112   4.267   7.213   8.947  0.0976  0.0617  0.1955
  924loPI   C1B14113   4.608   6.592   7.002  0.0464 -0.0019 -0.2142
  924loPI   C2B14114   4.601   6.644   7.432  0.1307  0.1258  0.1052
  924loPI   C3B14115   4.539   6.640   7.881 -0.2607 -0.1961  0.3339
  924loPI   C4B14116   4.353   6.743   8.321 -0.0842  0.1838  0.2290
  925loPI    C114117   1.036   8.105   5.941 -0.0036  0.2653 -0.0105
  925loPI    C214118   1.416   8.045   6.049 -0.0219 -0.0524 -0.1115
  925loPI    C314119   1.333   8.242   5.711  0.0460  0.2521  0.0455
  925loPI   PO414120   0.883   8.091   6.186 -0.2466  0.1618 -0.3234
  925loPI   GL114121   0.786   8.307   6.584 -0.1419  0.3818  0.1662
  925loPI   GL214122   0.708   8.581   6.437 -0.0963 -0.1776 -0.1950
  925loPI   C1A14123   0.848   8.415   7.068  0.1890  0.1860 -0.0943
  925loPI   C2A14124   0.843   8.396   7.517  0.2287 -0.1488  0.0805
  925loPI   C3A14125   0.789   8.463   7.904  0.0195  0.1153  0.0530
  925loPI   C4A14126   0.736   8.464   8.367 -0.0404 -0.0794 -0.2635
  925loPI   C5A14127   0.846   8.668   8.659 -0.1200  0.0645 -0.1679
  925loPI   C6A14128   1.064   8.998   8.839  0.1227 -0.0374 -0.1468
  925loPI   C1B14129   0.638   8.831   6.767 -0.1006 -0.3746  0.5343
  925loPI   C2B14130   0.529   8.879   7.228 -0.0249  0.1095  0.1907
  925loPI   C3B14131   0.565   8.895   7.629  0.0486 -0.0554 -0.1698
  925loPI   C4B14132   0.535   8.926   8.044  0.0536  0.2237  0.1699
  926loPI    C114133   8.541  13.315   5.945  0.0965 -0.1018 -0.2401
  926loPI    C214134   8.485  12.938   5.825 -0.1103 -0.1158 -0.1043
  926loPI    C314135   8.382  13.242   5.586 -0.0592 -0.1446 -0.1632
  926loPI   PO414136   8.391  13.296   6.258  0.0365  0.2703  0.0915
  926loPI   GL114137   8.312  13.366   6.619  0.0105  0.0024 -0.0971
  926loPI   GL214138   8.565  13.107   6.656 -0.3613 -0.3674 -0.0097
  926loPI   C1A14139   8.192  13.549   6.950 -0.1080  0.3566 -0.0814
  926loPI   C2A14140   8.148  13.653   7.297  0.0503 -0.2613 -0.4631
  926loPI   C3A14141   8.025  13.662   7.676 -0.1272 -0.1880 -0.0819
  926loPI   C4A14142   7.955  13.667   8.144  0.1576 -0.0226 -0.0365
  926loPI   C5A14143   7.620  13.524   8.362  0.1234 -0.2210  0.0953
  926loPI   C6A14144   7.290  13.269   8.433  0.3335  0.2128  0.2971
  926loPI   C1B14145   8.526  13.135   7.126  0.0903 -0.1068 -0.2021
  926loPI   C2B14146   8.488  13.244   7.571  0.1571  0.0085  0.2476
  926loPI   C3B14147   8.420  13.186   7.949  0.0253 -0.1374 -0.2058
  926loPI   C4B14148   8.222  13.269   8.269  0.1480 -0.1613  0.0716
  927loPI    C114149  11.117   4.045   5.780 -0.0725  0.1664  0.0881
  927loPI    C214150  10.723   4.115   5.796 -0.1121 -0.0619  0.1414
  927loPI    C314151  10.961   4.359   5.587 -0.3302 -0.1229 -0.1855
  927loPI   PO414152  11.118   3.995   6.004 -0.1290 -0.0015  0.0906
  927loPI   GL114153  11.332   3.910   6.304 -0.4416 -0.2184 -0.1453
  927loPI   GL214154  11.541   4.169   6.609 -0.2838  0.0098 -0.2907
  927loPI   C1A14155  11.254   3.711   6.677  0.2685 -0.2140  0.0122
  927loPI   C2A14156  11.258   3.554   7.124  0.0944  0.1103  0.4361
  927loPI   C3A14157  11.175   3.432   7.522  0.0827 -0.0856  0.2984
  927loPI   C4A14158  11.150   3.555   7.929 -0.3256 -0.0971  0.2168
  927loPI   C5A14159  11.223   3.517   8.367  0.1807  0.0083  0.0971
  927loPI   C6A14160  11.192   3.430   8.758 -0.0668  0.0765 -0.1303
  927loPI   C1B14161  11.487   4.031   6.979 -0.0978  0.1871 -0.1267
  927loPI   C2B14162  11.468   4.073   7.423 -0.0389 -0.2314 -0.2403
  927loPI   C3B14163  11.363   3.989   7.827 -0.2407 -0.3856  0.1504
  927loPI   C4B14164  11.434   3.971   8.249  0.3525  0.2195  0.1590
  928loPI    C114165   2.479  12.570   6.108 -0.0610  0.0907 -0.1893
  928loPI    C214166   2.849  12.495   5.976 -0.0586 -0.1240 -0.0666
  928loPI    C314167   2.560  12.591   5.717  0.0138 -0.2512 -0.1959
  928loPI   PO414168   2.481  12.464   6.344 -0.1611 -0.1925 -0.0409
  928loPI   GL114169   2.346  12.572   6.683 -0.1146  0.2017 -0.3343
  928loPI   GL214170   2.493  12.853   6.675  0.0288 -0.1251 -0.1438
  928loPI   C1A14171   2.389  12.334   7.073 -0.1697 -0.5777 -0.1182
  928loPI   C2A14172   2.424  12.295   7.495  0.1820  0.0816  0.0653
  928loPI   C3A14173   2.343  12.278   7.981  0.1091  0.1648  0.2404
  928loPI   C4A14174   2.360  12.109   8.361 -0.1087  0.0073 -0.0380
  928loPI   C5A14175   2.527  12.218   8.750 -0.0268 -0.1385 -0.0793
  928loPI   C6A14176   2.805  11.902   8.992 -0.0378 -0.0244 -0.6019
  928loPI   C1B14177   2.669  12.758   7.009  0.2109 -0.1236  0.0713
  928loPI   C2B14178   2.567  12.771   7.479 -0.0719 -0.1611  0.1082
  928loPI   C3B14179   2.611  12.726   7.913  0.1608  0.0402  0.0737
  928loPI   C4B14180   2.582  12.718   8.377 -0.0744  0.1175  0.2613
  929loPI    C114181   5.566   9.254   5.641  0.1009 -0.2210 -0.0335
  929loPI    C214182   5.833   9.046   5.428 -0.0562 -0.3526 -0.1046
  929loPI    C314183   5.497   9.177   5.254  0.0341 -0.0496 -0.0566
  929loPI   PO414184   5.527   9.160   5.874 -0.1036  0.1313  0.0676
  929loPI   GL114185   5.365   8.852   6.229  0.1595 -0.0648  0.2496
  929loPI   GL214186   5.156   8.873   6.578 -0.2584  0.2282 -0.0110
  929loPI   C1A14187   5.736   8.939   6.564  0.0304  0.1520 -0.2883
  929loPI   C2A14188   5.795   8.946   7.060 -0.0276  0.0932 -0.1082
  929loPI   C3A14189   5.774   8.865   7.474 -0.0088 -0.0460  0.3431
  929loPI   C4A14190   5.848   8.908   7.859  0.1035 -0.1238  0.1523
  929loPI   C5A14191   5.765   8.842   8.287  0.0758 -0.0350  0.1101
  929loPI   C6A14192   5.530   9.033   8.631  0.1060 -0.1721 -0.0126
  929loPI   C1B14193   5.275   9.003   7.020 -0.0672  0.0328 -0.0401
  929loPI   C2B14194   5.273   8.942   7.425  0.0970 -0.0574  0.0502
  929loPI   C3B14195   5.254   8.868   7.838  0.2208 -0.2414  0.0066
  929loPI   C4B14196   5.230   8.832   8.271  0.0686  0.0074 -0.0681
  930loPI    C114197  15.795  14.559   6.066 -0.0234 -0.2719 -0.0262
  930loPI    C214198  15.793  14.589   5.667 -0.0383  0.0626 -0.0038
  930loPI    C314199  16.043  14.334   5.848  0.2641  0.2072 -0.2094
  930loPI   PO414200  15.872  14.749   6.185  0.1792 -0.0004 -0.2587
  930loPI   GL114201  15.947  14.752   6.565 -0.2570 -0.2293 -0.1751
  930loPI   GL214202  15.603  14.740   6.686  0.0943 -0.1032 -0.0191
  930loPI   C1A14203  16.078  14.664   7.036 -0.4409  0.0048  0.0098
  930loPI   C2A14204  16.122  14.746   7.467  0.1831  0.3387  0.0688
  930loPI   C3A14205  16.027  14.882   7.921 -0.4009 -0.2018 -0.2423
  930loPI   C4A14206  16.048  14.804   8.340 -0.2082  0.0794  0.0630
  930loPI   C5A14207  16.111  14.660   8.720  0.3154  0.2921  0.0599
  930loPI   C6A14208  15.805  14.591   9.034  0.1005  0.3188  0.0488
  930loPI   C1B14209  15.596  14.696   7.183 -0.0484  0.0613 -0.1154
  930loPI   C2B14210  15.544  14.711   7.621  0.2046  0.0274 -0.1091
  930loPI   C3B14211  15.549  14.686   8.013 -0.0094 -0.1659  0.0604
  930loPI   C4B14212  15.495  14.684   8.414  0.1032  0.0969  0.0698
  931loPI    C114213  14.094   1.009   6.168 -0.1762 -0.1079 -0.1585
  931loPI    C214214  14.479   0.962   6.070 -0.0498 -0.0114  0.2704
  931loPI    C314215  14.205   1.021   5.784  0.2565 -0.0468 -0.0363
  931loPI   PO414216  14.113   0.926   6.387  0.2506  0.1360  0.0217
  931loPI   GL114217  14.329   0.801   6.649  0.2991 -0.0077  0.2347
  931loPI   GL214218  14.165   0.467   6.724 -0.2974 -0.0100 -0.0292
  931loPI   C1A14219  14.294   0.995   7.004  0.2928  0.0921 -0.0378
  931loPI   C2A14220  14.355   1.065   7.475 -0.1907 -0.0630 -0.0993
  931loPI   C3A14221  14.373   1.035   7.866 -0.1166  0.1306  0.0983
  931loPI   C4A14222  14.394   0.975   8.281  0.2669 -0.2060  0.1970
  931loPI   C5A14223  14.440   0.780   8.646  0.1550  0.1841 -0.2151
  931loPI   C6A14224  14.344   0.367   8.737  0.0338 -0.0111  0.1184
  931loPI   C1B14225  14.038   0.457   7.081 -0.3914 -0.0218  0.1387
  931loPI   C2B14226  14.101   0.483   7.455 -0.1681 -0.2203 -0.3461
  931loPI   C3B14227  14.062   0.659   7.906  0.1603 -0.1299 -0.2373
  931loPI   C4B14228  14.123   0.573   8.258  0.0233  0.1803 -0.2268
  932loPI    C114229  14.658   3.553   5.869  0.0421 -0.1702  0.1961
  932loPI    C214230  14.817   3.886   5.714  0.0229 -0.1521  0.2154
  932loPI    C314231  14.795   3.553   5.493 -0.0346 -0.1168  0.1680
  932loPI   PO414232  14.583   3.633   6.074  0.1730  0.0263 -0.0939
  932loPI   GL114233  14.762   3.459   6.475  0.0003  0.0295  0.2141
  932loPI   GL214234  15.082   3.458   6.594 -0.0873  0.2726 -0.1048
  932loPI   C1A14235  14.780   3.837   6.717  0.2131  0.0908 -0.2593
  932loPI   C2A14236  14.841   3.855   7.174  0.0929  0.1129  0.1627
  932loPI   C3A14237  14.844   3.808   7.552  0.4021 -0.0744  0.1313
  932loPI   C4A14238  14.777   3.734   7.904 -0.1124 -0.1463  0.2577
  932loPI   C5A14239  14.713   3.670   8.342 -0.0758 -0.0352  0.2763
  932loPI   C6A14240  14.804   3.474   8.694  0.2680  0.1176  0.1259
  932loPI   C1B14241  15.025   3.388   6.974 -0.1295 -0.1791  0.1150
  932loPI   C2B14242  15.125   3.303   7.435  0.0201 -0.0120  0.0314
  932loPI   C3B14243  15.090   3.245   7.880 -0.1273 -0.4620 -0.0373
  932loPI   C4B14244  15.046   3.216   8.359  0.0156  0.4170 -0.1721
  933loPI    C114245   8.362   3.238   5.844 -0.2926 -0.1814 -0.0443
  933loPI    C214246   8.217   3.439   5.530  0.1943 -0.0839 -0.2161
  933loPI    C314247   8.479   3.142   5.474  0.1225 -0.2093  0.0886
  933loPI   PO414248   8.436   3.424   6.005 -0.0996  0.4720  0.0705
  933loPI   GL114249   8.645   3.457   6.344  0.0586  0.0947 -0.0957
  933loPI   GL214250   8.787   3.750   6.391  0.2258 -0.1336 -0.1192
  933loPI   C1A14251   8.625   3.424   6.759  0.0906  0.2536 -0.1204
  933loPI   C2A14252   8.687   3.515   7.157 -0.1112 -0.0569 -0.1992
  933loPI   C3A14253   8.566   3.561   7.599 -0.2726  0.0366 -0.2962
  933loPI   C4A14254   8.657   3.592   8.018  0.0323  0.0322  0.0228
  933loPI   C5A14255   8.755   3.761   8.346  0.1791  0.2352 -0.0639
  933loPI   C6A14256   9.218   3.925   8.447  0.0812 -0.1488  0.1350
  933loPI   C1B14257   8.801   3.890   6.787 -0.3135 -0.1623  0.0201
  933loPI   C2B14258   8.861   3.980   7.209 -0.0027  0.1381 -0.0526
  933loPI   C3B14259   8.796   4.043   7.620  0.2314 -0.1426 -0.0007
  933loPI   C4B14260   8.917   4.107   8.041  0.0464  0.0746  0.0279
  934loPI    C114261  16.068   2.407   6.043 -0.1685  0.1453 -0.0587
  934loPI    C214262  16.197   2.049   5.919 -0.2936  0.1343 -0.1582
  934loPI    C314263  16.189   2.358   5.665  0.0889  0.2831  0.0030
  934loPI   PO414264  16.019   2.304   6.337 -0.2911 -0.1168  0.0557
  934loPI   GL114265  16.196   2.508   6.642 -0.2413 -0.2873 -0.1829
  934loPI   GL214266  16.592   2.588   6.585  0.3530 -0.3946  0.1503
  934loPI   C1A14267  16.214   2.391   7.003 -0.1182  0.0489 -0.1422
  934loPI   C2A14268  16.154   2.536   7.498 -0.3138  0.4036  0.2672
  934loPI   C3A14269  16.116   2.403   7.959  0.0956  0.3510  0.0653
  934loPI   C4A14270  16.190   2.278   8.431  0.0366  0.1178  0.2488
  934loPI   C5A14271  15.946   2.288   8.720 -0.1858  0.3100 -0.2796
  934loPI   C6A14272  15.576   2.463   8.781  0.0737  0.0514 -0.0125
  934loPI   C1B14273  16.683   2.470   6.937 -0.3995 -0.0071  0.2469
  934loPI   C2B14274  16.669   2.343   7.371 -0.1108  0.0159  0.0559
  934loPI   C3B14275  16.673   2.484   7.778  0.0898 -0.0068  0.0450
  934loPI   C4B14276  16.800   2.380   8.187  0.1049  0.3153 -0.0078
  935loPI    C114277   0.002   5.421   6.231 -0.1709  0.0860  0.0163
  935loPI    C214278   0.064   5.570   5.865 -0.0573  0.2372  0.0962
  935loPI    C314279   0.347   5.349   6.042 -0.0830  0.2245  0.1217
  935loPI   PO414280  -0.048   5.563   6.362 -0.0817  0.0248 -0.0145
  935loPI   GL114281  -0.062   5.632   6.746  0.2199 -0.1552 -0.0883
  935loPI   GL214282   0.133   5.908   6.702 -0.3179  0.1049 -0.2050
  935loPI   C1A14283  -0.089   5.647   7.169  0.0255  0.0029 -0.0545
  935loPI   C2A14284  -0.062   5.621   7.654 -0.0745 -0.1014 -0.1224
  935loPI   C3A14285  -0.085   5.561   8.133  0.1770  0.1188  0.1810
  935loPI   C4A14286  -0.330   5.420   8.441  0.1053 -0.0980 -0.2796
  935loPI   C5A14287  -0.557   5.166   8.723  0.1647 -0.0174 -0.0565
  935loPI   C6A14288  -0.515   4.897   9.016  0.0307  0.3131 -0.2462
  935loPI   C1B14289   0.286   6.122   7.054 -0.2326  0.1654 -0.0342
  935loPI   C2B14290   0.114   6.125   7.398 -0.2686 -0.1071  0.0937
  935loPI   C3B14291   0.172   6.185   7.827  0.4302  0.1626  0.1672
  935loPI   C4B14292   0.265   6.052   8.159  0.0135 -0.2588 -0.2918
  936loPI    C114293  12.312  16.301   5.417 -0.0191  0.0892 -0.1832
  936loPI    C214294  12.217  15.915   5.464 -0.0719  0.1318  0.0729
  936loPI    C314295  12.593  16.019   5.373 -0.0382  0.0249  0.0888
  936loPI   PO414296  12.192  16.387   5.671 -0.0185 -0.1523 -0.2602
  936loPI   GL114297  12.376  16.468   6.094  0.0522 -0.0269  0.0920
  936loPI   GL214298  12.069  16.200   6.122 -0.2259  0.0760  0.0423
  936loPI   C1A14299  12.294  16.624   6.476 -0.1846  0.3209  0.0402
  936loPI   C2A14300  12.310  16.410   6.905 -0.1429  0.2007 -0.0954
  936loPI   C3A14301  12.285  16.543   7.268 -0.2651 -0.3896 -0.1426
  936loPI   C4A14302  12.341  16.531   7.757 -0.1999 -0.1027  0.1311
  936loPI   C5A14303  12.305  16.539   8.119 -0.1154  0.0123  0.1283
  936loPI   C6A14304  12.765  16.420   8.420 -0.0674 -0.1578  0.2633
  936loPI   C1B14305  11.827  16.294   6.495 -0.2816 -0.0527 -0.2819
  936loPI   C2B14306  11.737  16.413   6.818 -0.1136  0.1800 -0.1219
  936loPI   C3B14307  11.821  16.477   7.125 -0.3686  0.1370 -0.2580
  936loPI   C4B14308  11.861  16.541   7.542 -0.0715 -0.1878 -0.1687
  937loPI    C114309  13.510  16.889   5.591  0.0242  0.0852 -0.0368
  937loPI    C214310  13.563  16.496   5.543 -0.1934  0.0382  0.0932
  937loPI    C314311  13.266  16.682   5.350 -0.0488  0.1523 -0.0213
  937loPI   PO414312  13.567  16.921   5.801  0.0200  0.2635  0.3445
  937loPI   GL114313  13.430  17.017   6.312 -0.1422  0.0708  0.1575
  937loPI   GL214314  13.706  16.852   6.488  0.0524  0.1847  0.1166
  937loPI   C1A14315  13.122  17.018   6.732 -0.0601 -0.0801 -0.1203
  937loPI   C2A14316  13.043  16.954   7.174 -0.0862 -0.1571  0.0381
  937loPI   C3A14317  13.144  16.997   7.560 -0.0893 -0.1983  0.1688
  937loPI   C4A14318  13.194  16.894   7.925 -0.0870  0.2137 -0.0855
  937loPI   C5A14319  13.193  17.082   8.365 -0.0475  0.1035  0.0449
  937loPI   C6A14320  13.472  17.276   8.724 -0.0920 -0.1317 -0.1410
  937loPI   C1B14321  13.619  16.967   6.880 -0.2049  0.1792  0.0293
  937loPI   C2B14322  13.576  16.934   7.282  0.0771 -0.0055 -0.1488
  937loPI   C3B14323  13.640  16.960   7.658 -0.1641  0.0759 -0.1625
  937loPI   C4B14324  13.642  17.029   8.136  0.1937 -0.1113  0.0501
  938loPI    C114325  16.677   2.210   5.989 -0.0052 -0.0368  0.1042
  938loPI    C214326  16.955   2.485   5.905  0.1948 -0.2820 -0.0527
  938loPI    C314327  16.698   2.368   5.622  0.0212 -0.1595  0.0523
  938loPI   PO414328  16.570   2.249   6.263  0.1160  0.1708  0.0665
  938loPI   GL114329  16.497   2.083   6.700 -0.0175 -0.4169  0.0623
  938loPI   GL214330  16.882   2.078   6.596 -0.2435 -0.2882 -0.0692
  938loPI   C1A14331  16.466   1.925   7.118  0.0282 -0.0283 -0.4019
  938loPI   C2A14332  16.370   1.896   7.557 -0.0987 -0.1444 -0.2651
  938loPI   C3A14333  16.457   1.929   8.008  0.0481 -0.1412  0.2752
  938loPI   C4A14334  16.600   1.981   8.473 -0.2228  0.1050  0.0461
  938loPI   C5A14335  16.786   2.037   8.833 -0.2883 -0.0688  0.1222
  938loPI   C6A14336  16.738   2.142   9.198  0.1229  0.0215 -0.1886
  938loPI   C1B14337  16.952   2.034   7.082 -0.1859  0.0266 -0.0592
  938loPI   C2B14338  16.925   1.955   7.569 -0.0126  0.2471  0.0961
  938loPI   C3B14339  16.955   1.976   7.970  0.1173  0.0951  0.2412
  938loPI   C4B14340  17.101   1.983   8.319  0.3188  0.1950 -0.3090
  939loPI    C114341   0.041   2.263   5.802 -0.1267 -0.0521 -0.0262
  939loPI    C214342   0.177   2.274   5.426  0.0528  0.2894  0.0447
  939loPI    C314343  -0.214   2.318   5.499 -0.0300 -0.1206 -0.1209
  939loPI   PO414344   0.167   2.282   5.983 -0.1604  0.0643  0.1133
  939loPI   GL114345   0.095   2.276   6.465 -0.0129  0.0774 -0.0050
  939loPI   GL214346   0.391   2.382   6.588 -0.1767 -0.0324  0.1563
  939loPI   C1A14347   0.055   2.101   6.855 -0.0959 -0.1623  0.2314
  939loPI   C2A14348   0.037   1.997   7.287  0.0259 -0.0511  0.0093
  939loPI   C3A14349   0.038   2.057   7.728  0.0060  0.4931 -0.1144
  939loPI   C4A14350   0.200   1.957   8.174 -0.0922  0.1288 -0.3328
  939loPI   C5A14351   0.101   1.904   8.566 -0.0332  0.0806 -0.3025
  939loPI   C6A14352   0.358   1.863   8.914  0.0154 -0.3546  0.3762
  939loPI   C1B14353   0.302   2.505   6.987  0.0931 -0.1094 -0.1075
  939loPI   C2B14354   0.280   2.433   7.475 -0.0483 -0.0456  0.1318
  939loPI   C3B14355   0.333   2.612   7.808 -0.0154  0.0645 -0.2723
  939loPI   C4B14356   0.328   2.416   8.226  0.0625 -0.1392 -0.0586
  940loPI    C114357   6.916   3.869   5.765 -0.0573  0.0824  0.4686
  940loPI    C214358   6.822   3.929   5.381  0.1018 -0.2022  0.3817
  940loPI    C314359   6.896   4.241   5.620  0.2653 -0.0314  0.1141
  940loPI   PO414360   6.819   3.628   5.785  0.1826  0.1897  0.0721
  940loPI   GL114361   6.861   3.496   6.168  0.0497 -0.1264  0.1052
  940loPI   GL214362   6.465   3.600   6.260  0.1380  0.2254  0.1339
  940loPI   C1A14363   7.079   3.514   6.552  0.0884 -0.4693 -0.0565
  940loPI   C2A14364   7.077   3.584   6.904  0.1555 -0.1834  0.0925
  940loPI   C3A14365   7.040   3.437   7.270 -0.3131  0.2589  0.0376
  940loPI   C4A14366   7.022   3.611   7.656  0.0423  0.2526  0.1043
  940loPI   C5A14367   7.231   3.534   7.992 -0.1944  0.1862  0.0283
  940loPI   C6A14368   7.445   3.362   8.389 -0.2828  0.0786 -0.0211
  940loPI   C1B14369   6.588   3.624   6.661  0.2395  0.1761 -0.0458
  940loPI   C2B14370   6.575   3.640   7.041 -0.5637  0.0528  0.0253
  940loPI   C3B14371   6.491   3.626   7.501 -0.1379  0.1006 -0.0962
  940loPI   C4B14372   6.523   3.562   7.867  0.1915  0.0114  0.0755
  941loPI    C114373   2.132   1.918   5.816 -0.0085  0.0086 -0.1819
  941loPI    C214374   1.985   2.186   5.558  0.1012  0.0364 -0.2160
  941loPI    C314375   2.370   2.078   5.537  0.2387  0.4064  0.2433
  941loPI   PO414376   2.033   1.915   6.100  0.0803 -0.1463  0.0944
  941loPI   GL114377   2.150   1.951   6.515 -0.2452  0.1247  0.0466
  941loPI   GL214378   2.362   1.755   6.523 -0.2388  0.0078 -0.1041
  941loPI   C1A14379   2.079   2.061   6.988 -0.0905  0.1373  0.0710
  941loPI   C2A14380   2.044   2.016   7.427 -0.2824  0.0193 -0.2020
  941loPI   C3A14381   2.110   2.083   7.814  0.0789 -0.0733 -0.1717
  941loPI   C4A14382   2.053   2.155   8.219  0.0466  0.0090  0.3221
  941loPI   C5A14383   2.239   2.053   8.637  0.0873  0.1299 -0.0464
  941loPI   C6A14384   2.149   1.833   8.923  0.0190  0.2474  0.3361
  941loPI   C1B14385   2.361   1.675   6.927 -0.0309  0.1489  0.1673
  941loPI   C2B14386   2.331   1.600   7.373 -0.1279  0.4135  0.2743
  941loPI   C3B14387   2.344   1.614   7.777  0.0267  0.1732  0.0924
  941loPI   C4B14388   2.279   1.692   8.247 -0.2161  0.2300  0.2160
  942loPI    C114389   6.909  16.997   5.841  0.2093 -0.1293  0.0048
  942loPI    C214390   6.711  17.232   5.585  0.0009  0.0718  0.3422
  942loPI    C314391   6.943  16.937   5.447  0.0023  0.2617 -0.0785
  942loPI   PO414392   6.959  17.121   6.036  0.0955  0.0420  0.1574
  942loPI   GL114393   6.821  16.929   6.401 -0.1948 -0.1075 -0.2964
  942loPI   GL214394   7.135  17.112   6.512 -0.2618 -0.1760 -0.2445
  942loPI   C1A14395   6.945  16.824   6.859  0.0669  0.0793  0.0387
  942loPI   C2A14396   6.837  16.857   7.268 -0.0048  0.1789  0.2971
  942loPI   C3A14397   6.829  16.847   7.683  0.2726  0.1104 -0.1771
  942loPI   C4A14398   6.819  16.876   8.198  0.0402 -0.0514 -0.1266
  942loPI   C5A14399   6.615  17.029   8.559 -0.1407  0.2172  0.2754
  942loPI   C6A14400   6.514  16.911   8.996  0.1774  0.0195  0.0582
  942loPI   C1B14401   7.122  17.252   6.941 -0.1091  0.2135 -0.1450
  942loPI   C2B14402   7.098  17.274   7.391 -0.0837 -0.2667 -0.1908
  942loPI   C3B14403   7.093  17.329   7.868 -0.0666 -0.0781  0.0354
  942loPI   C4B14404   7.125  17.352   8.285  0.3081 -0.0301 -0.1376
  943loPI    C114405   6.354  16.751   5.866 -0.1268  0.0148  0.0268
  943loPI    C214406   6.648  16.522   5.721 -0.0532  0.1576 -0.0517
  943loPI    C314407   6.266  16.432   5.641 -0.0476 -0.1939  0.2859
  943loPI   PO414408   6.471  16.733   6.107  0.3423  0.0186 -0.1046
  943loPI   GL114409   6.337  16.664   6.472  0.3173  0.1495 -0.0703
  943loPI   GL214410   6.093  16.435   6.660  0.0699  0.0443 -0.0756
  943loPI   C1A14411   6.436  16.791   6.872 -0.4114  0.2144  0.0440
  943loPI   C2A14412   6.325  16.870   7.285  0.4047 -0.0867 -0.1017
  943loPI   C3A14413   6.346  16.814   7.682 -0.1084 -0.0468  0.1651
  943loPI   C4A14414   6.256  16.836   8.200  0.1652 -0.2502 -0.2029
  943loPI   C5A14415   6.163  16.877   8.659 -0.3756 -0.3668  0.1423
  943loPI   C6A14416   6.060  16.968   9.075  0.0672 -0.0504  0.4199
  943loPI   C1B14417   6.150  16.388   7.065 -0.2881 -0.0657  0.1353
  943loPI   C2B14418   6.110  16.427   7.455 -0.0274 -0.0999 -0.0060
  943loPI   C3B14419   6.120  16.403   7.960 -0.1397 -0.1304  0.0741
  943loPI   C4B14420   5.941  16.377   8.407 -0.0137 -0.0254  0.1105
  944loPI    C114421  17.353   9.939   5.990 -0.0948  0.0295  0.2352
  944loPI    C214422  17.274   9.730   5.659  0.2136  0.0321  0.1577
  944loPI    C314423  17.419  10.102   5.631 -0.0753  0.1581  0.2965
  944loPI   PO414424  17.231   9.806   6.145  0.2442 -0.2967 -0.3177
  944loPI   GL114425  16.951   9.754   6.614 -0.1264 -0.1185  0.0980
  944loPI   GL214426  17.325   9.813   6.646  0.1252  0.2297 -0.1195
  944loPI   C1A14427  16.934   9.740   7.094 -0.1519  0.0059 -0.4680
  944loPI   C2A14428  16.807   9.724   7.482  0.0919 -0.0888 -0.1070
  944loPI   C3A14429  16.831   9.718   7.841 -0.2057  0.2564  0.1895
  944loPI   C4A14430  16.936   9.786   8.209 -0.0093  0.3137 -0.1068
  944loPI   C5A14431  16.897   9.798   8.618 -0.2456 -0.1585  0.0411
  944loPI   C6A14432  16.798   9.815   9.060  0.0293  0.1836 -0.2128
  944loPI   C1B14433  17.475   9.749   7.086 -0.0788 -0.2422 -0.2099
  944loPI   C2B14434  17.557   9.757   7.596 -0.1044  0.1929 -0.1070
  944loPI   C3B14435  17.396   9.693   7.997  0.0054 -0.0029 -0.0265
  944loPI   C4B14436  17.389   9.726   8.387 -0.0683 -0.0814 -0.0463
  945loPI    C114437  17.041   1.617   5.810 -0.2956  0.0116 -0.0636
  945loPI    C214438  17.302   1.829   5.594 -0.0732 -0.0371  0.1524
  945loPI    C314439  16.922   1.951   5.624 -0.0662  0.0617 -0.1233
  945loPI   PO414440  17.063   1.586   6.026  0.1260  0.1513 -0.1190
  945loPI   GL114441  17.120   1.659   6.410 -0.2196  0.0960  0.1395
  945loPI   GL214442  17.380   1.769   6.507 -0.1683 -0.1691 -0.0473
  945loPI   C1A14443  16.808   1.625   6.846 -0.1062  0.3017 -0.0346
  945loPI   C2A14444  16.674   1.436   7.222 -0.0019  0.2710  0.0807
  945loPI   C3A14445  16.652   1.516   7.616 -0.0473  0.5648 -0.1714
  945loPI   C4A14446  16.729   1.444   8.061 -0.0463  0.2197 -0.0874
  945loPI   C5A14447  16.825   1.498   8.526 -0.0608  0.0227 -0.0822
  945loPI   C6A14448  17.103   1.672   8.793 -0.0074 -0.0633 -0.2422
  945loPI   C1B14449  17.302   1.599   6.896  0.3147 -0.0296  0.1258
  945loPI   C2B14450  17.182   1.563   7.300  0.2861 -0.0834  0.0991
  945loPI   C3B14451  17.198   1.513   7.799 -0.2695  0.0511 -0.0980
  945loPI   C4B14452  17.290   1.465   8.255 -0.1619  0.2361  0.0361
  946loPI    C114453   1.382  16.161   5.906 -0.2546  0.0052  0.1194
  946loPI    C214454   1.261  16.527   5.800  0.0286  0.0695  0.0084
  946loPI    C314455   1.561  16.351   5.604 -0.0869 -0.2128  0.0794
  946loPI   PO414456   1.448  16.117   6.195  0.1642 -0.0991  0.2115
  946loPI   GL114457   1.501  16.199   6.583 -0.1451  0.0183 -0.4482
  946loPI   GL214458   1.863  16.400   6.521  0.0702 -0.1817  0.2374
  946loPI   C1A14459   1.470  16.345   6.891 -0.0785 -0.2752  0.2316
  946loPI   C2A14460   1.436  16.307   7.394 -0.0472  0.1184  0.0428
  946loPI   C3A14461   1.364  16.313   7.823 -0.2365 -0.4483  0.1968
  946loPI   C4A14462   1.256  16.351   8.257 -0.2879  0.0185  0.1190
  946loPI   C5A14463   1.223  16.112   8.625  0.1016  0.1298 -0.2141
  946loPI   C6A14464   1.491  15.825   8.997 -0.2199 -0.1175  0.1145
  946loPI   C1B14465   1.954  16.203   6.950  0.3095 -0.2486  0.2004
  946loPI   C2B14466   1.945  16.380   7.346  0.0389 -0.1092  0.1065
  946loPI   C3B14467   1.887  16.299   7.762  0.3071 -0.0235 -0.0805
  946loPI   C4B14468   1.806  16.328   8.201  0.0553 -0.2712 -0.0256
  947loPI    C114469   5.628   1.306   5.722 -0.1619  0.0937  0.0007
  947loPI    C214470   5.378   1.200   5.428  0.0337 -0.3017 -0.0301
  947loPI    C314471   5.773   1.207   5.363  0.0399  0.3465  0.0095
  947loPI   PO414472   5.619   1.170   5.876 -0.1253  0.1249  0.0563
  947loPI   GL114473   5.615   1.287   6.296  0.0368 -0.3193 -0.0318
  947loPI   GL214474   5.282   1.236   6.432  0.1913 -0.1377  0.0910
  947loPI   C1A14475   5.830   1.276   6.637  0.0853  0.1698 -0.1291
  947loPI   C2A14476   5.882   1.304   7.123 -0.2994  0.3903 -0.2457
  947loPI   C3A14477   5.783   1.219   7.496  0.2102 -0.1674 -0.0113
  947loPI   C4A14478   5.754   1.179   7.925  0.3418  0.0794 -0.2133
  947loPI   C5A14479   5.706   1.285   8.345 -0.0533  0.1598  0.1527
  947loPI   C6A14480   5.829   1.356   8.813  0.3457  0.0758  0.2500
  947loPI   C1B14481   5.288   1.280   6.790 -0.0882 -0.4051 -0.4271
  947loPI   C2B14482   5.332   1.267   7.283  0.0153 -0.1484  0.0138
  947loPI   C3B14483   5.252   1.208   7.751 -0.2020 -0.0353  0.0505
  947loPI   C4B14484   5.237   1.261   8.079  0.2488 -0.0930  0.0697
  948loPI    C114485   4.711   5.932   5.822  0.0253  0.0454  0.5369
  948loPI    C214486   4.363   6.108   5.734  0.0889  0.0362  0.2581
  948loPI    C314487   4.372   5.719   5.827  0.0247  0.0376  0.2710
  948loPI   PO414488   4.776   6.109   6.027  0.0801  0.0856  0.1663
  948loPI   GL114489   5.026   6.080   6.485 -0.0516 -0.1169  0.2337
  948loPI   GL214490   5.201   5.853   6.515  0.3103  0.3506 -0.0974
  948loPI   C1A14491   4.884   6.138   6.947 -0.1346 -0.3028 -0.6518
  948loPI   C2A14492   4.874   6.240   7.356  0.0259  0.2828 -0.0112
  948loPI   C3A14493   4.782   6.239   7.783  0.2223  0.1737  0.0306
  948loPI   C4A14494   4.733   6.253   8.220 -0.3180 -0.0605 -0.0496
  948loPI   C5A14495   4.525   6.309   8.558 -0.0836 -0.2127  0.2466
  948loPI   C6A14496   4.422   6.038   8.931  0.1543  0.1899 -0.0568
  948loPI   C1B14497   5.233   5.757   6.911 -0.0234 -0.3558 -0.3685
  948loPI   C2B14498   5.161   5.791   7.317 -0.2001 -0.0991 -0.0855
  948loPI   C3B14499   5.026   5.731   7.734  0.1703  0.0718 -0.0796
  948loPI   C4B14500   5.072   5.820   8.176 -0.0834 -0.1431 -0.0413
  949loPI    C114501  10.758   8.538   5.665 -0.2151  0.0989 -0.0103
  949loPI    C214502  10.919   8.187   5.558 -0.1155  0.1165  0.0798
  949loPI    C314503  11.051   8.526   5.393 -0.0777  0.1286  0.1342
  949loPI   PO414504  10.738   8.600   5.919  0.3206  0.1777 -0.0440
  949loPI   GL114505  10.868   8.787   6.324 -0.1829  0.0321 -0.0812
  949loPI   GL214506  10.930   9.044   6.056 -0.2829 -0.2962 -0.2016
  949loPI   C1A14507  10.759   8.727   6.783  0.1679  0.2286 -0.1511
  949loPI   C2A14508  10.747   8.629   7.212  0.1734 -0.2794  0.0239
  949loPI   C3A14509  10.739   8.699   7.665 -0.0537  0.0116  0.0793
  949loPI   C4A14510  10.662   8.718   8.087 -0.2238  0.2297  0.0887
  949loPI   C5A14511  10.371   8.675   8.391  0.2316 -0.0979 -0.0263
  949loPI   C6A14512  10.489   8.899   8.735  0.1268  0.0349  0.1734
  949loPI   C1B14513  11.140   9.162   6.453  0.3826  0.1292  0.1888
  949loPI   C2B14514  11.053   9.167   6.873  0.0252  0.0492 -0.0928
  949loPI   C3B14515  11.005   9.091   7.347 -0.0701 -0.0515 -0.0868
  949loPI   C4B14516  10.908   9.224   7.737  0.0591  0.0040  0.0626
  950loPI    C114517   7.267  13.281   6.188 -0.2006  0.0919 -0.1943
  950loPI    C214518   7.547  13.530   6.050 -0.1383  0.0227 -0.1936
  950loPI    C314519   7.180  13.533   5.891 -0.1051  0.0362 -0.2699
  950loPI   PO414520   7.398  13.253   6.457 -0.1442  0.1346  0.1200
  950loPI   GL114521   7.619  13.192   6.763 -0.0477 -0.1933  0.3826
  950loPI   GL214522   7.872  13.125   6.781  0.1206  0.1916  0.0886
  950loPI   C1A14523   7.412  13.120   7.163 -0.0990 -0.2402 -0.1502
  950loPI   C2A14524   7.193  13.266   7.492 -0.2231  0.0937 -0.1124
  950loPI   C3A14525   6.952  13.499   7.778 -0.3279  0.1751  0.0593
  950loPI   C4A14526   7.140  13.672   8.149 -0.3502  0.0936 -0.1889
  950loPI   C5A14527   7.287  13.761   8.613 -0.2987 -0.1173  0.0044
  950loPI   C6A14528   7.380  13.616   9.029  0.1031  0.0898 -0.1025
  950loPI   C1B14529   7.962  13.180   7.221  0.2687 -0.0059  0.2837
  950loPI   C2B14530   8.001  13.124   7.593 -0.0891 -0.3661 -0.0438
  950loPI   C3B14531   7.842  13.114   7.922 -0.1555 -0.2983 -0.3071
  950loPI   C4B14532   7.785  13.051   8.390 -0.2519  0.0771 -0.1303
  951loPI    C114533   4.326   3.120   5.819  0.0965  0.1056 -0.0385
  951loPI    C214534   4.516   3.362   6.075  0.2383  0.1669 -0.1995
  951loPI    C314535   4.689   3.261   5.729  0.2456 -0.2863 -0.0703
  951loPI   PO414536   4.178   2.968   6.022 -0.0613  0.0259  0.2716
  951loPI   GL114537   4.362   2.918   6.345  0.0368 -0.0809 -0.2777
  951loPI   GL214538   4.131   3.042   6.558 -0.1682  0.0544  0.0446
  951loPI   C1A14539   4.418   2.628   6.610  0.0290  0.0996 -0.0147
  951loPI   C2A14540   4.489   2.467   7.128 -0.2058  0.1753 -0.1950
  951loPI   C3A14541   4.518   2.559   7.584  0.7005 -0.2399 -0.0047
  951loPI   C4A14542   4.490   2.590   8.036 -0.4059 -0.4398 -0.0105
  951loPI   C5A14543   4.438   2.530   8.387  0.1845  0.4847  0.2631
  951loPI   C6A14544   4.333   2.250   8.727 -0.0852 -0.3037 -0.0874
  951loPI   C1B14545   4.245   2.919   6.972 -0.0413  0.0609 -0.0216
  951loPI   C2B14546   4.188   3.010   7.431  0.1391 -0.0550 -0.0546
  951loPI   C3B14547   4.159   2.934   7.837 -0.1603  0.1242  0.1189
  951loPI   C4B14548   4.307   3.013   8.277  0.0472 -0.1813  0.0211
  952loPI    C114549   4.480   9.407   5.871 -0.2022  0.0131 -0.0090
  952loPI    C214550   4.308   9.698   5.657 -0.0322  0.0817 -0.0545
  952loPI    C314551   4.497   9.399   5.471 -0.0599  0.0325 -0.0039
  952loPI   PO414552   4.353   9.352   6.048  0.1127 -0.1635  0.0766
  952loPI   GL114553   4.562   9.049   6.395  0.2496  0.1072 -0.1544
  952loPI   GL214554   4.564   9.393   6.473 -0.1986  0.3401  0.0739
  952loPI   C1A14555   4.144   9.111   6.653 -0.0720  0.4721 -0.0898
  952loPI   C2A14556   3.988   9.140   7.073 -0.0835 -0.1360  0.2926
  952loPI   C3A14557   3.960   9.238   7.514  0.1115  0.1963  0.2328
  952loPI   C4A14558   3.884   9.313   7.926  0.1478  0.2433  0.2334
  952loPI   C5A14559   3.836   9.315   8.350 -0.3799 -0.1667  0.0415
  952loPI   C6A14560   4.083   9.230   8.687 -0.0405 -0.0426 -0.2438
  952loPI   C1B14561   4.517   9.274   7.005  0.0041  0.1103  0.1577
  952loPI   C2B14562   4.490   9.263   7.451 -0.1250  0.0735 -0.0846
  952loPI   C3B14563   4.424   9.276   7.970  0.0621  0.0429 -0.0069
  952loPI   C4B14564   4.550   9.325   8.388 -0.0714 -0.0333 -0.2845
  953loPI    C114565  14.488  14.791   6.085  0.0836 -0.1576  0.0738
  953loPI    C214566  14.802  14.607   6.251  0.2394  0.2973  0.3000
  953loPI    C314567  14.852  14.836   5.927  0.0140 -0.2007 -0.1002
  953loPI   PO414568  14.308  14.710   6.355 -0.3037 -0.3444 -0.2307
  953loPI   GL114569  14.538  14.636   6.722 -0.1116  0.0255  0.2361
  953loPI   GL214570  14.286  14.428   6.850 -0.1335  0.0162  0.2122
  953loPI   C1A14571  14.405  14.807   7.075  0.1529 -0.2389 -0.2511
  953loPI   C2A14572  14.366  14.788   7.448 -0.0806 -0.3374  0.2242
  953loPI   C3A14573  14.533  14.780   7.851 -0.1653 -0.0458 -0.0263
  953loPI   C4A14574  14.356  14.774   8.283 -0.0533  0.5161 -0.0519
  953loPI   C5A14575  14.191  14.887   8.607  0.1337  0.0687  0.0351
  953loPI   C6A14576  14.229  15.034   9.020 -0.2058  0.1492  0.0514
  953loPI   C1B14577  14.084  14.244   7.239  0.1336  0.0043 -0.0435
  953loPI   C2B14578  14.118  14.283   7.606  0.1004 -0.0505  0.0864
  953loPI   C3B14579  14.074  14.224   8.088 -0.0349  0.1046  0.1086
  953loPI   C4B14580  14.140  14.347   8.462 -0.0263 -0.2433  0.1346
  954loPI    C114581  12.164   4.824   5.999 -0.1269  0.1208 -0.0335
  954loPI    C214582  12.268   4.758   5.619 -0.0718 -0.2011  0.0346
  954loPI    C314583  12.263   5.131   5.763  0.3057 -0.1133 -0.1662
  954loPI   PO414584  12.241   4.678   6.154  0.0003  0.1385 -0.1937
  954loPI   GL114585  12.386   4.418   6.465 -0.0130 -0.3215 -0.1408
  954loPI   GL214586  12.501   4.762   6.575 -0.0721  0.3919  0.2684
  954loPI   C1A14587  12.204   4.474   6.807  0.0360 -0.0429 -0.0118
  954loPI   C2A14588  12.159   4.596   7.203  0.1232  0.1322 -0.2949
  954loPI   C3A14589  12.147   4.624   7.557 -0.1689  0.3682 -0.1656
  954loPI   C4A14590  12.174   4.610   7.955  0.4607  0.3692 -0.0411
  954loPI   C5A14591  12.142   4.554   8.363 -0.1853  0.0426 -0.1744
  954loPI   C6A14592  11.822   4.689   8.651 -0.0529 -0.2306 -0.3547
  954loPI   C1B14593  12.450   5.048   6.900  0.1367  0.1610  0.0147
  954loPI   C2B14594  12.414   5.012   7.381  0.1602 -0.2617  0.0593
  954loPI   C3B14595  12.485   5.015   7.770  0.0138 -0.1607  0.0532
  954loPI   C4B14596  12.356   5.009   8.195  0.3086 -0.2865 -0.0763
  955loPI    C114597   4.015   7.966   6.026 -0.1668 -0.0962  0.1531
  955loPI    C214598   3.743   8.068   5.751  0.1235 -0.0388 -0.1195
  955loPI    C314599   4.031   7.806   5.660  0.0583 -0.2362  0.2219
  955loPI   PO414600   4.065   8.109   6.207  0.0095 -0.1929 -0.0425
  955loPI   GL114601   4.317   8.099   6.507 -0.1052 -0.1872  0.0160
  955loPI   GL214602   4.268   7.865   6.585 -0.2048 -0.1637 -0.0158
  955loPI   C1A14603   4.457   8.319   6.922  0.2410 -0.1041 -0.1111
  955loPI   C2A14604   4.621   8.410   7.344 -0.0195  0.2189  0.3522
  955loPI   C3A14605   4.541   8.416   7.748  0.3967 -0.1811  0.0210
  955loPI   C4A14606   4.486   8.427   8.176  0.1578 -0.0012 -0.0590
  955loPI   C5A14607   4.557   8.382   8.613  0.1235 -0.0229  0.1227
  955loPI   C6A14608   4.274   8.191   8.938  0.1030  0.0549  0.2276
  955loPI   C1B14609   4.254   7.889   6.997 -0.2303  0.1279 -0.1047
  955loPI   C2B14610   4.224   7.945   7.437 -0.1347 -0.0806 -0.0279
  955loPI   C3B14611   4.307   7.984   7.901  0.3143  0.3345 -0.0904
  955loPI   C4B14612   4.236   7.907   8.364  0.1681 -0.1388 -0.1575
  956loPI    C114613   3.409   2.269   5.862  0.3111 -0.0430 -0.0649
  956loPI    C214614   3.206   2.586   5.728  0.3147 -0.0590 -0.1080
  956loPI    C314615   3.511   2.439   5.515  0.1795 -0.2214 -0.1923
  956loPI   PO414616   3.535   2.341   6.101 -0.0016 -0.0770  0.0643
  956loPI   GL114617   3.738   2.189   6.438 -0.1777  0.2800 -0.1143
  956loPI   GL214618   3.603   2.056   6.616 -0.0639  0.0649 -0.0951
  956loPI   C1A14619   3.977   2.452   6.765  0.0448 -0.3679  0.1643
  956loPI   C2A14620   4.010   2.554   7.182 -0.0029  0.0944  0.0680
  956loPI   C3A14621   3.929   2.571   7.616 -0.2703  0.0382  0.1597
  956loPI   C4A14622   3.903   2.510   8.090 -0.0575  0.1998  0.1836
  956loPI   C5A14623   3.818   2.492   8.513 -0.0251  0.3446  0.0896
  956loPI   C6A14624   3.678   2.479   8.940  0.3292 -0.0809 -0.1739
  956loPI   C1B14625   3.694   2.097   7.017 -0.1011 -0.1227  0.1012
  956loPI   C2B14626   3.683   2.084   7.440  0.1077 -0.0361 -0.1272
  956loPI   C3B14627   3.673   2.100   7.874 -0.1509 -0.3363  0.0862
  956loPI   C4B14628   3.647   2.065   8.241 -0.0356  0.1853 -0.0941
  957loPI    C114629  10.520  10.847   5.792  0.0458  0.1264 -0.0206
  957loPI    C214630  10.399  10.938   5.421  0.0091  0.2582  0.0229
  957loPI    C314631  10.389  10.558   5.548 -0.2952  0.2568  0.0025
  957loPI   PO414632  10.364  10.929   6.001  0.0047 -0.1653  0.0310
  957loPI   GL114633  10.142  10.758   6.336 -0.1044 -0.0383  0.2269
  957loPI   GL214634  10.317  10.533   6.528 -0.2706  0.2752 -0.3477
  957loPI   C1A14635   9.959  10.909   6.759 -0.2708 -0.0431  0.0468
  957loPI   C2A14636   9.952  10.924   7.111 -0.0332 -0.1200 -0.0892
  957loPI   C3A14637   9.903  10.941   7.523 -0.2175 -0.0340  0.0621
  957loPI   C4A14638   9.830  10.923   8.016 -0.1935 -0.0862  0.1961
  957loPI   C5A14639   9.866  10.803   8.443  0.2370 -0.1751 -0.3057
  957loPI   C6A14640   9.914  10.606   8.756 -0.0108 -0.0295  0.1282
  957loPI   C1B14641  10.221  10.446   6.946 -0.1097  0.4152 -0.0528
  957loPI   C2B14642  10.148  10.508   7.336 -0.2231 -0.0291  0.2686
  957loPI   C3B14643  10.087  10.450   7.762  0.1223 -0.1455 -0.1320
  957loPI   C4B14644  10.134  10.509   8.221 -0.2865  0.3894  0.1074
  958loPI    C114645   7.695   8.816   5.878 -0.2202 -0.2068  0.0544
  958loPI    C214646   7.814   8.489   5.682 -0.0795 -0.0010 -0.2093
  958loPI    C314647   7.676   8.805   5.479 -0.1316  0.1371  0.0374
  958loPI   PO414648   7.653   8.649   6.172  0.0811 -0.1309  0.2351
  958loPI   GL114649   7.614   8.666   6.491  0.0313 -0.3710  0.0606
  958loPI   GL214650   7.629   8.446   6.641 -0.3930  0.1134 -0.3549
  958loPI   C1A14651   7.748   8.922   6.904 -0.0356  0.1963  0.0003
  958loPI   C2A14652   7.736   8.981   7.358  0.3543 -0.1934  0.1922
  958loPI   C3A14653   7.719   9.043   7.808 -0.1945  0.0679  0.0056
  958loPI   C4A14654   7.837   9.001   8.211  0.1376 -0.2736  0.2580
  958loPI   C5A14655   8.151   8.934   8.483 -0.4116 -0.0640 -0.1621
  958loPI   C6A14656   8.481   9.295   8.628  0.1052  0.0548 -0.0821
  958loPI   C1B14657   7.585   8.494   7.043 -0.3572  0.0774 -0.1324
  958loPI   C2B14658   7.598   8.540   7.468 -0.0615 -0.0667  0.2433
  958loPI   C3B14659   7.536   8.552   7.830  0.2687 -0.1447 -0.1363
  958loPI   C4B14660   7.541   8.562   8.294 -0.1997 -0.2234  0.0331
  959loPI    C114661   2.451   5.229   5.876 -0.0216  0.0425 -0.1227
  959loPI    C214662   2.634   4.964   5.639 -0.0263 -0.0022 -0.0767
  959loPI    C314663   2.268   5.097   5.546  0.0035  0.0393 -0.1352
  959loPI   PO414664   2.456   5.143   6.099 -0.0128 -0.1488  0.1890
  959loPI   GL114665   2.349   5.213   6.445 -0.3937 -0.3185 -0.2007
  959loPI   GL214666   2.019   5.122   6.350  0.2404  0.1734 -0.1901
  959loPI   C1A14667   2.315   5.127   6.826  0.0471 -0.2259  0.1334
  959loPI   C2A14668   2.332   5.221   7.251 -0.3685 -0.1144  0.1496
  959loPI   C3A14669   2.217   5.190   7.674 -0.0839  0.1158  0.0607
  959loPI   C4A14670   2.291   5.233   8.038 -0.3082 -0.3008  0.0681
  959loPI   C5A14671   2.048   5.243   8.410 -0.4037  0.2858  0.0211
  959loPI   C6A14672   1.948   5.204   8.811 -0.0258 -0.1883  0.0879
  959loPI   C1B14673   1.819   5.195   6.756  0.1625  0.2076 -0.0441
  959loPI   C2B14674   1.822   5.238   7.204 -0.0554 -0.2335 -0.1508
  959loPI   C3B14675   1.760   5.225   7.622  0.3246 -0.0042 -0.0556
  959loPI   C4B14676   1.724   5.138   8.008 -0.1026 -0.1382  0.1378
  960loPI    C114677   7.372   3.887   5.499  0.4708 -0.2151  0.1173
  960loPI    C214678   7.409   4.209   5.265  0.2126 -0.1514  0.1608
  960loPI    C314679   7.549   3.856   5.141 -0.0195 -0.1418 -0.1418
  960loPI   PO414680   7.418   3.909   5.754 -0.2174 -0.2315  0.0116
  960loPI   GL114681   7.123   4.160   6.096 -0.0750  0.0271 -0.0812
  960loPI   GL214682   6.828   4.307   6.100 -0.1102  0.0065  0.0877
  960loPI   C1A14683   7.306   3.980   6.490  0.0142  0.0255 -0.0085
  960loPI   C2A14684   7.320   4.056   6.907 -0.0364 -0.0858 -0.2412
  960loPI   C3A14685   7.399   4.081   7.355 -0.0426  0.1102  0.2568
  960loPI   C4A14686   7.250   4.099   7.725  0.1816  0.0599 -0.2989
  960loPI   C5A14687   7.095   4.085   8.065 -0.1332  0.1063 -0.0669
  960loPI   C6A14688   6.767   3.809   8.179  0.1778 -0.0075 -0.0889
  960loPI   C1B14689   6.774   4.031   6.416 -0.0170  0.0533 -0.2644
  960loPI   C2B14690   6.804   4.029   6.844  0.1554 -0.0513 -0.1242
  960loPI   C3B14691   6.846   3.938   7.302 -0.2417 -0.1462 -0.2672
  960loPI   C4B14692   6.716   4.080   7.705 -0.0823  0.0079 -0.3782
  961loPI    C114693   1.809   7.699   5.569  0.1901 -0.0352 -0.0708
  961loPI    C214694   1.704   8.027   5.366  0.0510  0.1597  0.3049
  961loPI    C314695   1.604   7.665   5.227  0.0288  0.2828 -0.0096
  961loPI   PO414696   1.794   7.755   5.809  0.1640 -0.0590  0.1290
  961loPI   GL114697   2.082   7.919   6.143  0.0353  0.1069  0.2790
  961loPI   GL214698   1.761   7.907   6.300  0.0917  0.0300 -0.4236
  961loPI   C1A14699   2.201   7.924   6.586  0.2210 -0.1514  0.0087
  961loPI   C2A14700   2.179   7.886   7.014  0.1677 -0.0631 -0.0992
  961loPI   C3A14701   2.170   7.852   7.455 -0.2351  0.1758  0.0116
  961loPI   C4A14702   2.005   7.980   7.818 -0.2895  0.1148  0.2380
  961loPI   C5A14703   1.995   7.949   8.345 -0.1124  0.1546 -0.0196
  961loPI   C6A14704   1.629   7.954   8.601  0.3136  0.4018  0.1929
  961loPI   C1B14705   1.641   7.921   6.745 -0.0036 -0.0334  0.0599
  961loPI   C2B14706   1.675   7.837   7.162 -0.1246 -0.1776 -0.0422
  961loPI   C3B14707   1.565   7.915   7.573  0.0022  0.2723 -0.0257
  961loPI   C4B14708   1.491   7.931   8.053 -0.3205  0.2602  0.1134
  962loPI    C114709  14.112   8.321   5.488  0.1867 -0.1243 -0.0166
  962loPI    C214710  13.893   8.011   5.363  0.0309 -0.0200 -0.0049
  962loPI    C314711  14.028   8.280   5.099 -0.1286  0.0909  0.0249
  962loPI   PO414712  14.125   8.295   5.773  0.1519  0.2482 -0.4347
  962loPI   GL114713  14.105   8.431   6.179 -0.2058  0.5411 -0.0236
  962loPI   GL214714  14.027   8.153   6.282  0.0536 -0.0714  0.2785
  962loPI   C1A14715  14.078   8.415   6.698 -0.1857 -0.3369  0.0289
  962loPI   C2A14716  14.144   8.267   7.089 -0.0312 -0.1375 -0.0549
  962loPI   C3A14717  14.119   8.315   7.496 -0.1070  0.1346  0.0995
  962loPI   C4A14718  14.111   8.285   7.966 -0.0106 -0.1082  0.1369
  962loPI   C5A14719  14.042   8.142   8.364  0.1210  0.0173 -0.0130
  962loPI   C6A14720  13.985   7.740   8.564  0.0793  0.4311 -0.1465
  962loPI   C1B14721  13.946   7.938   6.731  0.1703 -0.0411  0.1034
  962loPI   C2B14722  13.868   7.868   7.217  0.0504 -0.1871  0.2366
  962loPI   C3B14723  13.871   7.792   7.636 -0.0919 -0.0056  0.0057
  962loPI   C4B14724  13.814   7.773   8.092  0.2154  0.2116  0.1317
  963loPI    C114725  16.181   8.027   5.765  0.0752  0.0888 -0.0516
  963loPI    C214726  15.787   8.087   5.724  0.0481  0.0126  0.0898
  963loPI    C314727  15.957   7.760   5.568  0.0276 -0.0348  0.1663
  963loPI   PO414728  16.273   8.097   6.074 -0.4863  0.0249  0.1162
  963loPI   GL114729  15.916   8.055   6.502 -0.1979  0.1040 -0.3003
  963loPI   GL214730  16.141   7.784   6.563  0.0707 -0.0030 -0.2477
  963loPI   C1A14731  15.598   7.913   6.717 -0.2314 -0.1381 -0.1259
  963loPI   C2A14732  15.353   7.907   7.103 -0.0646  0.0878  0.0468
  963loPI   C3A14733  15.428   7.847   7.496 -0.0647  0.2106  0.0084
  963loPI   C4A14734  15.427   7.946   7.886  0.0263  0.1377  0.1603
  963loPI   C5A14735  15.260   7.817   8.324  0.0934  0.0744  0.1535
  963loPI   C6A14736  15.150   7.943   8.755 -0.0039 -0.1595  0.2043
  963loPI   C1B14737  16.065   7.801   7.012 -0.1110  0.0398  0.1304
  963loPI   C2B14738  15.991   7.903   7.440  0.0592 -0.2408  0.2314
  963loPI   C3B14739  15.921   7.922   8.001 -0.1238  0.0072 -0.2529
  963loPI   C4B14740  15.790   7.928   8.336 -0.1065  0.1442 -0.2918
  964loPI    C114741  15.728   7.080   5.866 -0.1777 -0.1972 -0.0084
  964loPI    C214742  15.853   7.254   5.529 -0.0988 -0.1017  0.0697
  964loPI    C314743  15.508   7.053   5.533 -0.0753 -0.1462 -0.0807
  964loPI   PO414744  15.822   6.937   5.996 -0.1048  0.0103 -0.1240
  964loPI   GL114745  16.026   7.037   6.337  0.0061  0.0914 -0.0391
  964loPI   GL214746  16.093   7.335   6.439  0.0401  0.1170 -0.2321
  964loPI   C1A14747  16.080   7.011   6.795 -0.0458 -0.1457 -0.0988
  964loPI   C2A14748  16.065   7.031   7.234 -0.3616 -0.1027  0.1712
  964loPI   C3A14749  16.027   6.993   7.650 -0.3482 -0.0054 -0.0526
  964loPI   C4A14750  15.918   6.956   8.126 -0.0448  0.0824 -0.0653
  964loPI   C5A14751  15.945   6.999   8.593  0.2571  0.1327  0.1353
  964loPI   C6A14752  15.726   7.128   8.875 -0.1685  0.2828  0.0014
  964loPI   C1B14753  16.326   7.434   6.877 -0.0785  0.1150 -0.1576
  964loPI   C2B14754  16.319   7.507   7.365 -0.1374 -0.0868 -0.2947
  964loPI   C3B14755  16.215   7.518   7.844 -0.0037 -0.0546  0.3676
  964loPI   C4B14756  16.146   7.370   8.313 -0.1198 -0.0130  0.0843
  965loPI    C114757   9.614  15.498   6.082  0.0597  0.0555  0.0941
  965loPI    C214758   9.837  15.203   6.235 -0.1586 -0.1874 -0.0480
  965loPI    C314759   9.998  15.462   5.975  0.0114 -0.2328  0.0106
  965loPI   PO414760   9.498  15.602   6.238 -0.0061  0.0758 -0.2691
  965loPI   GL114761   9.327  15.734   6.608 -0.0355 -0.3126  0.1303
  965loPI   GL214762   9.554  15.966   6.720  0.1656 -0.0064  0.0618
  965loPI   C1A14763   9.173  15.506   6.976  0.0372  0.0525 -0.1230
  965loPI   C2A14764   9.181  15.528   7.424 -0.0369  0.3347  0.1338
  965loPI   C3A14765   9.230  15.580   7.810  0.1447  0.3585 -0.0017
  965loPI   C4A14766   9.237  15.517   8.189 -0.0557  0.1609  0.1439
  965loPI   C5A14767   9.102  15.746   8.457 -0.1693 -0.0436 -0.0803
  965loPI   C6A14768   8.963  15.693   8.889  0.1011  0.2275  0.2259
  965loPI   C1B14769   9.463  15.941   7.208 -0.1029  0.1566  0.3486
  965loPI   C2B14770   9.487  16.058   7.720 -0.3246 -0.2499  0.3366
  965loPI   C3B14771   9.447  16.014   8.151  0.0851 -0.0147  0.0367
  965loPI   C4B14772   9.460  16.096   8.618  0.1492 -0.4918 -0.4351
  966loPI    C114773   2.585   7.215   5.544 -0.0871  0.2069 -0.0532
  966loPI    C214774   2.719   7.546   5.363  0.2200  0.0860 -0.0537
  966loPI    C314775   2.520   7.269   5.153  0.1144  0.1890 -0.0904
  966loPI   PO414776   2.549   7.246   5.838 -0.5169  0.1300  0.1113
  966loPI   GL114777   2.414   7.168   6.216  0.0349 -0.1815 -0.3069
  966loPI   GL214778   2.345   6.909   6.302 -0.1957  0.0080  0.1665
  966loPI   C1A14779   2.380   7.382   6.689  0.0505 -0.1373 -0.0355
  966loPI   C2A14780   2.457   7.435   7.166 -0.1412 -0.1411  0.0995
  966loPI   C3A14781   2.381   7.405   7.593 -0.0639 -0.3841  0.1229
  966loPI   C4A14782   2.531   7.433   8.008  0.0842 -0.0368 -0.0006
  966loPI   C5A14783   2.822   7.730   8.278 -0.0269 -0.0154 -0.2554
  966loPI   C6A14784   2.965   7.602   8.694 -0.2206 -0.2256 -0.1774
  966loPI   C1B14785   2.228   6.900   6.665  0.0822 -0.1477 -0.2000
  966loPI   C2B14786   2.186   7.019   7.093  0.1328  0.0435 -0.3977
  966loPI   C3B14787   2.196   6.944   7.497 -0.2221  0.3474  0.0749
  966loPI   C4B14788   2.103   7.047   7.928 -0.0597  0.0222  0.1129
  967loPI    C114789  16.653  16.245   6.441  0.1532 -0.0647 -0.0015
  967loPI    C214790  16.700  16.086   6.077  0.0307  0.0625 -0.0736
  967loPI    C314791  16.692  15.849   6.399  0.2508 -0.0408 -0.1422
  967loPI   PO414792  16.419  16.436   6.430 -0.0280  0.0005  0.0710
  967loPI   GL114793  16.133  16.632   6.623  0.1475 -0.0461  0.2259
  967loPI   GL214794  16.010  16.338   6.737  0.1123  0.2090  0.2819
  967loPI   C1A14795  16.294  16.666   7.025  0.2139  0.2576  0.0247
  967loPI   C2A14796  16.436  16.731   7.424 -0.2166  0.1545 -0.2880
  967loPI   C3A14797  16.462  16.566   7.724 -0.0840 -0.1958 -0.1254
  967loPI   C4A14798  16.533  16.721   8.150  0.3186 -0.0667  0.1569
  967loPI   C5A14799  16.689  16.760   8.644  0.0825 -0.0193 -0.1366
  967loPI   C6A14800  16.856  16.630   9.052  0.1892  0.0036 -0.1775
  967loPI   C1B14801  16.107  16.232   7.209 -0.0004  0.1764 -0.1400
  967loPI   C2B14802  16.203  16.132   7.673  0.0757  0.2363  0.1674
  967loPI   C3B14803  16.190  16.245   8.083 -0.0633 -0.1319 -0.2094
  967loPI   C4B14804  16.268  16.280   8.453  0.1101  0.1293  0.1029
  968loPI    C114805  13.444   2.093   5.807 -0.1605  0.1453  0.1212
  968loPI    C214806  13.127   2.219   5.599 -0.1036  0.2163  0.0766
  968loPI    C314807  13.269   1.849   5.543 -0.1239  0.2152  0.0317
  968loPI   PO414808  13.494   2.223   5.963  0.1739  0.0338 -0.1187
  968loPI   GL114809  13.583   2.286   6.365  0.0486  0.0457 -0.2766
  968loPI   GL214810  13.337   2.154   6.448 -0.1431 -0.2056 -0.0882
  968loPI   C1A14811  13.649   2.288   6.797  0.0434  0.0351 -0.1857
  968loPI   C2A14812  13.539   2.251   7.217 -0.3241  0.2230 -0.0174
  968loPI   C3A14813  13.428   2.295   7.625 -0.2339 -0.0953 -0.0120
  968loPI   C4A14814  13.648   2.364   8.005  0.0690  0.3037  0.1525
  968loPI   C5A14815  13.457   2.628   8.423 -0.2199  0.0451  0.3763
  968loPI   C6A14816  13.194   3.040   8.462  0.2215 -0.1635  0.1725
  968loPI   C1B14817  13.190   2.193   6.803 -0.2048 -0.1549  0.1422
  968loPI   C2B14818  13.031   2.268   7.200  0.2271  0.0194  0.1165
  968loPI   C3B14819  12.966   2.289   7.626  0.0653 -0.2403  0.2307
  968loPI   C4B14820  12.950   2.348   8.058  0.2071 -0.0135 -0.0536
  969loPI    C114821   7.310  12.230   5.988  0.1071  0.0992 -0.0526
  969loPI    C214822   7.524  12.160   5.658  0.0222  0.1410 -0.1172
  969loPI    C314823   7.129  12.213   5.632 -0.0280 -0.1435  0.0258
  969loPI   PO414824   7.307  12.055   6.232 -0.2070  0.1602 -0.1617
  969loPI   GL114825   7.594  11.981   6.545  0.0945 -0.0106  0.2357
  969loPI   GL214826   7.392  11.652   6.630 -0.1086  0.0110 -0.1348
  969loPI   C1A14827   7.695  12.107   6.875 -0.2452  0.1911 -0.0604
  969loPI   C2A14828   7.611  12.147   7.226  0.3204  0.0094  0.0039
  969loPI   C3A14829   7.554  12.141   7.699  0.0298  0.2481  0.0580
  969loPI   C4A14830   7.359  12.009   8.018  0.0053 -0.2394  0.0854
  969loPI   C5A14831   7.490  11.679   8.338 -0.0398 -0.0886 -0.0532
  969loPI   C6A14832   7.704  11.382   8.609  0.2749  0.0354 -0.0430
  969loPI   C1B14833   7.441  11.718   7.070  0.0923 -0.1716  0.3347
  969loPI   C2B14834   7.324  11.790   7.452  0.0645  0.2856 -0.1831
  969loPI   C3B14835   7.118  11.579   7.834  0.0357 -0.5383 -0.4151
  969loPI   C4B14836   6.990  11.610   8.251  0.2203  0.0251  0.0758
  970loPI    C114837  12.895  13.175   5.941  0.1284 -0.0899  0.2236
  970loPI    C214838  12.865  12.850   5.710  0.2322 -0.0279  0.1215
  970loPI    C314839  12.779  13.210   5.560 -0.1535 -0.0352  0.3114
  970loPI   PO414840  12.925  13.046   6.189 -0.2460  0.0383 -0.0409
  970loPI   GL114841  13.023  13.323   6.589  0.1562  0.2758  0.0255
  970loPI   GL214842  13.242  13.262   6.808 -0.1352 -0.1270 -0.1971
  970loPI   C1A14843  12.700  13.315   6.977  0.3989 -0.0845 -0.3491
  970loPI   C2A14844  12.548  13.273   7.445  0.1773  0.2658 -0.1657
  970loPI   C3A14845  12.553  13.348   7.894  0.0469  0.0187  0.1174
  970loPI   C4A14846  12.546  13.314   8.322  0.1607  0.0831  0.0929
  970loPI   C5A14847  12.728  13.121   8.738  0.3212  0.0130 -0.0751
  970loPI   C6A14848  12.369  13.009   9.074  0.3656 -0.1622  0.2583
  970loPI   C1B14849  13.106  13.313   7.261  0.4054 -0.3177  0.3197
  970loPI   C2B14850  13.151  13.285   7.620 -0.0828 -0.1246 -0.3558
  970loPI   C3B14851  13.045  13.215   8.011 -0.0610  0.0765  0.0498
  970loPI   C4B14852  13.032  13.370   8.414  0.0746  0.3033  0.0843
  971loPI    C114853   7.394   7.872   5.674  0.0115 -0.1290 -0.1524
  971loPI    C214854   7.094   8.076   5.506  0.0715 -0.2052 -0.3563
  971loPI    C314855   7.473   8.166   5.415  0.1246  0.0647  0.0980
  971loPI   PO414856   7.249   7.891   6.017  0.1197  0.0888 -0.0014
  971loPI   GL114857   7.398   7.856   6.469  0.2331 -0.3179  0.0446
  971loPI   GL214858   7.611   7.536   6.520  0.3147  0.0990 -0.1476
  971loPI   C1A14859   7.333   8.082   6.842 -0.0558 -0.0223  0.0731
  971loPI   C2A14860   7.380   8.115   7.259 -0.2660 -0.1668 -0.0414
  971loPI   C3A14861   7.355   8.114   7.654  0.1041 -0.2691 -0.2679
  971loPI   C4A14862   7.302   8.156   8.101 -0.1682 -0.2411  0.3226
  971loPI   C5A14863   7.143   7.786   8.398  0.1676 -0.1662 -0.1165
  971loPI   C6A14864   7.148   7.520   8.868  0.0685 -0.2053 -0.1199
  971loPI   C1B14865   7.647   7.661   6.838  0.0638 -0.1456 -0.0722
  971loPI   C2B14866   7.698   7.493   7.329 -0.0044  0.1377  0.1336
  971loPI   C3B14867   7.712   7.598   7.655 -0.0585  0.4367  0.1356
  971loPI   C4B14868   7.573   7.702   8.138 -0.4446  0.3715  0.1953
  972loPI    C114869  13.266   0.755   5.886  0.0058  0.0535 -0.0772
  972loPI    C214870  13.112   0.937   5.565 -0.1959 -0.0643 -0.0490
  972loPI    C314871  13.369   0.635   5.518  0.0465  0.1456 -0.0961
  972loPI   PO414872  13.134   0.866   6.057 -0.2521 -0.0486 -0.2788
  972loPI   GL114873  12.960   0.806   6.470  0.0304  0.0288 -0.0584
  972loPI   GL214874  12.975   1.074   6.483  0.2316  0.0913 -0.0544
  972loPI   C1A14875  12.838   0.922   6.924  0.1114 -0.0348  0.3202
  972loPI   C2A14876  12.793   0.868   7.402 -0.2248 -0.1293  0.0370
  972loPI   C3A14877  12.678   0.958   7.793  0.0412 -0.0897  0.1122
  972loPI   C4A14878  12.677   1.068   8.266  0.0230  0.0745  0.0881
  972loPI   C5A14879  12.251   1.219   8.448  0.1186  0.2171 -0.0388
  972loPI   C6A14880  12.321   1.469   8.830  0.0027  0.1997 -0.0196
  972loPI   C1B14881  13.334   0.883   6.816  0.1142  0.0310  0.1820
  972loPI   C2B14882  13.260   0.905   7.291  0.0779 -0.4712 -0.1325
  972loPI   C3B14883  13.260   0.958   7.770  0.1910 -0.1703  0.0303
  972loPI   C4B14884  13.303   1.055   8.253  0.2275 -0.0590  0.1263
  973loPI    C114885   2.032   5.525   5.316 -0.0384 -0.1607  0.1916
  973loPI    C214886   1.792   5.233   5.447 -0.1219 -0.1701  0.0200
  973loPI    C314887   1.764   5.360   5.069 -0.0507  0.0251  0.0793
  973loPI   PO414888   2.105   5.564   5.702  0.1138 -0.0411 -0.0249
  973loPI   GL114889   1.995   5.620   6.065 -0.0143 -0.2869 -0.0963
  973loPI   GL214890   1.746   5.581   6.064  0.0205  0.3639  0.3602
  973loPI   C1A14891   2.082   5.598   6.508 -0.1089  0.0399 -0.1913
  973loPI   C2A14892   2.061   5.585   6.925  0.1750  0.2652 -0.2415
  973loPI   C3A14893   2.059   5.625   7.361  0.0046  0.1461  0.0873
  973loPI   C4A14894   1.986   5.639   7.864 -0.0821 -0.3321 -0.2040
  973loPI   C5A14895   1.777   5.597   8.264 -0.1660  0.1263  0.0773
  973loPI   C6A14896   1.625   5.806   8.589 -0.1771 -0.0447 -0.0901
  973loPI   C1B14897   1.580   5.682   6.506 -0.2067 -0.0981 -0.0126
  973loPI   C2B14898   1.546   5.669   7.018 -0.1831  0.1526  0.3373
  973loPI   C3B14899   1.549   5.669   7.480 -0.3390 -0.4064  0.0194
  973loPI   C4B14900   1.519   5.738   7.893  0.0952  0.4044 -0.1990
  974loPI    C114901  13.756   0.467   6.041 -0.1021 -0.2811  0.0761
  974loPI    C214902  14.115   0.549   5.884 -0.1720  0.1021  0.1083
  974loPI    C314903  13.837   0.367   5.662  0.0166 -0.1347  0.0622
  974loPI   PO414904  13.888   0.425   6.325  0.0951 -0.1123 -0.1259
  974loPI   GL114905  13.662   0.444   6.687 -0.3985  0.1143  0.0817
  974loPI   GL214906  13.802   0.784   6.774  0.4561  0.0410  0.2221
  974loPI   C1A14907  13.590   0.512   7.132 -0.0246  0.3209  0.3182
  974loPI   C2A14908  13.616   0.537   7.561 -0.0847 -0.0730  0.1879
  974loPI   C3A14909  13.565   0.594   7.968 -0.3826  0.0067  0.0418
  974loPI   C4A14910  13.620   0.663   8.409 -0.1540 -0.0315 -0.0357
  974loPI   C5A14911  13.508   0.390   8.776 -0.1860 -0.1032 -0.2004
  974loPI   C6A14912  13.263   0.275   9.119  0.2675  0.0959 -0.1093
  974loPI   C1B14913  13.836   0.918   7.149  0.1611  0.0897  0.0310
  974loPI   C2B14914  13.836   1.013   7.681 -0.3226 -0.0269  0.1661
  974loPI   C3B14915  13.839   1.009   8.132  0.0165  0.0997 -0.1182
  974loPI   C4B14916  13.926   0.969   8.604 -0.2854  0.0397 -0.0452
  975loPI    C114917   6.880  11.413   5.745  0.0449 -0.0323  0.0056
  975loPI    C214918   7.169  11.689   5.716  0.0510 -0.0283  0.1002
  975loPI    C314919   7.007  11.534   5.385 -0.1614  0.3071  0.0421
  975loPI   PO414920   6.716  11.457   5.833 -0.0801 -0.0276  0.1937
  975loPI   GL114921   6.581  11.318   6.216  0.0940  0.1768  0.0086
  975loPI   GL214922   6.417  11.629   6.227  0.0443  0.2363 -0.0689
  975loPI   C1A14923   6.532  11.184   6.639 -0.0471 -0.2790 -0.0403
  975loPI   C2A14924   6.451  11.036   7.036 -0.3080 -0.0106 -0.1286
  975loPI   C3A14925   6.421  11.131   7.382 -0.3842 -0.3700 -0.0839
  975loPI   C4A14926   6.391  11.162   7.776 -0.0551 -0.1975  0.2276
  975loPI   C5A14927   6.303  11.193   8.212 -0.2406  0.0226  0.1680
  975loPI   C6A14928   5.984  11.080   8.601  0.0536 -0.0897 -0.1335
  975loPI   C1B14929   6.252  11.576   6.689 -0.0382 -0.0187 -0.0077
  975loPI   C2B14930   6.131  11.510   7.110 -0.1879  0.2424  0.2520
  975loPI   C3B14931   6.117  11.507   7.472  0.0949 -0.2863  0.1208
  975loPI   C4B14932   6.093  11.531   7.876 -0.0128  0.1336 -0.1732
  976loPI    C114933  12.399   5.708   5.790 -0.0802  0.4087  0.0911
  976loPI    C214934  12.136   5.537   5.541  0.1291  0.2649 -0.0350
  976loPI    C314935  12.258   5.913   5.477  0.1199  0.2566 -0.1027
  976loPI   PO414936  12.366   5.595   5.992  0.0950 -0.0220 -0.0758
  976loPI   GL114937  12.146   5.672   6.427 -0.3945 -0.2062  0.1440
  976loPI   GL214938  12.118   5.446   6.582  0.3925 -0.1355 -0.0222
  976loPI   C1A14939  11.980   5.961   6.719  0.0006 -0.0329 -0.0028
  976loPI   C2A14940  11.863   5.938   7.223  0.3234  0.0989  0.2586
  976loPI   C3A14941  11.890   5.870   7.606  0.1429  0.1382 -0.0039
  976loPI   C4A14942  11.815   5.890   8.092 -0.2454  0.0182  0.0470
  976loPI   C5A14943  11.636   5.906   8.547 -0.1704 -0.0101 -0.0461
  976loPI   C6A14944  11.746   6.172   8.756 -0.0181  0.2992 -0.0115
  976loPI   C1B14945  12.173   5.473   7.044 -0.2585 -0.0885  0.1286
  976loPI   C2B14946  12.219   5.464   7.579 -0.1182  0.0702 -0.2948
  976loPI   C3B14947  12.074   5.475   8.048 -0.2015 -0.0277 -0.2331
  976loPI   C4B14948  12.095   5.415   8.476 -0.2270 -0.0733 -0.0833
  977loPI    C114949  15.421  14.887   6.020  0.3370 -0.1169 -0.0180
  977loPI    C214950  15.293  14.536   5.877  0.0360 -0.1029  0.2071
  977loPI    C314951  15.357  14.842   5.627 -0.1338 -0.1847  0.0614
  977loPI   PO414952  15.189  14.987   6.293  0.1178  0.0622  0.0312
  977loPI   GL114953  15.268  15.215   6.719 -0.1063 -0.3015 -0.2225
  977loPI   GL214954  15.055  15.372   6.580 -0.1167  0.0705  0.0303
  977loPI   C1A14955  15.348  15.120   7.129  0.0967  0.0659 -0.0076
  977loPI   C2A14956  15.195  15.299   7.522 -0.0310 -0.4335  0.1422
  977loPI   C3A14957  15.267  15.271   7.883  0.1090 -0.1921 -0.0103
  977loPI   C4A14958  15.252  15.161   8.310 -0.2744  0.1151  0.4252
  977loPI   C5A14959  15.051  15.388   8.583 -0.3138  0.0820  0.1216
  977loPI   C6A14960  14.880  15.634   8.846 -0.1349 -0.1467 -0.0730
  977loPI   C1B14961  15.022  15.561   6.999 -0.0166  0.1669  0.1201
  977loPI   C2B14962  14.957  15.739   7.348 -0.0837 -0.0247 -0.0692
  977loPI   C3B14963  14.920  15.782   7.811 -0.2180  0.1236  0.0210
  977loPI   C4B14964  15.098  15.660   8.144  0.1294  0.0311 -0.1848
  978loPI    C114965  10.187   0.686   5.805 -0.0727  0.2817 -0.1881
  978loPI    C214966  10.294   0.331   5.656 -0.0613  0.1440  0.1415
  978loPI    C314967  10.005   0.543   5.479 -0.1795 -0.1024  0.0347
  978loPI   PO414968  10.151   0.617   6.059  0.0871 -0.1888  0.2652
  978loPI   GL114969   9.817   0.469   6.365  0.3736  0.0835 -0.2595
  978loPI   GL214970  10.069   0.309   6.563 -0.1713 -0.0692  0.1703
  978loPI   C1A14971   9.705   0.770   6.735 -0.2919 -0.0257  0.2024
  978loPI   C2A14972   9.721   0.782   7.170 -0.0937  0.2904 -0.1441
  978loPI   C3A14973   9.709   0.791   7.464 -0.0620  0.1271  0.1309
  978loPI   C4A14974   9.711   0.842   7.878  0.0405 -0.0636  0.0436
  978loPI   C5A14975   9.852   1.014   8.193  0.0179 -0.2045 -0.1312
  978loPI   C6A14976  10.137   1.352   8.276  0.0972  0.1913 -0.1537
  978loPI   C1B14977   9.870   0.273   6.942 -0.0495 -0.2554  0.2275
  978loPI   C2B14978   9.943   0.371   7.314 -0.1323  0.0172 -0.1414
  978loPI   C3B14979   9.959   0.388   7.758  0.0286  0.0383 -0.1543
  978loPI   C4B14980   9.952   0.510   8.168 -0.1328  0.1321 -0.0835
  979loPI    C114981  16.639   0.756   6.007 -0.0426 -0.1267  0.0469
  979loPI    C214982  16.976   0.670   5.810  0.0269 -0.0274  0.1213
  979loPI    C314983  16.637   0.738   5.608  0.0141 -0.2852  0.0532
  979loPI   PO414984  16.612   0.606   6.250 -0.1060 -0.2557  0.1647
  979loPI   GL114985  16.506   0.683   6.638  0.3441  0.1036  0.0792
  979loPI   GL214986  16.932   0.679   6.614 -0.0687 -0.1527  0.1620
  979loPI   C1A14987  16.228   0.619   6.986 -0.0154 -0.0491 -0.0682
  979loPI   C2A14988  16.183   0.597   7.333  0.1341  0.1647  0.0324
  979loPI   C3A14989  16.224   0.671   7.745  0.3329  0.0899 -0.1472
  979loPI   C4A14990  16.265   0.609   8.138 -0.1398  0.3197  0.1828
  979loPI   C5A14991  16.296   0.671   8.626 -0.1301 -0.1768 -0.0771
  979loPI   C6A14992  16.122   0.655   9.041  0.1452 -0.2669 -0.1632
  979loPI   C1B14993  16.790   0.566   7.007 -0.0451 -0.1811  0.4276
  979loPI   C2B14994  16.702   0.655   7.407  0.0621  0.1351 -0.1353
  979loPI   C3B14995  16.691   0.661   7.838  0.0659  0.0502 -0.0653
  979loPI   C4B14996  16.805   0.625   8.293  0.1275 -0.0668 -0.3412
  980loPI    C114997  10.608   5.390   5.533 -0.2050 -0.0825  0.0338
  980loPI    C214998  10.465   5.746   5.419 -0.0339  0.0880  0.3391
  980loPI    C314999  10.812   5.613   5.270 -0.2820 -0.1274 -0.0646
  980loPI   PO415000  10.558   5.450   5.797  0.1733  0.2587 -0.0441
  980loPI   GL115001  10.503   5.589   6.271 -0.2758 -0.2182 -0.0280
  980loPI   GL215002  10.407   5.974   6.421  0.0525  0.0927  0.1389
  980loPI   C1A15003  10.628   5.447   6.687  0.1102 -0.0962  0.0268
  980loPI   C2A15004  10.598   5.423   7.140  0.0496 -0.0694 -0.0043
  980loPI   C3A15005  10.612   5.423   7.538 -0.0683  0.0310  0.1730
  980loPI   C4A15006  10.582   5.448   7.937 -0.0835 -0.2052  0.0935
  980loPI   C5A15007  10.506   5.329   8.337 -0.0294  0.1859 -0.0295
  980loPI   C6A15008  10.280   5.309   8.731 -0.1372  0.1233 -0.1069
  980loPI   C1B15009  10.351   5.849   6.886  0.0124 -0.3098  0.1115
  980loPI   C2B15010  10.392   5.853   7.355  0.0549 -0.2072  0.3552
  980loPI   C3B15011  10.356   5.968   7.760  0.0105  0.0003  0.1192
  980loPI   C4B15012  10.335   5.970   8.172 -0.0386  0.1957  0.1117
  981loPI    C115013  11.970  10.591   5.652  0.0284 -0.1557  0.0847
  981loPI    C215014  11.750  10.715   5.342  0.0617 -0.0174  0.1159
  981loPI    C315015  11.699  10.347   5.488 -0.1549  0.0166  0.1282
  981loPI   PO415016  11.924  10.726   5.843 -0.0411  0.2082  0.3109
  981loPI   GL115017  12.004  10.769   6.226 -0.1322 -0.0404 -0.0100
  981loPI   GL215018  11.932  10.504   6.326  0.2021 -0.1935 -0.0355
  981loPI   C1A15019  12.184  11.046   6.534  0.2312  0.0157 -0.1150
  981loPI   C2A15020  12.026  10.937   6.973 -0.1286  0.0013 -0.0003
  981loPI   C3A15021  11.962  10.952   7.292 -0.0449 -0.1998 -0.0235
  981loPI   C4A15022  11.912  10.998   7.733 -0.0165 -0.0453 -0.0500
  981loPI   C5A15023  11.807  10.983   8.159  0.1614  0.2536  0.4162
  981loPI   C6A15024  11.715  10.850   8.500 -0.1181 -0.3100  0.1221
  981loPI   C1B15025  11.794  10.447   6.672 -0.1411 -0.1862  0.0430
  981loPI   C2B15026  11.707  10.456   7.105 -0.0256 -0.1756 -0.2056
  981loPI   C3B15027  11.634  10.545   7.521  0.1903  0.2192 -0.2938
  981loPI   C4B15028  11.676  10.529   7.958 -0.2256  0.1075  0.0788
  982loPI    C115029   5.318   3.877   5.758 -0.0472 -0.1218  0.0457
  982loPI    C215030   5.665   3.692   5.684  0.0994  0.1380  0.0704
  982loPI    C315031   5.573   4.029   5.489 -0.1932  0.0084 -0.0205
  982loPI   PO415032   5.203   3.941   6.020  0.0898  0.3361 -0.0570
  982loPI   GL115033   5.241   3.912   6.428 -0.1165  0.1269  0.1471
  982loPI   GL215034   5.173   3.606   6.575 -0.1926  0.0935  0.2956
  982loPI   C1A15035   5.236   4.020   6.784  0.1496 -0.2527  0.0710
  982loPI   C2A15036   5.243   3.997   7.252 -0.0557 -0.2733 -0.0171
  982loPI   C3A15037   5.310   4.048   7.721  0.2431  0.0211 -0.1814
  982loPI   C4A15038   5.343   3.940   8.108  0.3684 -0.0929 -0.0177
  982loPI   C5A15039   5.270   3.888   8.517 -0.0642  0.1188 -0.0673
  982loPI   C6A15040   5.167   4.221   8.781  0.3928  0.0517 -0.1989
  982loPI   C1B15041   4.984   3.526   6.832  0.0855 -0.3123  0.0281
  982loPI   C2B15042   4.962   3.633   7.260 -0.1332 -0.0060  0.0400
  982loPI   C3B15043   5.020   3.513   7.688  0.0072 -0.1291 -0.3020
  982loPI   C4B15044   4.917   3.504   8.149  0.0092 -0.2182 -0.0656
  983loPI    C115045   6.687   6.572   5.917 -0.0901  0.1053 -0.1886
  983loPI    C215046   6.940   6.411   5.652 -0.0748 -0.0382 -0.0881
  983loPI    C315047   6.547   6.413   5.578 -0.0676 -0.0475 -0.1268
  983loPI   PO415048   6.811   6.497   6.147  0.1915  0.2260  0.1719
  983loPI   GL115049   7.064   6.582   6.486 -0.3310  0.1633 -0.1136
  983loPI   GL215050   7.306   6.885   6.451  0.3480 -0.2847  0.0764
  983loPI   C1A15051   7.112   6.676   6.981  0.1184  0.0181  0.0274
  983loPI   C2A15052   7.208   6.596   7.313 -0.1190  0.0786 -0.2126
  983loPI   C3A15053   7.282   6.768   7.801  0.0025  0.2283  0.3244
  983loPI   C4A15054   7.190   6.792   8.245  0.0458 -0.3649 -0.0446
  983loPI   C5A15055   7.228   7.065   8.678  0.0710 -0.1369 -0.0562
  983loPI   C6A15056   7.610   7.241   8.882 -0.0642  0.1631  0.1718
  983loPI   C1B15057   7.365   7.138   6.781 -0.1159 -0.2001  0.2800
  983loPI   C2B15058   7.445   7.053   7.233  0.0971 -0.0362  0.0210
  983loPI   C3B15059   7.499   7.194   7.704 -0.1541  0.0071  0.0807
  983loPI   C4B15060   7.337   7.278   8.021  0.0456 -0.1229  0.2294
  984loPI    C115061  16.807   8.549   5.788  0.0305  0.0315 -0.0440
  984loPI    C215062  16.432   8.556   5.926  0.0662  0.0928  0.0508
  984loPI    C315063  16.520   8.342   5.601 -0.0068 -0.1025  0.1579
  984loPI   PO415064  16.937   8.514   6.046  0.1023 -0.0775 -0.2049
  984loPI   GL115065  16.795   8.257   6.367 -0.0864  0.1337 -0.1266
  984loPI   GL215066  16.558   8.004   6.477  0.0162  0.2451 -0.2029
  984loPI   C1A15067  16.700   8.384   6.762 -0.0702  0.0807  0.1582
  984loPI   C2A15068  16.777   8.336   7.165 -0.0199  0.0431 -0.1594
  984loPI   C3A15069  16.660   8.417   7.529 -0.2222 -0.2095 -0.2038
  984loPI   C4A15070  16.712   8.458   7.886  0.1064  0.0479  0.2892
  984loPI   C5A15071  16.652   8.401   8.283  0.0978 -0.4382 -0.0266
  984loPI   C6A15072  16.563   8.046   8.632  0.0683 -0.2172 -0.1801
  984loPI   C1B15073  16.516   7.974   6.912 -0.1471 -0.0181  0.1295
  984loPI   C2B15074  16.541   7.920   7.353 -0.3654 -0.0060 -0.0442
  984loPI   C3B15075  16.401   8.004   7.794 -0.0198 -0.2702 -0.2704
  984loPI   C4B15076  16.375   7.939   8.207  0.1791  0.0163  0.2426
  985loPI    C115077   7.830   6.734   5.819 -0.1323 -0.3618 -0.0825
  985loPI    C215078   8.124   6.875   5.587 -0.2724 -0.1298 -0.1228
  985loPI    C315079   7.885   6.583   5.452 -0.1594 -0.2106 -0.1497
  985loPI   PO415080   8.010   6.694   6.132  0.1063 -0.0315 -0.1685
  985loPI   GL115081   8.148   6.749   6.471  0.0865 -0.1473  0.2356
  985loPI   GL215082   8.392   6.521   6.524  0.2875 -0.0463 -0.1468
  985loPI   C1A15083   8.189   6.654   6.969  0.0594 -0.2977  0.0661
  985loPI   C2A15084   8.271   6.680   7.460  0.2404 -0.3168 -0.0092
  985loPI   C3A15085   8.210   6.738   7.886 -0.2207 -0.2432  0.0965
  985loPI   C4A15086   8.149   6.861   8.278 -0.2977 -0.1198  0.0752
  985loPI   C5A15087   7.957   6.718   8.671 -0.1657 -0.0740  0.1862
  985loPI   C6A15088   8.042   6.882   8.988 -0.0828 -0.1165  0.4422
  985loPI   C1B15089   8.463   6.258   6.842  0.2724  0.0083 -0.0797
  985loPI   C2B15090   8.531   6.210   7.332  0.0389  0.0024  0.1971
  985loPI   C3B15091   8.475   6.285   7.816 -0.0130 -0.4677 -0.1243
  985loPI   C4B15092   8.480   6.280   8.300 -0.0331 -0.2106 -0.0645
  986loPI    C115093  12.001   2.885   5.765  0.2144 -0.0364 -0.0381
  986loPI    C215094  12.347   2.869   5.564  0.1054  0.0407 -0.2350
  986loPI    C315095  12.166   2.531   5.678  0.2436  0.0002 -0.1326
  986loPI   PO415096  11.922   3.020   5.990  0.1144 -0.1645 -0.1265
  986loPI   GL115097  11.931   3.010   6.374  0.0739 -0.0423 -0.1010
  986loPI   GL215098  12.147   3.313   6.443  0.0097  0.1624 -0.1121
  986loPI   C1A15099  11.953   3.103   6.799 -0.1890  0.1892 -0.1519
  986loPI   C2A15100  12.042   3.073   7.248  0.0073  0.1429  0.0873
  986loPI   C3A15101  11.827   3.237   7.513  0.0815  0.4373 -0.2931
  986loPI   C4A15102  11.937   3.156   7.935  0.1159  0.0305  0.0988
  986loPI   C5A15103  11.850   2.962   8.359 -0.0634 -0.1346 -0.2005
  986loPI   C6A15104  11.647   2.875   8.787  0.1026  0.0705 -0.0146
  986loPI   C1B15105  12.273   3.504   6.832  0.1783  0.0575  0.0377
  986loPI   C2B15106  12.317   3.578   7.286 -0.0166  0.0477 -0.1510
  986loPI   C3B15107  12.206   3.628   7.658  0.2088  0.3225  0.1440
  986loPI   C4B15108  12.206   3.705   8.039 -0.1867 -0.2355 -0.1674
  987loPI    C115109   6.617   2.665   5.881  0.0011 -0.0469 -0.1346
  987loPI    C215110   6.757   2.290   5.891 -0.0360 -0.0616 -0.1633
  987loPI    C315111   6.853   2.533   5.587 -0.0816 -0.0752 -0.1888
  987loPI   PO415112   6.651   2.708   6.165  0.2220 -0.3347 -0.0519
  987loPI   GL115113   6.539   2.466   6.419 -0.0429 -0.1448  0.2367
  987loPI   GL215114   6.686   2.141   6.405 -0.0448  0.1011  0.0518
  987loPI   C1A15115   6.495   2.512   6.815 -0.0427  0.0354 -0.0969
  987loPI   C2A15116   6.539   2.577   7.207 -0.0273  0.0588  0.2711
  987loPI   C3A15117   6.608   2.570   7.595 -0.0845 -0.1656  0.1239
  987loPI   C4A15118   6.400   2.515   7.911 -0.1477 -0.3218 -0.2792
  987loPI   C5A15119   6.481   2.480   8.353 -0.0756 -0.0267  0.2226
  987loPI   C6A15120   6.826   2.470   8.577 -0.2129  0.0797  0.1608
  987loPI   C1B15121   6.884   2.109   6.803  0.3675 -0.1024 -0.0634
  987loPI   C2B15122   6.875   2.140   7.206 -0.4147 -0.0220 -0.1220
  987loPI   C3B15123   6.829   2.175   7.616  0.0346  0.0355  0.0045
  987loPI   C4B15124   6.741   2.130   7.997 -0.0952  0.2227  0.0478
  988loPI    C115125  16.952   5.580   6.030  0.0040  0.1478  0.0332
  988loPI    C215126  16.990   5.665   5.641  0.0941 -0.0438 -0.0014
  988loPI    C315127  16.735   5.380   5.760  0.0496  0.0304  0.0824
  988loPI   PO415128  16.954   5.814   6.118  0.3986 -0.1320  0.0657
  988loPI   GL115129  17.072   5.974   6.467 -0.1286  0.0053  0.0621
  988loPI   GL215130  17.106   6.196   6.526 -0.0686  0.0939 -0.1595
  988loPI   C1A15131  16.883   5.741   6.888  0.1240 -0.3446 -0.1291
  988loPI   C2A15132  16.817   5.706   7.290  0.0407  0.1766 -0.2591
  988loPI   C3A15133  16.817   5.697   7.736  0.3878 -0.0144 -0.2830
  988loPI   C4A15134  16.664   5.655   8.198  0.3340 -0.0281 -0.1190
  988loPI   C5A15135  16.516   5.680   8.649  0.1524  0.1339 -0.1221
  988loPI   C6A15136  16.420   5.467   8.999  0.1020  0.0758  0.1514
  988loPI   C1B15137  17.169   6.151   7.028 -0.1781  0.1007 -0.1049
  988loPI   C2B15138  16.999   6.125   7.493 -0.3238 -0.3275 -0.2009
  988loPI   C3B15139  17.039   6.129   7.902 -0.2276  0.1668 -0.0642
  988loPI   C4B15140  17.063   6.085   8.340  0.1904  0.1705  0.0035
  989loPI    C115141   8.968  15.790   5.984 -0.0702 -0.1853 -0.0624
  989loPI    C215142   8.756  15.519   5.782  0.0604 -0.1818 -0.2058
  989loPI    C315143   9.155  15.503   5.778  0.0705  0.0607 -0.2828
  989loPI   PO415144   8.886  15.808   6.311  0.2598  0.0948  0.0542
  989loPI   GL115145   8.832  15.815   6.738  0.0503  0.0351 -0.0455
  989loPI   GL215146   8.670  15.480   6.720  0.3344  0.4110 -0.1936
  989loPI   C1A15147   8.958  15.957   7.131  0.1518 -0.2378 -0.0611
  989loPI   C2A15148   8.888  15.962   7.591  0.0422 -0.0188 -0.3081
  989loPI   C3A15149   8.858  15.925   8.030 -0.0779  0.0846 -0.0705
  989loPI   C4A15150   8.821  16.185   8.383 -0.2149 -0.3560 -0.1671
  989loPI   C5A15151   8.935  16.342   8.798  0.1377 -0.4990  0.3046
  989loPI   C6A15152   8.869  16.330   9.297  0.0675 -0.1939 -0.0533
  989loPI   C1B15153   8.691  15.518   7.172  0.1079  0.1676  0.2855
  989loPI   C2B15154   8.738  15.470   7.664  0.0928  0.1043  0.0547
  989loPI   C3B15155   8.699  15.469   8.083  0.2518  0.1001 -0.1417
  989loPI   C4B15156   8.821  15.328   8.418  0.0624 -0.1345  0.0380
  990loPI    C115157  13.724   4.670   5.607 -0.1277 -0.0123  0.0132
  990loPI    C215158  13.463   4.795   5.331 -0.1302 -0.0048  0.0190
  990loPI    C315159  13.845   4.729   5.231 -0.0675  0.2615  0.0733
  990loPI   PO415160  13.691   4.895   5.823  0.2257 -0.0525 -0.1727
  990loPI   GL115161  13.767   5.006   6.282  0.2562  0.1308 -0.0798
  990loPI   GL215162  13.702   4.659   6.318  0.0619  0.0491 -0.0105
  990loPI   C1A15163  13.911   5.202   6.653 -0.4197  0.2790  0.1620
  990loPI   C2A15164  13.962   5.088   7.047  0.3094 -0.0116 -0.0480
  990loPI   C3A15165  13.971   5.027   7.399  0.1250  0.1615  0.3103
  990loPI   C4A15166  13.963   5.028   7.761 -0.1551  0.1145 -0.2297
  990loPI   C5A15167  13.970   5.067   8.185 -0.0472  0.1084  0.0156
  990loPI   C6A15168  14.124   5.177   8.581 -0.0025 -0.3916 -0.0717
  990loPI   C1B15169  13.594   4.693   6.666 -0.2333 -0.0218 -0.3470
  990loPI   C2B15170  13.698   4.542   7.131  0.0882  0.2931  0.1315
  990loPI   C3B15171  13.746   4.585   7.558  0.0605  0.0473 -0.0987
  990loPI   C4B15172  13.637   4.707   7.993  0.1316  0.1514 -0.0317
  991loPI    C115173  12.528  13.911   5.902  0.0070  0.0948 -0.0866
  991loPI    C215174  12.856  13.690   5.962  0.0849  0.1723 -0.2220
  991loPI    C315175  12.716  13.744   5.591 -0.0361  0.2039 -0.1721
  991loPI   PO415176  12.421  13.950   6.213  0.0325  0.1749 -0.3456
  991loPI   GL115177  12.309  13.759   6.637 -0.2218  0.1091 -0.2709
  991loPI   GL215178  12.490  13.983   6.758  0.0405  0.1172 -0.0394
  991loPI   C1A15179  12.320  13.690   7.104  0.0110  0.0966  0.2892
  991loPI   C2A15180  12.289  13.882   7.456  0.2694 -0.0069  0.0509
  991loPI   C3A15181  12.314  13.786   7.878 -0.3383  0.1080 -0.2287
  991loPI   C4A15182  12.262  13.730   8.292  0.1870  0.0278  0.0271
  991loPI   C5A15183  12.355  14.046   8.528  0.1796 -0.0123  0.0508
  991loPI   C6A15184  12.038  14.232   8.748  0.1697  0.0505 -0.3060
  991loPI   C1B15185  12.518  14.178   7.140  0.0954  0.0477  0.0349
  991loPI   C2B15186  12.610  14.359   7.603  0.0271 -0.1336  0.2014
  991loPI   C3B15187  12.590  14.235   8.102  0.2813  0.2224 -0.0596
  991loPI   C4B15188  12.431  14.524   8.457 -0.0235 -0.1473  0.1285
  992loPI    C115189  12.872   0.066   5.710 -0.0106 -0.0052  0.0331
  992loPI    C215190  12.867   0.461   5.645 -0.0076 -0.0073  0.0198
  992loPI    C315191  12.844   0.207   5.337 -0.1143 -0.0176  0.0358
  992loPI   PO415192  12.671  -0.018   5.920 -0.1818 -0.3033 -0.0252
  992loPI   GL115193  12.497   0.005   6.284 -0.0265 -0.2115 -0.1342
  992loPI   GL215194  12.911  -0.024   6.409 -0.0800 -0.1755  0.0823
  992loPI   C1A15195  12.543  -0.352   6.623 -0.1982  0.0914 -0.2375
  992loPI   C2A15196  12.567  -0.409   7.050  0.0411  0.2589  0.1137
  992loPI   C3A15197  12.615  -0.400   7.476 -0.2619  0.0571 -0.1775
  992loPI   C4A15198  12.641  -0.398   7.858  0.4169  0.0973  0.0611
  992loPI   C5A15199  12.607  -0.464   8.257 -0.2028 -0.2790  0.0418
  992loPI   C6A15200  12.768  -0.269   8.636 -0.0139  0.2643 -0.1458
  992loPI   C1B15201  12.767   0.043   6.834  0.0148 -0.0623  0.0571
  992loPI   C2B15202  12.774  -0.008   7.211 -0.0797 -0.0668 -0.0413
  992loPI   C3B15203  12.816   0.046   7.745  0.1491  0.0512  0.1574
  992loPI   C4B15204  12.865   0.021   8.203  0.0040  0.1091  0.0972
  993loPI    C115205   9.600  16.558   5.795 -0.3322 -0.3065  0.2073
  993loPI    C215206   9.243  16.738   5.801 -0.1081  0.1672 -0.0817
  993loPI    C315207   9.363  16.543   5.474  0.0095  0.2472 -0.0871
  993loPI   PO415208   9.652  16.578   6.114  0.2995  0.0173  0.1783
  993loPI   GL115209   9.816  16.433   6.441 -0.0950 -0.0490 -0.2146
  993loPI   GL215210  10.133  16.278   6.438  0.0285  0.2374 -0.2404
  993loPI   C1A15211   9.755  16.408   6.868  0.0799  0.0493  0.0264
  993loPI   C2A15212   9.672  16.369   7.300 -0.2426 -0.3525  0.2634
  993loPI   C3A15213   9.735  16.473   7.679  0.1928  0.2475  0.1828
  993loPI   C4A15214   9.724  16.514   7.982  0.1677  0.2618 -0.1217
  993loPI   C5A15215   9.850  16.513   8.421  0.0193 -0.1082  0.2381
  993loPI   C6A15216   9.926  16.858   8.810  0.0358  0.1517  0.1332
  993loPI   C1B15217  10.271  16.315   6.832  0.1226 -0.0800 -0.1384
  993loPI   C2B15218  10.158  16.496   7.296 -0.0303 -0.1351  0.1637
  993loPI   C3B15219  10.284  16.471   7.734 -0.0152  0.0735  0.0502
  993loPI   C4B15220  10.296  16.547   8.146 -0.0749  0.3934  0.1999
  994loPI    C115221   7.379  11.291   5.883  0.0466 -0.0985 -0.0449
  994loPI    C215222   7.279  11.106   5.543 -0.1437 -0.0773 -0.0013
  994loPI    C315223   7.552  11.398   5.539 -0.2126 -0.0139 -0.1510
  994loPI   PO415224   7.429  11.164   6.051 -0.3460 -0.2043  0.1053
  994loPI   GL115225   7.525  11.078   6.491  0.1942  0.0017  0.0900
  994loPI   GL215226   7.385  10.788   6.443  0.1112 -0.2655 -0.0216
  994loPI   C1A15227   7.563  11.279   6.962 -0.2502  0.0563 -0.4292
  994loPI   C2A15228   7.603  11.360   7.387 -0.0923  0.2323 -0.0361
  994loPI   C3A15229   7.421  11.185   7.662  0.1724 -0.1046 -0.1542
  994loPI   C4A15230   7.409  11.175   8.130 -0.1139 -0.0222 -0.0743
  994loPI   C5A15231   7.233  11.303   8.644  0.0050 -0.0734  0.1962
  994loPI   C6A15232   7.120  11.688   8.790  0.2300  0.1453  0.1313
  994loPI   C1B15233   7.288  10.671   6.786 -0.1113 -0.0119 -0.2086
  994loPI   C2B15234   7.201  10.732   7.135 -0.2005 -0.2335  0.1914
  994loPI   C3B15235   7.163  10.753   7.537  0.0729 -0.0724 -0.2818
  994loPI   C4B15236   7.196  10.760   8.001 -0.2015 -0.0614  0.2305
  995loPI    C115237   9.037   6.932   5.801 -0.2452 -0.0393  0.0040
  995loPI    C215238   9.141   7.318   5.810 -0.1811 -0.0601  0.2178
  995loPI    C315239   8.928   7.176   5.502  0.0215  0.0861  0.0062
  995loPI   PO415240   8.953   6.874   6.066  0.0048  0.4486 -0.4131
  995loPI   GL115241   8.759   6.872   6.465  0.0239  0.0679  0.1100
  995loPI   GL215242   8.941   7.132   6.557  0.1554 -0.1792  0.2224
  995loPI   C1A15243   8.660   6.716   6.822  0.1108  0.0456 -0.0995
  995loPI   C2A15244   8.688   6.615   7.209  0.0063 -0.1093  0.0426
  995loPI   C3A15245   8.805   6.628   7.586  0.2602 -0.1558 -0.0086
  995loPI   C4A15246   8.739   6.821   7.912 -0.2063 -0.0884 -0.1062
  995loPI   C5A15247   8.735   6.833   8.372  0.1879 -0.1042  0.0722
  995loPI   C6A15248   8.423   6.566   8.717  0.1396 -0.0421  0.0898
  995loPI   C1B15249   8.894   7.145   6.950  0.2505 -0.0138  0.0384
  995loPI   C2B15250   8.957   7.066   7.401 -0.0024 -0.1776 -0.0049
  995loPI   C3B15251   8.990   7.214   7.754 -0.1467 -0.1494 -0.0465
  995loPI   C4B15252   9.031   7.399   8.242 -0.0274  0.0395  0.1637
  996loPI    C115253  17.064   3.916   6.114  0.0788 -0.4149 -0.0112
  996loPI    C215254  17.077   4.140   5.782 -0.0467 -0.2349  0.1039
  996loPI    C315255  16.726   4.002   5.918 -0.0401 -0.0127  0.3553
  996loPI   PO415256  17.128   4.017   6.267 -0.0033 -0.0360 -0.1347
  996loPI   GL115257  17.109   4.346   6.579 -0.0294  0.0556 -0.4342
  996loPI   GL215258  16.794   4.376   6.677  0.1320  0.1035 -0.0286
  996loPI   C1A15259  17.180   4.285   7.058 -0.0122  0.1920  0.2362
  996loPI   C2A15260  17.044   4.299   7.404  0.1220 -0.1438 -0.3239
  996loPI   C3A15261  17.105   4.249   7.871 -0.1664 -0.0540  0.1151
  996loPI   C4A15262  17.241   4.488   8.299 -0.3074 -0.2373 -0.1661
  996loPI   C5A15263  16.998   4.429   8.706 -0.0453 -0.2004 -0.2955
  996loPI   C6A15264  16.669   4.088   8.777 -0.0934 -0.1156 -0.2457
  996loPI   C1B15265  16.589   4.229   7.052 -0.0345 -0.0463 -0.0734
  996loPI   C2B15266  16.489   4.280   7.439 -0.1310  0.2057  0.0993
  996loPI   C3B15267  16.562   4.200   7.859  0.0968 -0.3417 -0.1187
  996loPI   C4B15268  16.642   4.368   8.240 -0.2911 -0.2233 -0.0638
  997loPI    C115269   0.514   8.139   5.802 -0.2219  0.0359  0.0582
  997loPI    C215270   0.585   8.476   6.004 -0.0914  0.0806 -0.0610
  997loPI    C315271   0.750   8.420   5.645  0.0355 -0.1884  0.0366
  997loPI   PO415272   0.387   8.019   6.072 -0.0329 -0.0255  0.0295
  997loPI   GL115273   0.456   7.807   6.460 -0.1376  0.0840  0.0798
  997loPI   GL215274   0.451   7.512   6.574 -0.0640 -0.0111  0.0605
  997loPI   C1A15275   0.586   7.933   6.853 -0.0169  0.2741  0.0222
  997loPI   C2A15276   0.683   7.855   7.217 -0.1349 -0.0309  0.1684
  997loPI   C3A15277   0.579   7.926   7.635 -0.0349 -0.0360 -0.0611
  997loPI   C4A15278   0.426   8.026   8.008  0.1232  0.0095  0.0399
  997loPI   C5A15279   0.599   7.967   8.443  0.0478  0.0988  0.2802
  997loPI   C6A15280   0.722   8.154   8.822  0.0632 -0.0181 -0.3649
  997loPI   C1B15281   0.422   7.480   7.028 -0.1621  0.0286  0.2167
  997loPI   C2B15282   0.352   7.486   7.452  0.2479  0.1966  0.0660
  997loPI   C3B15283   0.334   7.489   7.852 -0.0569 -0.1480  0.1723
  997loPI   C4B15284   0.309   7.513   8.305  0.0499  0.1709 -0.0352
  998loPI    C115285   2.437   9.000   6.032  0.0214  0.0527 -0.0008
  998loPI    C215286   2.606   8.664   6.167  0.0045  0.0759  0.0786
  998loPI    C315287   2.693   8.798   5.801 -0.0361 -0.0481  0.0230
  998loPI   PO415288   2.246   9.134   6.210  0.0540 -0.1353 -0.0707
  998loPI   GL115289   2.327   9.193   6.571 -0.1288  0.2791 -0.0153
  998loPI   GL215290   2.557   8.966   6.611 -0.3115 -0.3471 -0.2141
  998loPI   C1A15291   2.410   9.303   7.016 -0.1273 -0.2011  0.0981
  998loPI   C2A15292   2.451   9.226   7.372 -0.0425 -0.2599 -0.1305
  998loPI   C3A15293   2.329   9.218   7.787  0.0958 -0.0047  0.0538
  998loPI   C4A15294   2.246   9.250   8.194 -0.1647 -0.1983  0.0254
  998loPI   C5A15295   2.433   9.350   8.633 -0.0086 -0.0750  0.2509
  998loPI   C6A15296   2.334   9.522   9.021  0.1483  0.3875 -0.1897
  998loPI   C1B15297   2.578   8.732   7.008  0.2375  0.2477 -0.0890
  998loPI   C2B15298   2.689   8.826   7.391  0.0762 -0.0264 -0.1100
  998loPI   C3B15299   2.641   8.814   7.806  0.0029 -0.3400 -0.2365
  998loPI   C4B15300   2.504   8.780   8.263 -0.1292  0.1939  0.2019
  999loPI    C115301  13.083   1.685   5.995 -0.2518 -0.0051  0.0619
  999loPI    C215302  12.819   1.426   6.148 -0.1254 -0.3380 -0.2692
  999loPI    C315303  12.974   1.363   5.785  0.1845  0.0134 -0.2039
  999loPI   PO415304  13.037   1.857   6.079 -0.1854 -0.0134  0.1261
  999loPI   GL115305  12.891   1.839   6.462 -0.0965  0.0937  0.1178
  999loPI   GL215306  12.583   1.783   6.397  0.0219  0.3842  0.0779
  999loPI   C1A15307  12.848   1.839   6.926  0.3838 -0.0674  0.1172
  999loPI   C2A15308  12.817   1.879   7.364 -0.0835  0.0599 -0.2573
  999loPI   C3A15309  12.807   1.824   7.839  0.0105 -0.1998  0.0752
  999loPI   C4A15310  12.883   1.936   8.348  0.0125  0.1567 -0.2208
  999loPI   C5A15311  13.134   1.731   8.693 -0.2243  0.0799 -0.0008
  999loPI   C6A15312  13.256   1.624   9.016  0.1438  0.1348 -0.1721
  999loPI   C1B15313  12.325   1.777   6.753 -0.0616  0.1544 -0.0239
  999loPI   C2B15314  12.253   1.807   7.194 -0.0935 -0.0593  0.0887
  999loPI   C3B15315  12.213   1.740   7.663 -0.3841  0.1071  0.0557
  999loPI   C4B15316  12.312   1.752   8.184  0.0581 -0.0982  0.2351
 1000loPI    C115317  13.290  12.652   5.827 -0.2474 -0.0143 -0.0045
 1000loPI    C215318  13.362  12.303   5.645  0.3673  0.1123 -0.0261
 1000loPI    C315319  13.211  12.610   5.437 -0.0127 -0.0826 -0.0465
 1000loPI   PO415320  13.197  12.652   6.037  0.2546  0.2773  0.2823
 1000loPI   GL115321  13.066  12.463   6.418  0.1706  0.1245 -0.2462
 1000loPI   GL215322  13.065  12.748   6.531 -0.0046 -0.0392 -0.3252
 1000loPI   C1A15323  13.259  12.330   6.742 -0.1380 -0.0244  0.2298
 1000loPI   C2A15324  13.252  12.364   7.164 -0.1204  0.2864 -0.2113
 1000loPI   C3A15325  13.157  12.476   7.516 -0.1712  0.1654 -0.1826
 1000loPI   C4A15326  13.052  12.456   8.007  0.0506  0.4204  0.2953
 1000loPI   C5A15327  12.913  12.401   8.306 -0.0512  0.0071 -0.1535
 1000loPI   C6A15328  12.808  12.536   8.738  0.3942  0.1720 -0.2566
 1000loPI   C1B15329  12.912  12.880   6.976 -0.1897 -0.0877  0.0352
 1000loPI   C2B15330  12.872  12.847   7.453 -0.0146  0.1019  0.1318
 1000loPI   C3B15331  12.807  12.878   7.827 -0.3473  0.2593  0.1160
 1000loPI   C4B15332  12.762  12.858   8.264  0.4024 -0.0268  0.0951
 1001loPI    C115333   8.256  16.883   6.079 -0.0815 -0.2049 -0.1185
 1001loPI    C215334   8.067  16.665   5.801 -0.0598 -0.0360 -0.2674
 1001loPI    C315335   8.267  16.995   5.695 -0.2304  0.1502 -0.0236
 1001loPI   PO415336   8.116  16.860   6.257  0.1786  0.0150 -0.1416
 1001loPI   GL115337   8.004  16.753   6.687  0.1620 -0.0399 -0.0407
 1001loPI   GL215338   8.340  16.718   6.678 -0.3283  0.2239  0.1381
 1001loPI   C1A15339   7.911  16.826   7.081 -0.0391 -0.2199  0.2163
 1001loPI   C2A15340   7.810  16.872   7.480 -0.1287  0.3397  0.1089
 1001loPI   C3A15341   7.850  16.921   7.906 -0.0226 -0.0403  0.1976
 1001loPI   C4A15342   8.042  16.931   8.334  0.0807 -0.5159  0.1055
 1001loPI   C5A15343   8.108  17.255   8.625 -0.1081  0.2118 -0.0871
 1001loPI   C6A15344   7.970  17.518   8.888  0.3725  0.2459  0.0089
 1001loPI   C1B15345   8.452  16.819   7.147 -0.0687 -0.1902  0.0754
 1001loPI   C2B15346   8.373  16.855   7.543 -0.0145  0.1568 -0.3054
 1001loPI   C3B15347   8.334  16.967   7.912 -0.1705  0.3602  0.0871
 1001loPI   C4B15348   8.507  17.021   8.377 -0.0237 -0.0562 -0.0949
 1002loPI    C115349   1.200  14.460   6.146 -0.0985 -0.2319 -0.0028
 1002loPI    C215350   1.482  14.457   5.862  0.0077 -0.2563  0.1021
 1002loPI    C315351   1.104  14.366   5.769 -0.0048 -0.0286 -0.0791
 1002loPI   PO415352   1.280  14.692   6.256  0.0451  0.0725  0.3920
 1002loPI   GL115353   1.304  14.797   6.574 -0.2408 -0.1396  0.2213
 1002loPI   GL215354   1.582  14.819   6.772  0.1335 -0.1010 -0.2894
 1002loPI   C1A15355   1.146  14.932   6.978  0.3441 -0.3129  0.0336
 1002loPI   C2A15356   1.137  14.965   7.440 -0.0722 -0.0788  0.1879
 1002loPI   C3A15357   1.178  14.861   7.860 -0.3102 -0.1505  0.2525
 1002loPI   C4A15358   1.100  14.786   8.277 -0.1121  0.0072  0.0365
 1002loPI   C5A15359   1.087  14.904   8.624  0.1664 -0.1407 -0.0579
 1002loPI   C6A15360   0.976  14.844   9.058  0.1693  0.0407 -0.0650
 1002loPI   C1B15361   1.694  14.878   7.140  0.0330 -0.2192  0.1001
 1002loPI   C2B15362   1.714  14.920   7.658  0.3280 -0.0003 -0.0768
 1002loPI   C3B15363   1.645  14.868   8.110  0.1266 -0.2519  0.1676
 1002loPI   C4B15364   1.628  15.018   8.520 -0.0842  0.0087 -0.0598
 1003loPI    C115365   2.484   3.770   5.791 -0.1285 -0.0633  0.0386
 1003loPI    C215366   2.091   3.794   5.725 -0.1379  0.1818  0.1724
 1003loPI    C315367   2.341   3.729   5.420 -0.2922 -0.1303  0.1082
 1003loPI   PO415368   2.558   3.902   5.965  0.3032 -0.0359  0.2895
 1003loPI   GL115369   2.724   3.862   6.432 -0.1068 -0.3090  0.1121
 1003loPI   GL215370   2.394   3.833   6.437 -0.2490  0.0459  0.0098
 1003loPI   C1A15371   2.613   3.835   6.874  0.2791 -0.1639  0.0711
 1003loPI   C2A15372   2.600   3.873   7.358 -0.0538 -0.3297 -0.1302
 1003loPI   C3A15373   2.650   3.902   7.792 -0.1342 -0.1511 -0.1485
 1003loPI   C4A15374   2.612   3.867   8.241  0.2342  0.2179 -0.0496
 1003loPI   C5A15375   2.938   3.690   8.539 -0.0375 -0.4176  0.1110
 1003loPI   C6A15376   3.134   3.312   8.631  0.1831  0.1353  0.0318
 1003loPI   C1B15377   2.116   3.733   6.778  0.0823 -0.0633  0.1397
 1003loPI   C2B15378   2.058   3.746   7.256  0.1040  0.2900  0.2327
 1003loPI   C3B15379   2.016   3.817   7.666 -0.1770 -0.0603  0.0095
 1003loPI   C4B15380   2.131   3.867   8.137  0.0712 -0.2631  0.1218
 1004loPI    C115381   0.089  11.987   6.255  0.0068  0.2597 -0.0633
 1004loPI    C215382  -0.183  12.132   5.999 -0.0634  0.0168 -0.1286
 1004loPI    C315383  -0.050  11.757   5.959  0.0296  0.0227  0.1080
 1004loPI   PO415384   0.032  11.979   6.498  0.0831 -0.0244 -0.1543
 1004loPI   GL115385  -0.272  11.777   6.843  0.0534  0.1090  0.0801
 1004loPI   GL215386  -0.184  12.087   6.988  0.0511 -0.1425  0.0169
 1004loPI   C1A15387  -0.459  11.632   7.244  0.0039 -0.3057 -0.1942
 1004loPI   C2A15388  -0.504  11.532   7.618  0.3674  0.2351  0.0796
 1004loPI   C3A15389  -0.559  11.578   8.076  0.0772  0.2344 -0.1369
 1004loPI   C4A15390  -0.681  11.508   8.441 -0.2565  0.1278  0.1174
 1004loPI   C5A15391  -0.725  11.389   8.829  0.0967 -0.2085 -0.0071
 1004loPI   C6A15392  -0.618  11.499   9.279  0.2055 -0.1180 -0.2236
 1004loPI   C1B15393  -0.211  12.043   7.494 -0.1710  0.1099 -0.0156
 1004loPI   C2B15394  -0.236  12.026   7.935 -0.0464  0.1604  0.1054
 1004loPI   C3B15395  -0.361  11.962   8.319  0.1650  0.0518 -0.0970
 1004loPI   C4B15396  -0.595  11.841   8.770 -0.3083 -0.1536 -0.0592
 1005loPI    C115397  10.189  11.544   5.997  0.0421  0.0640 -0.0133
 1005loPI    C215398  10.181  11.281   5.695 -0.0713  0.0129  0.0339
 1005loPI    C315399  10.301  11.656   5.630  0.1438 -0.0646 -0.0225
 1005loPI   PO415400  10.294  11.394   6.217 -0.1486 -0.3925 -0.1152
 1005loPI   GL115401  10.294  11.214   6.555 -0.2624 -0.1254  0.1383
 1005loPI   GL215402  10.556  10.977   6.574 -0.1828  0.1850 -0.1110
 1005loPI   C1A15403  10.150  11.352   6.945  0.0618 -0.1145  0.1215
 1005loPI   C2A15404  10.141  11.340   7.389 -0.1683  0.3343  0.2499
 1005loPI   C3A15405  10.114  11.363   7.883  0.1149  0.3621 -0.1018
 1005loPI   C4A15406   9.973  11.458   8.319 -0.2265  0.1482 -0.1034
 1005loPI   C5A15407   9.711  11.318   8.747 -0.0218 -0.0256  0.2619
 1005loPI   C6A15408   9.290  11.382   8.790  0.0316 -0.1719  0.2764
 1005loPI   C1B15409  10.425  10.946   7.032  0.0549 -0.0283 -0.0155
 1005loPI   C2B15410  10.497  10.917   7.479  0.4104 -0.3926  0.4572
 1005loPI   C3B15411  10.332  10.895   7.817 -0.0719  0.1425 -0.0498
 1005loPI   C4B15412  10.285  10.981   8.244  0.1825  0.1131 -0.2209
 1006loPI    C115413   9.776  17.118   5.881  0.1269 -0.1261 -0.0061
 1006loPI    C215414   9.598  16.996   5.544  0.0354  0.1891 -0.0748
 1006loPI    C315415   9.969  16.874   5.630 -0.0428 -0.1110 -0.1533
 1006loPI   PO415416   9.658  17.065   6.062 -0.1422 -0.0852  0.0152
 1006loPI   GL115417   9.578  16.949   6.470 -0.0953 -0.2590  0.3711
 1006loPI   GL215418   9.843  16.949   6.672 -0.0084 -0.0112 -0.2612
 1006loPI   C1A15419   9.440  16.831   6.916 -0.2794  0.0995 -0.1909
 1006loPI   C2A15420   9.413  16.851   7.434  0.0390 -0.1831 -0.1472
 1006loPI   C3A15421   9.415  16.849   7.846 -0.0508  0.0186 -0.0044
 1006loPI   C4A15422   9.421  17.017   8.221 -0.1286  0.0546 -0.1705
 1006loPI   C5A15423   9.367  16.717   8.577 -0.0681 -0.0869 -0.1774
 1006loPI   C6A15424   9.396  16.531   9.058  0.2695  0.0075 -0.1452
 1006loPI   C1B15425   9.878  16.849   7.142 -0.2320  0.0873  0.1316
 1006loPI   C2B15426   9.919  16.937   7.547 -0.3938  0.2758 -0.0735
 1006loPI   C3B15427   9.984  16.985   7.989  0.0608 -0.0967  0.0053
 1006loPI   C4B15428  10.179  16.980   8.391  0.0724 -0.0171  0.0564
 1007loPI    C115429   2.351  11.154   6.023  0.0217 -0.0140 -0.1533
 1007loPI    C215430   2.319  11.248   5.635 -0.0896 -0.0426 -0.1512
 1007loPI    C315431   2.077  10.972   5.795 -0.0408 -0.0343 -0.0624
 1007loPI   PO415432   2.339  11.384   6.273 -0.0828  0.3033  0.4276
 1007loPI   GL115433   2.582  11.552   6.608 -0.1938  0.3099  0.0611
 1007loPI   GL215434   2.353  11.575   6.799 -0.0789  0.1574  0.1232
 1007loPI   C1A15435   2.877  11.312   6.942  0.1148 -0.1213 -0.1363
 1007loPI   C2A15436   3.025  11.385   7.362  0.0924  0.0262  0.1474
 1007loPI   C3A15437   2.950  11.439   7.778 -0.1765 -0.3266  0.0706
 1007loPI   C4A15438   2.878  11.380   8.103 -0.2214 -0.1650 -0.2365
 1007loPI   C5A15439   3.054  11.317   8.413 -0.0342  0.0409  0.0971
 1007loPI   C6A15440   3.093  11.558   8.680  0.0709 -0.4449  0.3019
 1007loPI   C1B15441   2.162  11.862   7.189  0.0097 -0.2537 -0.1041
 1007loPI   C2B15442   2.085  11.760   7.507 -0.0077 -0.3141 -0.2258
 1007loPI   C3B15443   2.122  11.777   7.956 -0.0133 -0.0276 -0.1746
 1007loPI   C4B15444   2.135  11.668   8.411 -0.1043  0.0644 -0.0258
 1008loPI    C115445   3.786   9.651   5.625  0.0093  0.0458  0.0835
 1008loPI    C215446   3.656   9.348   5.399  0.1907 -0.1422  0.2277
 1008loPI    C315447   3.969   9.566   5.279  0.2186 -0.1727  0.2445
 1008loPI   PO415448   3.892   9.536   5.959 -0.2121 -0.0840 -0.1327
 1008loPI   GL115449   3.991   9.500   6.403 -0.1774 -0.0358  0.0239
 1008loPI   GL215450   3.622   9.686   6.383 -0.2318  0.0027  0.0382
 1008loPI   C1A15451   4.243   9.583   6.779 -0.0935 -0.3877  0.1314
 1008loPI   C2A15452   4.170   9.655   7.167  0.1079 -0.0496 -0.0682
 1008loPI   C3A15453   4.150   9.720   7.597  0.1543  0.0445 -0.2452
 1008loPI   C4A15454   4.207   9.729   8.095 -0.1106  0.3371  0.2683
 1008loPI   C5A15455   4.094   9.714   8.543 -0.3029  0.0583  0.1671
 1008loPI   C6A15456   4.362   9.592   8.921  0.0597 -0.1243 -0.0938
 1008loPI   C1B15457   3.680   9.594   6.798 -0.1682 -0.1788  0.0959
 1008loPI   C2B15458   3.677   9.708   7.286  0.1901  0.0223  0.1818
 1008loPI   C3B15459   3.641   9.705   7.668 -0.1340 -0.3474  0.3431
 1008loPI   C4B15460   3.570   9.711   8.113  0.1336  0.0879  0.0281
 1009loPI    C115461  15.580  10.516   5.991  0.1799 -0.3013  0.1990
 1009loPI    C215462  15.680  10.859   5.812  0.0433 -0.1591  0.3901
 1009loPI    C315463  15.650  10.522   5.598 -0.0791 -0.0008  0.1539
 1009loPI   PO415464  15.503  10.552   6.216 -0.0488 -0.0945 -0.1401
 1009loPI   GL115465  15.462  10.466   6.591  0.0001 -0.1804 -0.1852
 1009loPI   GL215466  15.473  10.851   6.680  0.0284 -0.1590 -0.0283
 1009loPI   C1A15467  15.638  10.197   6.804  0.0582  0.2043  0.0547
 1009loPI   C2A15468  15.587  10.213   7.250 -0.0443  0.1226 -0.1351
 1009loPI   C3A15469  15.556  10.143   7.665 -0.2929 -0.2062 -0.1898
 1009loPI   C4A15470  15.586  10.065   8.021  0.1006  0.1691  0.0879
 1009loPI   C5A15471  15.507  10.120   8.418  0.2164  0.1615 -0.0453
 1009loPI   C6A15472  15.702   9.948   8.847 -0.0226 -0.2582 -0.0649
 1009loPI   C1B15473  15.454  10.664   7.074  0.0105 -0.1218  0.2428
 1009loPI   C2B15474  15.407  10.586   7.526 -0.0286 -0.4968  0.1312
 1009loPI   C3B15475  15.335  10.571   7.881 -0.0363  0.2232 -0.1900
 1009loPI   C4B15476  15.246  10.626   8.300  0.1206  0.1108 -0.1099
 1010loPI    C115477   6.090   1.121   5.707 -0.0754 -0.2038 -0.0577
 1010loPI    C215478   6.294   1.155   5.364 -0.2305 -0.0915 -0.1400
 1010loPI    C315479   6.289   0.806   5.560  0.2080 -0.0419 -0.0286
 1010loPI   PO415480   6.078   1.315   6.035 -0.0419 -0.0144  0.0352
 1010loPI   GL115481   6.446   1.334   6.346 -0.0268 -0.2939  0.2042
 1010loPI   GL215482   6.550   1.631   6.446 -0.0525  0.1325  0.2414
 1010loPI   C1A15483   6.361   1.248   6.679 -0.1390  0.0547  0.1206
 1010loPI   C2A15484   6.420   1.235   7.107 -0.1985 -0.3263  0.1046
 1010loPI   C3A15485   6.364   1.253   7.525 -0.1239  0.0465 -0.0078
 1010loPI   C4A15486   6.252   1.209   7.940 -0.0700 -0.0104 -0.1575
 1010loPI   C5A15487   6.191   1.342   8.430  0.2153 -0.2457  0.1342
 1010loPI   C6A15488   6.207   1.672   8.685 -0.3383 -0.0992 -0.1599
 1010loPI   C1B15489   6.598   1.658   6.920  0.0738 -0.0584 -0.1119
 1010loPI   C2B15490   6.670   1.646   7.303 -0.2219  0.0504  0.1700
 1010loPI   C3B15491   6.605   1.725   7.706  0.1823  0.1108 -0.2588
 1010loPI   C4B15492   6.530   1.664   8.213  0.2955  0.1440  0.2273
 1011loPI    C115493   4.231   2.030   5.785  0.0118 -0.1516 -0.0295
 1011loPI    C215494   3.905   2.025   6.016 -0.0086 -0.2637 -0.0603
 1011loPI    C315495   3.948   2.308   5.737 -0.1993 -0.3954 -0.2258
 1011loPI   PO415496   4.375   1.818   5.955 -0.4225 -0.3589  0.0357
 1011loPI   GL115497   4.483   1.762   6.369  0.0580  0.1499  0.0044
 1011loPI   GL215498   4.221   2.076   6.462 -0.0037  0.0021 -0.0235
 1011loPI   C1A15499   4.495   1.659   6.804 -0.1633  0.0765 -0.1790
 1011loPI   C2A15500   4.452   1.624   7.213 -0.0637  0.3678  0.0261
 1011loPI   C3A15501   4.490   1.607   7.578 -0.0985 -0.1611 -0.5688
 1011loPI   C4A15502   4.464   1.688   8.056 -0.1690  0.0071  0.0351
 1011loPI   C5A15503   4.461   1.784   8.532 -0.1509  0.0255  0.1881
 1011loPI   C6A15504   4.317   1.675   8.836  0.1896 -0.0038 -0.1669
 1011loPI   C1B15505   4.256   2.059   6.932  0.0074 -0.1428  0.1512
 1011loPI   C2B15506   4.142   2.063   7.314  0.0455  0.0068 -0.0216
 1011loPI   C3B15507   4.184   2.180   7.777  0.0470  0.2379  0.1958
 1011loPI   C4B15508   4.187   2.086   8.249  0.0896  0.1016 -0.2602
 1012loPI    C115509   0.208   1.262   6.018 -0.1547 -0.3190 -0.0744
 1012loPI    C215510  -0.063   1.126   5.757 -0.1242  0.0673 -0.3168
 1012loPI    C315511   0.174   1.432   5.657 -0.0054  0.1220  0.1117
 1012loPI   PO415512   0.031   1.296   6.247 -0.1370 -0.3316  0.1166
 1012loPI   GL115513  -0.174   1.159   6.712 -0.2485  0.1842  0.1523
 1012loPI   GL215514  -0.495   1.164   6.611 -0.0280  0.0211  0.0754
 1012loPI   C1A15515   0.098   1.094   7.108  0.1673  0.1404 -0.1777
 1012loPI   C2A15516   0.090   1.158   7.543  0.1043 -0.0529  0.0650
 1012loPI   C3A15517   0.128   1.033   7.919  0.0344 -0.0124 -0.0178
 1012loPI   C4A15518   0.141   1.048   8.311  0.1159  0.0401  0.0071
 1012loPI   C5A15519   0.161   1.352   8.730  0.1739  0.0007  0.2617
 1012loPI   C6A15520   0.068   1.463   9.123 -0.2075 -0.0023  0.1664
 1012loPI   C1B15521  -0.478   1.007   7.086 -0.0697  0.0581 -0.0048
 1012loPI   C2B15522  -0.430   1.062   7.529 -0.1805  0.2712 -0.1212
 1012loPI   C3B15523  -0.381   0.972   7.973  0.0064 -0.0858  0.0596
 1012loPI   C4B15524  -0.339   1.016   8.415  0.0251 -0.2025 -0.1857
 1013loPI    C115525  13.458   4.325   5.801 -0.1413 -0.0028  0.0555
 1013loPI    C215526  13.287   4.024   5.600  0.1213 -0.1482  0.0450
 1013loPI    C315527  13.558   4.256   5.420 -0.1661  0.1741  0.0159
 1013loPI   PO415528  13.548   4.269   6.098  0.1718  0.2427 -0.0237
 1013loPI   GL115529  13.493   4.049   6.491  0.1815 -0.0471  0.1858
 1013loPI   GL215530  13.219   4.363   6.474 -0.2182 -0.1908 -0.1767
 1013loPI   C1A15531  13.521   4.015   6.958  0.0466 -0.4567 -0.1013
 1013loPI   C2A15532  13.540   4.141   7.402  0.1985  0.0300 -0.2178
 1013loPI   C3A15533  13.478   4.239   7.797 -0.1445  0.2362 -0.0214
 1013loPI   C4A15534  13.489   4.209   8.196 -0.0553 -0.3331  0.1562
 1013loPI   C5A15535  13.839   4.314   8.315  0.2034 -0.3407 -0.1667
 1013loPI   C6A15536  13.715   4.707   8.692  0.1100 -0.1626  0.1669
 1013loPI   C1B15537  12.805   4.406   6.732  0.2314 -0.2749  0.1248
 1013loPI   C2B15538  12.637   4.619   7.069 -0.2851  0.2472  0.1184
 1013loPI   C3B15539  12.772   4.582   7.585  0.1650  0.0291  0.4023
 1013loPI   C4B15540  12.647   4.603   8.018 -0.0018  0.2370 -0.2874
 1014loPI    C115541   0.011   2.753   6.012  0.1029  0.2257 -0.0641
 1014loPI    C215542   0.276   2.741   5.712  0.0764  0.1271 -0.0839
 1014loPI    C315543  -0.115   2.778   5.633  0.0868  0.3166 -0.0532
 1014loPI   PO415544   0.112   3.018   6.148  0.0757 -0.0671 -0.2716
 1014loPI   GL115545   0.201   2.862   6.597  0.0708 -0.1348 -0.1974
 1014loPI   GL215546   0.191   3.286   6.560  0.0279  0.0619 -0.0684
 1014loPI   C1A15547   0.058   3.001   7.032 -0.0505 -0.0430 -0.1085
 1014loPI   C2A15548   0.031   2.905   7.467 -0.2455 -0.0393  0.3167
 1014loPI   C3A15549  -0.086   2.950   7.965 -0.2883  0.0974  0.0990
 1014loPI   C4A15550  -0.039   2.853   8.395 -0.0697 -0.1993  0.0364
 1014loPI   C5A15551  -0.081   2.827   8.807  0.2253  0.1537  0.1039
 1014loPI   C6A15552   0.023   2.856   9.110  0.1833 -0.2034 -0.3236
 1014loPI   C1B15553   0.241   3.444   6.927  0.0671 -0.0186  0.1486
 1014loPI   C2B15554   0.254   3.436   7.368  0.0766 -0.2421 -0.1352
 1014loPI   C3B15555   0.237   3.342   7.838 -0.1006  0.0017  0.1246
 1014loPI   C4B15556   0.178   3.459   8.251  0.2317  0.0152 -0.1606
 1015loPI    C115557  17.099  11.323   6.019  0.0022  0.0013  0.1194
 1015loPI    C215558  17.093  11.000   5.783  0.1143  0.0107  0.1032
 1015loPI    C315559  17.064  11.366   5.623  0.0744  0.0124  0.1142
 1015loPI   PO415560  16.919  11.324   6.142 -0.2131  0.3793  0.1789
 1015loPI   GL115561  16.813  11.298   6.510  0.2001 -0.0585  0.1159
 1015loPI   GL215562  17.095  11.203   6.738  0.1713  0.1593  0.0032
 1015loPI   C1A15563  16.554  11.083   6.812 -0.0669 -0.1060  0.1131
 1015loPI   C2A15564  16.734  11.125   7.203 -0.0305 -0.2571 -0.3096
 1015loPI   C3A15565  16.650  11.106   7.610 -0.1203 -0.1013  0.0123
 1015loPI   C4A15566  16.593  11.159   7.958 -0.1580 -0.4124 -0.1860
 1015loPI   C5A15567  16.499  11.080   8.399 -0.0985  0.0476  0.2711
 1015loPI   C6A15568  16.482  10.940   8.828 -0.1063  0.0919 -0.2553
 1015loPI   C1B15569  17.221  11.158   7.101 -0.3031  0.2025  0.2011
 1015loPI   C2B15570  17.147  11.103   7.506 -0.0926  0.0686  0.2179
 1015loPI   C3B15571  17.076  11.044   7.937 -0.0072  0.1688 -0.0579
 1015loPI   C4B15572  17.009  11.091   8.438 -0.0907 -0.0564  0.0729
 1016loPI    C115573  13.273   5.743   5.676  0.0478  0.0290  0.0199
 1016loPI    C215574  13.293   6.054   5.425  0.0263  0.1285  0.1402
 1016loPI    C315575  13.217   5.687   5.284  0.1244  0.1653 -0.0111
 1016loPI   PO415576  13.505   5.821   5.824  0.1271 -0.2131 -0.2131
 1016loPI   GL115577  13.628   5.973   6.265  0.2463 -0.3193 -0.0808
 1016loPI   GL215578  13.659   5.689   6.376  0.0336 -0.0240  0.1891
 1016loPI   C1A15579  13.930   6.041   6.596 -0.2783 -0.1827  0.1577
 1016loPI   C2A15580  13.980   6.009   6.982  0.1407  0.0611  0.0692
 1016loPI   C3A15581  13.903   5.965   7.382 -0.2251 -0.2078  0.0108
 1016loPI   C4A15582  13.916   5.991   7.859 -0.0925  0.1763  0.0687
 1016loPI   C5A15583  13.893   6.130   8.234 -0.1978 -0.0606  0.1893
 1016loPI   C6A15584  14.070   6.403   8.497 -0.1773 -0.3510  0.1088
 1016loPI   C1B15585  13.710   5.630   6.769 -0.0079  0.0950 -0.2508
 1016loPI   C2B15586  13.716   5.540   7.226 -0.3655  0.2182  0.0912
 1016loPI   C3B15587  13.697   5.547   7.632  0.4118  0.1283 -0.0744
 1016loPI   C4B15588  13.680   5.591   8.037  0.3659  0.2821  0.1098
 1017loPI    C115589  13.746  13.375   6.043  0.2488  0.0795  0.1262
 1017loPI    C215590  14.055  13.554   5.863  0.2031  0.0723  0.0400
 1017loPI    C315591  13.841  13.279   5.667  0.0201  0.2194  0.0310
 1017loPI   PO415592  13.844  13.339   6.325  0.0254  0.1483 -0.1617
 1017loPI   GL115593  13.737  13.246   6.699 -0.2310 -0.0797 -0.0270
 1017loPI   GL215594  13.835  12.894   6.855 -0.6070  0.0522 -0.0542
 1017loPI   C1A15595  13.631  13.315   7.149 -0.0861  0.1886 -0.2161
 1017loPI   C2A15596  13.633  13.330   7.628 -0.2333  0.0621 -0.2662
 1017loPI   C3A15597  13.558  13.317   8.045 -0.0095  0.1436  0.0145
 1017loPI   C4A15598  13.551  13.321   8.468  0.1428 -0.0128  0.0868
 1017loPI   C5A15599  13.657  12.969   8.742 -0.2982 -0.3438 -0.1885
 1017loPI   C6A15600  13.733  12.614   9.036  0.2827 -0.0478 -0.0591
 1017loPI   C1B15601  13.893  12.910   7.395  0.0855  0.2998 -0.0407
 1017loPI   C2B15602  13.879  12.874   7.810 -0.2800 -0.1308 -0.1741
 1017loPI   C3B15603  13.880  12.853   8.190 -0.0893  0.0629 -0.0788
 1017loPI   C4B15604  13.822  12.527   8.547  0.0849 -0.0114 -0.1918
 1018loPI    C115605   1.604   9.430   5.939 -0.0287  0.0709  0.2930
 1018loPI    C215606   1.945   9.314   5.764 -0.0777  0.2345  0.0846
 1018loPI    C315607   1.616   9.090   5.728  0.0997 -0.1329  0.6211
 1018loPI   PO415608   1.733   9.500   6.149 -0.0490 -0.1075 -0.1312
 1018loPI   GL115609   1.790   9.519   6.547 -0.0024 -0.5162 -0.2205
 1018loPI   GL215610   1.803   9.215   6.671 -0.0466 -0.2148  0.1284
 1018loPI   C1A15611   2.028   9.596   6.975 -0.0194  0.1366 -0.1695
 1018loPI   C2A15612   2.135   9.573   7.398  0.0275  0.1713 -0.0934
 1018loPI   C3A15613   2.089   9.657   7.931 -0.3165  0.0614 -0.2766
 1018loPI   C4A15614   1.952   9.740   8.330  0.0831 -0.1105  0.0518
 1018loPI   C5A15615   1.548   9.625   8.575  0.1667  0.0571  0.0081
 1018loPI   C6A15616   1.172   9.436   8.481 -0.3368  0.3190 -0.1622
 1018loPI   C1B15617   1.958   9.148   7.158  0.1483 -0.1218  0.0472
 1018loPI   C2B15618   1.926   9.112   7.475 -0.1183  0.1891 -0.3372
 1018loPI   C3B15619   1.792   9.241   7.816 -0.0744 -0.0774 -0.1427
 1018loPI   C4B15620   1.761   9.301   8.185  0.0024 -0.0187 -0.0985
 1019loPI    C115621   5.289   2.041   5.787  0.2128  0.3272 -0.3129
 1019loPI    C215622   5.550   1.797   5.606 -0.1973 -0.3940  0.0243
 1019loPI    C315623   5.245   1.953   5.399  0.1683 -0.0055 -0.2361
 1019loPI   PO415624   5.349   2.103   5.936 -0.0707  0.1490  0.0297
 1019loPI   GL115625   5.413   2.256   6.278  0.1540  0.1357  0.1949
 1019loPI   GL215626   5.684   2.122   6.312 -0.1207  0.0305 -0.2314
 1019loPI   C1A15627   5.199   2.178   6.667  0.3847  0.0479 -0.1660
 1019loPI   C2A15628   5.233   2.084   7.121 -0.0081 -0.0903 -0.1356
 1019loPI   C3A15629   5.231   2.116   7.613 -0.2029  0.2495  0.0867
 1019loPI   C4A15630   5.203   2.139   7.989 -0.0620  0.2416 -0.1192
 1019loPI   C5A15631   5.273   2.194   8.445 -0.0749  0.1329  0.1613
 1019loPI   C6A15632   5.200   2.181   8.884 -0.3161  0.2127  0.1446
 1019loPI   C1B15633   5.806   2.089   6.703 -0.4303 -0.1502  0.3248
 1019loPI   C2B15634   5.810   2.045   7.166  0.1297 -0.0494 -0.1161
 1019loPI   C3B15635   5.774   2.070   7.625  0.0676 -0.1598 -0.2255
 1019loPI   C4B15636   5.728   2.140   8.044  0.4495  0.0594 -0.2091
 1020loPI    C115637   5.926  10.950   5.787  0.1062 -0.3530  0.1195
 1020loPI    C215638   5.633  10.997   5.519 -0.0270 -0.0661  0.3101
 1020loPI    C315639   5.932  10.742   5.446 -0.2391 -0.2436  0.0425
 1020loPI   PO415640   5.708  10.986   6.019 -0.0870  0.0033  0.1755
 1020loPI   GL115641   5.635  10.868   6.419  0.1443  0.0027 -0.0589
 1020loPI   GL215642   5.434  11.221   6.457 -0.1448  0.0518 -0.0051
 1020loPI   C1A15643   5.763  10.670   6.838 -0.0221  0.0078  0.1023
 1020loPI   C2A15644   5.653  10.582   7.323 -0.2942  0.2125  0.0636
 1020loPI   C3A15645   5.694  10.637   7.787  0.1474 -0.1411 -0.0429
 1020loPI   C4A15646   5.758  10.735   8.338 -0.0125 -0.3335  0.3530
 1020loPI   C5A15647   5.859  10.646   8.812 -0.1223 -0.0724  0.1572
 1020loPI   C6A15648   5.678  10.867   9.214 -0.0409  0.1178 -0.1283
 1020loPI   C1B15649   5.448  11.025   6.879  0.1029 -0.0209  0.0165
 1020loPI   C2B15650   5.398  11.062   7.233 -0.1225  0.1357 -0.3111
 1020loPI   C3B15651   5.359  11.094   7.754  0.0575  0.0182 -0.0596
 1020loPI   C4B15652   5.354  11.008   8.236  0.0673  0.0017  0.1121
 1021loPI    C115653   3.266  14.940   5.966 -0.2324  0.0343 -0.0152
 1021loPI    C215654   3.543  14.860   5.689 -0.1363  0.0334  0.0805
 1021loPI    C315655   3.170  14.954   5.578 -0.1198 -0.0484 -0.0464
 1021loPI   PO415656   3.468  14.806   6.194  0.1276  0.1743 -0.0758
 1021loPI   GL115657   3.408  14.817   6.597 -0.2217 -0.0629 -0.1389
 1021loPI   GL215658   3.317  14.999   6.806 -0.2145 -0.2067 -0.0198
 1021loPI   C1A15659   3.534  14.536   7.027 -0.0827  0.1376 -0.1995
 1021loPI   C2A15660   3.547  14.513   7.481  0.0650 -0.1200  0.1172
 1021loPI   C3A15661   3.493  14.562   7.909 -0.2563  0.3007 -0.0341
 1021loPI   C4A15662   3.617  14.717   8.314  0.0231  0.1503  0.0884
 1021loPI   C5A15663   3.829  14.963   8.729  0.2911 -0.0819  0.0965
 1021loPI   C6A15664   3.764  14.836   9.110 -0.2374  0.1176  0.0747
 1021loPI   C1B15665   3.240  15.008   7.183  0.3049  0.0367 -0.0912
 1021loPI   C2B15666   3.188  15.050   7.635  0.0562 -0.1190  0.0288
 1021loPI   C3B15667   3.260  15.056   7.993  0.0296  0.3047 -0.0786
 1021loPI   C4B15668   3.165  15.024   8.462 -0.0030  0.1221 -0.1602
 1022loPI    C115669   6.861  13.099   6.007 -0.0891 -0.2554  0.0877
 1022loPI    C215670   6.692  13.070   5.646  0.0067  0.0873  0.0113
 1022loPI    C315671   7.090  13.090   5.678  0.0039 -0.0556  0.1454
 1022loPI   PO415672   6.728  12.885   6.177 -0.1795 -0.1060 -0.0516
 1022loPI   GL115673   6.821  12.793   6.559  0.2193 -0.2360  0.0343
 1022loPI   GL215674   6.926  13.065   6.662  0.2102  0.0442 -0.1627
 1022loPI   C1A15675   6.761  12.464   6.923 -0.3132  0.1469 -0.0758
 1022loPI   C2A15676   6.647  12.328   7.232  0.0021 -0.0125 -0.0191
 1022loPI   C3A15677   6.611  12.444   7.710 -0.1691  0.1336 -0.0140
 1022loPI   C4A15678   6.582  12.523   8.088 -0.0580  0.1912  0.1978
 1022loPI   C5A15679   6.514  12.803   8.317  0.3037  0.0091 -0.0756
 1022loPI   C6A15680   6.667  13.048   8.729 -0.0366 -0.0352  0.1271
 1022loPI   C1B15681   6.872  13.231   7.066 -0.0405 -0.0819 -0.0271
 1022loPI   C2B15682   6.694  13.243   7.506  0.2104  0.0765  0.0456
 1022loPI   C3B15683   6.456  13.361   7.828  0.2442 -0.2411  0.1897
 1022loPI   C4B15684   6.391  13.344   8.322 -0.0197  0.3241 -0.0539
 1023loPI    C115685  11.682   8.286   5.969 -0.4087 -0.1232  0.3533
 1023loPI    C215686  11.390   8.177   5.718 -0.0549 -0.0918 -0.0853
 1023loPI    C315687  11.666   8.443   5.601  0.3109 -0.3267  0.2186
 1023loPI   PO415688  11.597   8.289   6.149  0.2670  0.0698 -0.1859
 1023loPI   GL115689  11.734   8.198   6.662  0.5363  0.3187 -0.0232
 1023loPI   GL215690  11.880   8.524   6.496 -0.0091  0.1206  0.2286
 1023loPI   C1A15691  11.479   8.180   7.030 -0.1320 -0.4098 -0.2277
 1023loPI   C2A15692  11.503   8.277   7.375 -0.0503 -0.0316 -0.0903
 1023loPI   C3A15693  11.569   8.259   7.836 -0.1996 -0.0461 -0.0647
 1023loPI   C4A15694  11.463   8.337   8.232 -0.1517 -0.0817  0.1066
 1023loPI   C5A15695  11.561   8.178   8.619 -0.3986  0.2441  0.0963
 1023loPI   C6A15696  11.939   7.932   8.746 -0.1117  0.3726 -0.0606
 1023loPI   C1B15697  11.798   8.663   6.782 -0.1579  0.1513 -0.2999
 1023loPI   C2B15698  11.742   8.650   7.213  0.1518 -0.1167  0.1964
 1023loPI   C3B15699  11.820   8.710   7.631  0.1611 -0.0404  0.0330
 1023loPI   C4B15700  11.705   8.765   8.063 -0.0062 -0.0245 -0.2318
 1024loPI    C115701   3.136  15.490   5.899 -0.1946  0.0540  0.1191
 1024loPI    C215702   2.853  15.284   5.705  0.0401  0.0032 -0.1772
 1024loPI    C315703   3.136  15.478   5.499  0.1887  0.1019  0.1138
 1024loPI   PO415704   3.070  15.586   6.033  0.0774 -0.0212  0.2302
 1024loPI   GL115705   3.080  15.608   6.477  0.1313  0.0810  0.0484
 1024loPI   GL215706   3.121  15.844   6.611 -0.2825 -0.1810 -0.2354
 1024loPI   C1A15707   3.030  15.357   6.792 -0.1914  0.0864  0.1961
 1024loPI   C2A15708   2.926  15.368   7.250 -0.1310  0.2582  0.0630
 1024loPI   C3A15709   2.962  15.513   7.650  0.0928 -0.1475  0.0771
 1024loPI   C4A15710   2.955  15.516   8.128  0.0066  0.0206  0.1080
 1024loPI   C5A15711   2.832  15.482   8.537  0.1427  0.0233  0.1367
 1024loPI   C6A15712   2.450  15.230   8.714 -0.1211 -0.1080  0.4574
 1024loPI   C1B15713   3.194  15.842   7.059 -0.2469 -0.0567 -0.2040
 1024loPI   C2B15714   3.374  15.888   7.418  0.3060  0.1157  0.1120
 1024loPI   C3B15715   3.305  15.875   7.869  0.1532 -0.1209 -0.0899
 1024loPI   C4B15716   3.232  15.945   8.330 -0.0875  0.0633  0.0773
 1025loPI    C115717   2.895   6.861   5.796 -0.2332 -0.0495  0.2029
 1025loPI    C215718   2.846   6.474   5.706  0.1036 -0.0802  0.1360
 1025loPI    C315719   3.187   6.660   5.609 -0.1160  0.2756  0.0277
 1025loPI   PO415720   2.791   6.823   6.063  0.3618 -0.0927  0.0522
 1025loPI   GL115721   2.859   6.904   6.410  0.1651  0.1154 -0.0404
 1025loPI   GL215722   2.996   6.693   6.457  0.2361 -0.1067  0.0231
 1025loPI   C1A15723   2.712   6.964   6.824 -0.0010 -0.1855  0.0743
 1025loPI   C2A15724   2.725   7.004   7.276 -0.0222  0.1930 -0.0812
 1025loPI   C3A15725   2.741   7.007   7.752  0.0332 -0.0751  0.0714
 1025loPI   C4A15726   2.576   6.941   8.140 -0.1846  0.1184 -0.1998
 1025loPI   C5A15727   2.690   6.884   8.575 -0.2828 -0.3371  0.1143
 1025loPI   C6A15728   2.890   7.098   8.856 -0.0870 -0.0525  0.2584
 1025loPI   C1B15729   3.019   6.532   6.916 -0.2370 -0.0448  0.1650
 1025loPI   C2B15730   3.058   6.574   7.382  0.2628  0.0865 -0.0994
 1025loPI   C3B15731   2.933   6.541   7.876  0.0700 -0.0729 -0.1288
 1025loPI   C4B15732   2.859   6.496   8.300  0.2466 -0.0178  0.0484
 1026loPI    C115733  14.531  14.201   6.315 -0.2914 -0.1585  0.0052
 1026loPI    C215734  14.377  13.959   6.036 -0.0203 -0.1214 -0.1799
 1026loPI    C315735  14.623  14.257   5.930 -0.1291  0.0624  0.0740
 1026loPI   PO415736  14.466  13.998   6.567 -0.1398  0.1516  0.1228
 1026loPI   GL115737  14.454  13.688   7.013  0.0466 -0.1515  0.1246
 1026loPI   GL215738  14.293  13.471   6.787 -0.1949  0.0472 -0.0369
 1026loPI   C1A15739  14.349  13.860   7.391  0.1286  0.1115  0.0213
 1026loPI   C2A15740  14.333  13.860   7.779 -0.1203  0.1961 -0.0588
 1026loPI   C3A15741  14.407  13.798   8.096  0.1774  0.4002 -0.0261
 1026loPI   C4A15742  14.290  13.824   8.446  0.2320  0.0163 -0.0935
 1026loPI   C5A15743  14.123  13.973   8.865 -0.1064  0.0940 -0.1398
 1026loPI   C6A15744  14.033  14.132   9.236  0.0338  0.0400 -0.1731
 1026loPI   C1B15745  14.157  13.230   7.167  0.0904 -0.0608  0.0339
 1026loPI   C2B15746  14.106  13.383   7.514 -0.1617  0.0727  0.1664
 1026loPI   C3B15747  14.092  13.393   7.971  0.0072 -0.0696  0.0710
 1026loPI   C4B15748  14.089  13.368   8.418  0.0085  0.0348 -0.0225
 1027loPI    C115749   2.303   4.613   5.790 -0.0123 -0.0425  0.3186
 1027loPI    C215750   2.033   4.326   5.720  0.1578 -0.1086 -0.0993
 1027loPI    C315751   2.414   4.272   5.613  0.2964  0.0735  0.2827
 1027loPI   PO415752   2.283   4.731   5.942  0.2162 -0.1648 -0.0536
 1027loPI   GL115753   2.336   4.704   6.380  0.2478  0.1418 -0.1089
 1027loPI   GL215754   2.536   4.729   6.403  0.0276 -0.0677  0.1929
 1027loPI   C1A15755   2.037   4.669   6.692 -0.1731  0.2209 -0.1472
 1027loPI   C2A15756   2.051   4.778   7.145 -0.0140  0.0330  0.4741
 1027loPI   C3A15757   1.976   4.758   7.594 -0.0180  0.1889  0.2502
 1027loPI   C4A15758   2.066   4.733   8.072  0.1371  0.2677 -0.0257
 1027loPI   C5A15759   2.194   4.756   8.463  0.0628  0.0535 -0.3547
 1027loPI   C6A15760   2.184   4.759   8.855 -0.0030  0.0864 -0.0176
 1027loPI   C1B15761   2.632   4.742   6.741  0.1162  0.0473  0.1139
 1027loPI   C2B15762   2.639   4.756   7.221  0.0429 -0.2013 -0.0408
 1027loPI   C3B15763   2.537   4.755   7.676 -0.1122  0.0330 -0.0296
 1027loPI   C4B15764   2.641   4.693   8.067 -0.3305  0.0162 -0.1835
 1028loPI    C115765  16.108   1.524   5.995 -0.1549  0.1586  0.1213
 1028loPI    C215766  15.975   1.266   5.719 -0.0938 -0.1046  0.3340
 1028loPI    C315767  15.826   1.637   5.734 -0.2444 -0.1523  0.0791
 1028loPI   PO415768  16.041   1.405   6.341  0.1285  0.3544 -0.2297
 1028loPI   GL115769  15.803   1.610   6.726  0.0933  0.0240 -0.0170
 1028loPI   GL215770  15.945   1.969   6.670  0.0840 -0.0603  0.1091
 1028loPI   C1A15771  15.643   1.505   7.193 -0.0541  0.3698  0.1452
 1028loPI   C2A15772  15.626   1.428   7.695  0.2103 -0.0852 -0.2508
 1028loPI   C3A15773  15.731   1.461   8.137 -0.1021  0.1561 -0.0655
 1028loPI   C4A15774  15.861   1.490   8.584 -0.1020 -0.2872 -0.0444
 1028loPI   C5A15775  15.826   1.533   8.947 -0.0402 -0.0713  0.1245
 1028loPI   C6A15776  15.856   1.569   9.400 -0.1067 -0.2495  0.4312
 1028loPI   C1B15777  15.946   1.913   7.097  0.0762 -0.3194 -0.2723
 1028loPI   C2B15778  15.879   1.897   7.448  0.2754  0.1490  0.0923
 1028loPI   C3B15779  15.960   1.919   7.925 -0.0013 -0.3465  0.2658
 1028loPI   C4B15780  15.852   1.905   8.340 -0.1417  0.1937 -0.2307
 1029loPI    C115781   7.865  14.691   5.895  0.1320 -0.0401 -0.1231
 1029loPI    C215782   8.064  14.490   5.612  0.1141 -0.0218 -0.1487
 1029loPI    C315783   7.753  14.721   5.512  0.0391 -0.1021 -0.1010
 1029loPI   PO415784   7.747  14.561   6.024  0.1699 -0.0041 -0.1440
 1029loPI   GL115785   7.730  14.790   6.442  0.1022  0.1139 -0.3096
 1029loPI   GL215786   8.055  14.800   6.561 -0.1001 -0.0455 -0.2338
 1029loPI   C1A15787   7.645  14.702   6.895  0.0159 -0.1166 -0.0538
 1029loPI   C2A15788   7.614  14.495   7.200  0.2634  0.3018 -0.0879
 1029loPI   C3A15789   7.657  14.614   7.602 -0.0768  0.3151 -0.0933
 1029loPI   C4A15790   7.772  14.562   8.003  0.1158 -0.0989 -0.1275
 1029loPI   C5A15791   7.761  14.423   8.467 -0.0417 -0.1214 -0.1072
 1029loPI   C6A15792   7.717  14.627   8.765 -0.1494 -0.2923 -0.2218
 1029loPI   C1B15793   7.985  15.020   7.062 -0.0699  0.3109  0.2870
 1029loPI   C2B15794   7.942  15.088   7.540  0.1731 -0.0611  0.0688
 1029loPI   C3B15795   8.000  15.064   7.995  0.1285  0.0185 -0.0440
 1029loPI   C4B15796   8.008  14.834   8.346  0.2382  0.0198  0.1490
 1030loPI    C115797  13.964  16.218   5.736 -0.0456 -0.0457  0.0081
 1030loPI    C215798  13.942  15.968   5.425  0.0144  0.1156 -0.1270
 1030loPI    C315799  14.296  16.114   5.539 -0.0011  0.0174  0.0495
 1030loPI   PO415800  13.905  16.063   6.015  0.1015 -0.1512 -0.1610
 1030loPI   GL115801  13.887  16.259   6.427 -0.2517 -0.1515 -0.0116
 1030loPI   GL215802  13.718  16.084   6.549 -0.2203  0.1805  0.1006
 1030loPI   C1A15803  13.911  16.517   6.839  0.1575  0.1337  0.0096
 1030loPI   C2A15804  13.855  16.497   7.226 -0.2310 -0.1513 -0.2101
 1030loPI   C3A15805  13.960  16.569   7.605  0.4351 -0.0494 -0.1333
 1030loPI   C4A15806  13.960  16.674   8.000  0.0762 -0.0792  0.0961
 1030loPI   C5A15807  13.862  16.591   8.406 -0.1273 -0.1006 -0.2904
 1030loPI   C6A15808  13.800  16.929   8.612  0.0382 -0.3671 -0.1697
 1030loPI   C1B15809  13.559  16.102   6.973  0.0804  0.0931 -0.0424
 1030loPI   C2B15810  13.634  16.076   7.447  0.0366  0.1577  0.1340
 1030loPI   C3B15811  13.690  16.079   7.882 -0.2320  0.0937  0.1777
 1030loPI   C4B15812  13.702  16.081   8.357  0.1699 -0.1726 -0.0912
 1031loPI    C115813  14.176   4.885   5.734 -0.0733  0.1627  0.0086
 1031loPI    C215814  14.363   4.957   5.388 -0.2421 -0.0928 -0.1390
 1031loPI    C315815  14.012   5.132   5.466 -0.1325  0.0813 -0.0307
 1031loPI   PO415816  14.332   4.930   5.893  0.3227  0.1433  0.1617
 1031loPI   GL115817  14.521   4.516   6.148  0.1664  0.1265 -0.1373
 1031loPI   GL215818  14.425   4.790   6.333  0.2600  0.1069 -0.1834
 1031loPI   C1A15819  14.568   4.308   6.571 -0.1390 -0.0052  0.2000
 1031loPI   C2A15820  14.530   4.187   6.988  0.0869 -0.2083 -0.1023
 1031loPI   C3A15821  14.566   4.266   7.456  0.0803 -0.1152 -0.3031
 1031loPI   C4A15822  14.482   4.226   7.906  0.4211  0.1285  0.0472
 1031loPI   C5A15823  14.347   4.222   8.337 -0.1592  0.1855  0.1064
 1031loPI   C6A15824  14.186   4.261   8.759  0.1089 -0.0047 -0.0900
 1031loPI   C1B15825  14.168   4.743   6.596 -0.0005  0.1803 -0.2352
 1031loPI   C2B15826  14.195   4.624   7.043 -0.0422 -0.0533  0.1437
 1031loPI   C3B15827  14.226   4.620   7.506 -0.0643 -0.0242 -0.0957
 1031loPI   C4B15828  14.136   4.600   7.996  0.0913  0.0872 -0.4276
 1032loPI    C115829   3.029   5.877   5.841  0.2627 -0.2467  0.0360
 1032loPI    C215830   3.274   6.144   5.670 -0.1619  0.3209  0.2798
 1032loPI    C315831   2.935   6.037   5.486  0.0541 -0.1449  0.1358
 1032loPI   PO415832   2.972   5.956   6.048  0.2704  0.0541 -0.2277
 1032loPI   GL115833   3.174   5.928   6.441  0.1494  0.0044  0.1472
 1032loPI   GL215834   3.043   6.197   6.545  0.2576  0.2219 -0.0799
 1032loPI   C1A15835   3.147   5.683   6.730  0.3713  0.1223  0.0418
 1032loPI   C2A15836   3.083   5.668   7.181 -0.0630 -0.4261  0.0372
 1032loPI   C3A15837   3.080   5.632   7.609  0.0491  0.1737  0.3013
 1032loPI   C4A15838   2.974   5.662   8.000  0.1746 -0.0459  0.0694
 1032loPI   C5A15839   2.816   5.811   8.386  0.1097  0.0300 -0.1869
 1032loPI   C6A15840   2.854   5.934   8.770  0.2349  0.2625 -0.3866
 1032loPI   C1B15841   3.303   6.075   6.936  0.0559 -0.1407 -0.1882
 1032loPI   C2B15842   3.268   6.078   7.460 -0.1654  0.0028  0.1723
 1032loPI   C3B15843   3.173   6.079   7.918  0.0632 -0.0462  0.0096
 1032loPI   C4B15844   3.172   6.098   8.375  0.2156 -0.1624  0.1740
 1033loPI    C115845  12.132  16.866   5.534  0.3608  0.0424 -0.0376
 1033loPI    C215846  12.042  17.101   5.223  0.1127 -0.1172 -0.0885
 1033loPI    C315847  12.032  16.703   5.183  0.1343 -0.1383  0.1078
 1033loPI   PO415848  12.052  16.987   5.754 -0.2063 -0.1993 -0.1369
 1033loPI   GL115849  12.117  17.020   6.224  0.0637 -0.0186  0.1053
 1033loPI   GL215850  11.877  16.849   6.417 -0.2974 -0.0041 -0.1064
 1033loPI   C1A15851  12.080  17.271   6.544 -0.0352 -0.2228 -0.2364
 1033loPI   C2A15852  12.246  17.362   6.946  0.0239 -0.0321 -0.1202
 1033loPI   C3A15853  12.284  17.366   7.420 -0.2224  0.3664  0.1439
 1033loPI   C4A15854  12.297  17.429   7.908  0.0767  0.2283 -0.3258
 1033loPI   C5A15855  12.270  17.390   8.359 -0.2238 -0.0010  0.3274
 1033loPI   C6A15856  11.915  17.411   8.697 -0.0758  0.1469 -0.0976
 1033loPI   C1B15857  12.021  16.835   6.833 -0.0235  0.3145 -0.0683
 1033loPI   C2B15858  12.045  16.956   7.186  0.2128 -0.2029  0.0336
 1033loPI   C3B15859  12.114  16.959   7.745 -0.3349  0.0188  0.1597
 1033loPI   C4B15860  12.085  16.945   8.188  0.0806 -0.0260 -0.0700
 1034loPI    C115861  15.430  12.621   6.240 -0.1925  0.2004  0.2312
 1034loPI    C215862  15.184  12.828   6.002  0.0425  0.0616 -0.1407
 1034loPI    C315863  15.324  12.472   5.885  0.0310 -0.0875  0.2817
 1034loPI   PO415864  15.326  12.635   6.458  0.4384  0.1451  0.2510
 1034loPI   GL115865  15.568  12.726   6.860 -0.1539  0.1533  0.0078
 1034loPI   GL215866  15.802  12.543   6.939  0.2176  0.1717 -0.0424
 1034loPI   C1A15867  15.596  12.891   7.184  0.2930  0.0998  0.0080
 1034loPI   C2A15868  15.512  12.858   7.592  0.0326  0.0917 -0.0184
 1034loPI   C3A15869  15.493  12.962   8.065 -0.2979  0.0446 -0.1548
 1034loPI   C4A15870  15.527  12.978   8.479 -0.0378  0.0077  0.0586
 1034loPI   C5A15871  15.632  12.873   8.810  0.0058 -0.0336  0.0795
 1034loPI   C6A15872  15.538  12.573   9.138  0.0640 -0.1445  0.1160
 1034loPI   C1B15873  15.792  12.413   7.374  0.0008  0.0597 -0.2213
 1034loPI   C2B15874  15.728  12.527   7.867  0.0673 -0.2938 -0.1291
 1034loPI   C3B15875  15.739  12.491   8.275  0.0140  0.0045 -0.1081
 1034loPI   C4B15876  15.791  12.332   8.692  0.1300 -0.0382  0.3443
 1035loPI    C115877   4.473   3.791   5.887 -0.2787  0.1208 -0.1309
 1035loPI    C215878   4.598   4.076   5.635 -0.0562  0.1363 -0.0061
 1035loPI    C315879   4.828   3.756   5.706 -0.1613  0.0836  0.1015
 1035loPI   PO415880   4.340   3.929   6.025  0.1299 -0.2380 -0.3940
 1035loPI   GL115881   4.321   4.123   6.414  0.1229  0.1999 -0.2192
 1035loPI   GL215882   4.003   4.272   6.368  0.2539  0.0000 -0.1869
 1035loPI   C1A15883   4.253   3.958   6.805  0.1899 -0.0477 -0.2763
 1035loPI   C2A15884   4.246   4.003   7.178 -0.1895 -0.1036 -0.4165
 1035loPI   C3A15885   4.289   3.954   7.650  0.3115 -0.5455  0.3964
 1035loPI   C4A15886   4.337   4.036   8.006 -0.1112  0.0533  0.1863
 1035loPI   C5A15887   4.264   4.022   8.444 -0.2051 -0.3915  0.0928
 1035loPI   C6A15888   4.389   4.277   8.908 -0.0399 -0.0257  0.1762
 1035loPI   C1B15889   3.922   4.374   6.778  0.0419  0.0496 -0.1694
 1035loPI   C2B15890   3.971   4.395   7.185 -0.1952 -0.0853  0.1836
 1035loPI   C3B15891   3.880   4.446   7.533 -0.2202  0.3372 -0.1805
 1035loPI   C4B15892   3.886   4.252   7.871  0.1759 -0.0447  0.1388
 1036loPI    C115893   8.742  11.495   5.797  0.2460 -0.1812  0.0633
 1036loPI    C215894   8.914  11.843   5.700  0.0651 -0.0906  0.0631
 1036loPI    C315895   8.867  11.558   5.423  0.2726 -0.1417  0.0787
 1036loPI   PO415896   8.942  11.391   5.945  0.1602 -0.0407 -0.0410
 1036loPI   GL115897   8.773  11.288   6.335  0.0651 -0.2400 -0.0132
 1036loPI   GL215898   9.031  11.366   6.432 -0.1486  0.3215 -0.1777
 1036loPI   C1A15899   8.629  11.223   6.734 -0.2794  0.0255  0.4012
 1036loPI   C2A15900   8.662  11.230   7.110  0.1787 -0.0053  0.1825
 1036loPI   C3A15901   8.580  11.284   7.550  0.0810 -0.3912  0.0295
 1036loPI   C4A15902   8.524  11.334   8.054  0.0951  0.0348 -0.2214
 1036loPI   C5A15903   8.480  11.506   8.423  0.0842  0.3645  0.0680
 1036loPI   C6A15904   8.319  11.620   8.728  0.2172 -0.1384 -0.1104
 1036loPI   C1B15905   9.234  11.278   6.817  0.0938 -0.0442 -0.1026
 1036loPI   C2B15906   9.160  11.255   7.246 -0.0198 -0.0790  0.1690
 1036loPI   C3B15907   9.100  11.259   7.687  0.0284  0.2442 -0.0028
 1036loPI   C4B15908   9.074  11.392   8.178  0.2269 -0.1048  0.0620
 1037loPI    C115909   1.473   4.458   6.190 -0.0515 -0.1767 -0.0273
 1037loPI    C215910   1.658   4.628   5.879 -0.0587 -0.1046  0.0077
 1037loPI    C315911   1.851   4.583   6.226 -0.0898 -0.0759  0.0288
 1037loPI   PO415912   1.281   4.548   6.213 -0.1527 -0.0977 -0.3064
 1037loPI   GL115913   0.983   4.546   6.501  0.1144 -0.0164 -0.1496
 1037loPI   GL215914   0.819   4.200   6.537 -0.0606 -0.1181 -0.0499
 1037loPI   C1A15915   1.068   4.806   6.819  0.0830  0.1407  0.0086
 1037loPI   C2A15916   1.096   4.812   7.189 -0.4631 -0.0584  0.1618
 1037loPI   C3A15917   1.033   4.814   7.594  0.1137 -0.0370 -0.1830
 1037loPI   C4A15918   1.037   4.700   8.009 -0.2953  0.1385  0.3467
 1037loPI   C5A15919   1.087   4.608   8.434  0.3555  0.0625  0.0936
 1037loPI   C6A15920   1.285   4.939   8.623  0.0502 -0.2262  0.1644
 1037loPI   C1B15921   0.767   4.391   6.942 -0.1356 -0.0126 -0.1975
 1037loPI   C2B15922   0.709   4.254   7.396  0.2173  0.1981 -0.2782
 1037loPI   C3B15923   0.719   4.278   7.782  0.0493 -0.1353 -0.0594
 1037loPI   C4B15924   0.794   4.313   8.212  0.0030 -0.1673  0.0782
 1038loPI    C115925   8.183   7.343   5.737 -0.0203  0.1228 -0.0059
 1038loPI    C215926   8.520   7.144   5.820 -0.3891 -0.4645  0.1386
 1038loPI    C315927   8.418   7.215   5.440  0.0547  0.0148  0.0990
 1038loPI   PO415928   7.982   7.268   5.916 -0.1306 -0.0571  0.2556
 1038loPI   GL115929   8.033   7.248   6.298 -0.1272  0.0978  0.2517
 1038loPI   GL215930   8.418   7.215   6.296  0.0202 -0.0393  0.0156
 1038loPI   C1A15931   7.917   7.096   6.732  0.4353  0.1012  0.4556
 1038loPI   C2A15932   7.965   7.070   7.131 -0.0073 -0.0292 -0.1348
 1038loPI   C3A15933   7.973   7.149   7.564 -0.1550 -0.3912 -0.0481
 1038loPI   C4A15934   7.968   7.267   7.983 -0.2285 -0.0098 -0.0838
 1038loPI   C5A15935   8.201   7.374   8.376 -0.3200  0.0297  0.2064
 1038loPI   C6A15936   8.452   7.165   8.667  0.1270 -0.1768 -0.0224
 1038loPI   C1B15937   8.396   7.146   6.742 -0.0851  0.1631 -0.0722
 1038loPI   C2B15938   8.424   7.132   7.183 -0.0890 -0.0328 -0.2377
 1038loPI   C3B15939   8.478   7.163   7.640 -0.2456 -0.0531  0.1231
 1038loPI   C4B15940   8.514   7.264   8.058 -0.3531 -0.0963  0.0191
 1039loPI    C115941   3.097  13.364   6.041 -0.0141 -0.1780 -0.0902
 1039loPI    C215942   2.720  13.424   5.924 -0.0158 -0.3571 -0.1792
 1039loPI    C315943   2.997  13.315   5.657  0.0277 -0.5488 -0.0572
 1039loPI   PO415944   3.110  13.559   6.236 -0.0487  0.0133 -0.0848
 1039loPI   GL115945   3.220  13.651   6.615  0.0070 -0.3241 -0.1263
 1039loPI   GL215946   3.552  13.758   6.721 -0.0015  0.0711  0.0529
 1039loPI   C1A15947   3.085  13.636   6.997 -0.0815 -0.3505  0.1348
 1039loPI   C2A15948   3.087  13.617   7.479 -0.0655  0.1692  0.2471
 1039loPI   C3A15949   2.982  13.649   7.961  0.0272 -0.1660  0.1521
 1039loPI   C4A15950   3.114  13.627   8.447 -0.1240  0.3159  0.1130
 1039loPI   C5A15951   2.961  13.389   8.909  0.0863  0.2440 -0.3220
 1039loPI   C6A15952   2.655  13.626   8.948 -0.4011 -0.4320  0.0800
 1039loPI   C1B15953   3.525  13.596   7.182 -0.0036  0.2593  0.2286
 1039loPI   C2B15954   3.656  13.666   7.574  0.0447 -0.1268  0.0439
 1039loPI   C3B15955   3.536  13.548   7.922  0.0745 -0.1667 -0.0346
 1039loPI   C4B15956   3.610  13.642   8.380  0.0418  0.3574  0.0039
 1040loPI    C115957   8.049   5.834   5.755 -0.2020 -0.0944  0.2217
 1040loPI    C215958   8.100   5.781   5.362 -0.1791 -0.1729  0.2352
 1040loPI    C315959   7.927   6.115   5.497  0.2980  0.1020  0.1886
 1040loPI   PO415960   8.034   5.689   5.955  0.0773 -0.3547  0.0930
 1040loPI   GL115961   8.043   5.569   6.360  0.0132 -0.2218  0.1649
 1040loPI   GL215962   8.344   5.471   6.325 -0.1261  0.0657  0.1877
 1040loPI   C1A15963   8.009   5.380   6.697  0.1101 -0.0022 -0.1475
 1040loPI   C2A15964   7.997   5.351   7.134 -0.0793 -0.0770 -0.0097
 1040loPI   C3A15965   7.997   5.325   7.536  0.0905  0.0334 -0.1006
 1040loPI   C4A15966   7.954   5.441   7.964 -0.0673  0.1609  0.2571
 1040loPI   C5A15967   8.062   5.369   8.391 -0.0312  0.1084  0.0662
 1040loPI   C6A15968   8.105   5.288   8.830 -0.0028 -0.0952 -0.0997
 1040loPI   C1B15969   8.500   5.430   6.744 -0.0047 -0.3459 -0.0587
 1040loPI   C2B15970   8.523   5.319   7.183  0.0871 -0.1555 -0.2471
 1040loPI   C3B15971   8.531   5.383   7.641 -0.0223  0.1523 -0.2146
 1040loPI   C4B15972   8.449   5.372   8.036 -0.2703 -0.1579  0.0572
 1041loPI    C115973   6.670  10.124   5.651  0.0658  0.0065 -0.0202
 1041loPI    C215974   6.733  10.506   5.548 -0.0324  0.0161 -0.0456
 1041loPI    C315975   6.468  10.285   5.346  0.0928 -0.0938 -0.0916
 1041loPI   PO415976   6.571  10.115   5.857  0.1801 -0.0557 -0.2101
 1041loPI   GL115977   6.650   9.875   6.262  0.1555  0.4141 -0.0246
 1041loPI   GL215978   6.349   9.817   6.477  0.0755 -0.1451  0.0340
 1041loPI   C1A15979   6.892   9.814   6.673  0.0396  0.3841  0.1025
 1041loPI   C2A15980   6.779   9.797   7.122 -0.0089 -0.0146  0.1401
 1041loPI   C3A15981   6.778   9.895   7.592  0.0659 -0.1907 -0.0405
 1041loPI   C4A15982   6.762   9.878   7.947 -0.2308 -0.3249  0.1753
 1041loPI   C5A15983   6.647   9.784   8.395 -0.0017  0.0124 -0.0680
 1041loPI   C6A15984   6.330   9.826   8.613  0.4329 -0.1213 -0.3065
 1041loPI   C1B15985   6.314   9.817   6.886 -0.0747  0.0111 -0.0027
 1041loPI   C2B15986   6.229   9.863   7.294 -0.0215  0.2832 -0.0972
 1041loPI   C3B15987   6.301   9.801   7.699 -0.2812  0.2151 -0.0601
 1041loPI   C4B15988   6.165   9.831   8.102 -0.1555 -0.0459 -0.1288
 1042loPI    C115989  11.095  16.112   6.103 -0.0947  0.0397  0.0933
 1042loPI    C215990  11.268  16.089   5.743 -0.1052  0.0625  0.0868
 1042loPI    C315991  11.470  16.244   6.052 -0.0330 -0.1189  0.1316
 1042loPI   PO415992  10.888  15.930   6.151 -0.0377 -0.4157 -0.0323
 1042loPI   GL115993  11.037  15.660   6.512  0.0520  0.1607 -0.3016
 1042loPI   GL215994  10.892  15.405   6.372 -0.1678 -0.2231 -0.0597
 1042loPI   C1A15995  11.034  16.067   6.779 -0.1217  0.4097 -0.4399
 1042loPI   C2A15996  11.101  16.060   7.229 -0.2418 -0.2874 -0.3525
 1042loPI   C3A15997  11.062  16.046   7.603  0.2281  0.0133 -0.1231
 1042loPI   C4A15998  11.231  16.106   8.024 -0.0935 -0.1940 -0.0053
 1042loPI   C5A15999  11.515  15.939   8.304 -0.3498 -0.0075  0.1331
 1042loPI   C6A16000  11.600  15.966   8.704  0.3354 -0.0372  0.2373
 1042loPI   C1B16001  10.761  15.362   6.855  0.0227  0.0906  0.1764
 1042loPI   C2B16002  10.754  15.379   7.310 -0.2280  0.2299  0.0226
 1042loPI   C3B16003  10.835  15.490   7.707 -0.0113  0.2650 -0.0008
 1042loPI   C4B16004  10.887  15.629   8.157  0.1903  0.1857  0.2130
 1043loPI    C116005   9.427   9.229   5.785  0.1039 -0.1015  0.3831
 1043loPI    C216006   9.156   8.944   5.712  0.0826  0.0416 -0.1326
 1043loPI    C316007   9.537   8.891   5.602  0.1435  0.0849  0.0547
 1043loPI   PO416008   9.395   9.273   5.981  0.1863  0.1027 -0.1194
 1043loPI   GL116009   9.480   9.343   6.354  0.0995  0.2363  0.0071
 1043loPI   GL216010   9.600   8.977   6.511 -0.4610 -0.0350 -0.0501
 1043loPI   C1A16011   9.415   9.631   6.679 -0.0534  0.3784  0.1633
 1043loPI   C2A16012   9.207   9.489   7.090  0.0382 -0.2620  0.1716
 1043loPI   C3A16013   9.111   9.396   7.484 -0.2675 -0.1150  0.0471
 1043loPI   C4A16014   9.056   9.445   7.923 -0.1338 -0.0175 -0.1460
 1043loPI   C5A16015   8.923   9.303   8.307 -0.1797 -0.0475 -0.1283
 1043loPI   C6A16016   9.009   9.012   8.590 -0.2182 -0.1096 -0.0250
 1043loPI   C1B16017   9.538   9.100   6.866  0.2093 -0.0050 -0.2875
 1043loPI   C2B16018   9.386   9.047   7.327  0.0986 -0.1966  0.2185
 1043loPI   C3B16019   9.470   9.053   7.744  0.0456  0.2694  0.0552
 1043loPI   C4B16020   9.426   9.236   8.270  0.1513  0.0511 -0.2032
 1044loPI    C116021   9.026   7.777   5.848 -0.2611 -0.3762  0.1951
 1044loPI    C216022   8.734   7.600   5.640 -0.0399 -0.1900 -0.2886
 1044loPI    C316023   9.077   7.700   5.459  0.0502  0.2414  0.1002
 1044loPI   PO416024   8.844   7.989   6.000  0.1268 -0.0066  0.2941
 1044loPI   GL116025   8.684   7.948   6.330 -0.1572  0.0383  0.1637
 1044loPI   GL216026   8.392   8.076   6.344  0.4604  0.0605 -0.0331
 1044loPI   C1A16027   8.663   7.574   6.562 -0.1519 -0.1365  0.2527
 1044loPI   C2A16028   8.689   7.692   7.024 -0.3206  0.3876  0.0376
 1044loPI   C3A16029   8.741   7.602   7.375 -0.2152  0.2121  0.2670
 1044loPI   C4A16030   8.658   7.629   7.721  0.0343  0.2277  0.0868
 1044loPI   C5A16031   8.620   7.801   8.115 -0.0051 -0.0298  0.0500
 1044loPI   C6A16032   8.663   7.605   8.484 -0.1199 -0.1355 -0.0438
 1044loPI   C1B16033   8.447   8.064   6.789  0.3665  0.1663 -0.2209
 1044loPI   C2B16034   8.391   8.000   7.298 -0.0226 -0.2170 -0.0629
 1044loPI   C3B16035   8.261   8.088   7.661  0.0005  0.1055  0.2801
 1044loPI   C4B16036   8.325   8.212   8.095 -0.1854  0.0830  0.4684
 1045loPI    C116037   4.125   0.526   6.039 -0.1167  0.1221  0.0509
 1045loPI    C216038   4.217   0.535   5.650  0.0100 -0.0994  0.0741
 1045loPI    C316039   3.947   0.273   5.785 -0.0146 -0.0404  0.1395
 1045loPI   PO416040   4.117   0.768   6.094  0.1437  0.0430 -0.0062
 1045loPI   GL116041   4.160   0.941   6.572  0.0965 -0.0075  0.0399
 1045loPI   GL216042   3.991   0.697   6.582 -0.0978 -0.1285 -0.1904
 1045loPI   C1A16043   4.234   1.160   6.909 -0.0123 -0.1233 -0.3358
 1045loPI   C2A16044   4.125   1.197   7.286 -0.1509 -0.1497 -0.0569
 1045loPI   C3A16045   4.214   1.220   7.732  0.4581 -0.1874  0.2101
 1045loPI   C4A16046   4.154   1.248   8.122  0.1952 -0.0357  0.2407
 1045loPI   C5A16047   4.201   1.187   8.526 -0.0583 -0.1561 -0.0093
 1045loPI   C6A16048   4.095   1.260   8.951  0.1045 -0.3478 -0.2360
 1045loPI   C1B16049   3.969   0.701   7.022  0.2169  0.0203  0.0364
 1045loPI   C2B16050   3.976   0.693   7.418 -0.0636 -0.1994  0.0769
 1045loPI   C3B16051   3.948   0.817   7.859  0.3084  0.0657  0.0238
 1045loPI   C4B16052   3.886   0.791   8.318 -0.2900  0.1510  0.1161
 1046loPI    C116053   9.252   0.876   5.704 -0.2310  0.1985  0.2596
 1046loPI    C216054   8.935   1.083   5.572 -0.2249  0.0507  0.0065
 1046loPI    C316055   8.980   0.699   5.469  0.1626  0.1368 -0.1638
 1046loPI   PO416056   9.170   0.921   5.985 -0.0931 -0.1032  0.0359
 1046loPI   GL116057   9.374   0.743   6.304 -0.1530 -0.1771 -0.3383
 1046loPI   GL216058   9.094   0.581   6.316  0.1730  0.3524  0.0883
 1046loPI   C1A16059   9.205   0.768   6.831  0.0834 -0.2034  0.2435
 1046loPI   C2A16060   9.223   0.835   7.296  0.2887 -0.4635 -0.1892
 1046loPI   C3A16061   9.182   0.845   7.709 -0.2181 -0.1984 -0.2094
 1046loPI   C4A16062   9.090   0.768   8.083  0.5514 -0.0871  0.0258
 1046loPI   C5A16063   9.208   0.831   8.466  0.0150  0.3560  0.1366
 1046loPI   C6A16064   9.359   0.784   8.843  0.2275 -0.4283  0.0078
 1046loPI   C1B16065   8.767   0.652   6.646 -0.2431  0.0725  0.0641
 1046loPI   C2B16066   8.775   0.822   7.090  0.0791 -0.2115 -0.4073
 1046loPI   C3B16067   8.652   0.808   7.474  0.0221  0.0640  0.1902
 1046loPI   C4B16068   8.628   0.840   7.898 -0.2088 -0.1423 -0.2291
 1047loPI    C116069  11.061   3.252   5.638 -0.0837  0.0222  0.0698
 1047loPI    C216070  11.289   3.562   5.744  0.0583 -0.0865  0.0849
 1047loPI    C316071  10.978   3.618   5.500 -0.0206  0.0956  0.2244
 1047loPI   PO416072  10.936   3.162   5.882 -0.0130 -0.0685  0.4398
 1047loPI   GL116073  10.936   2.980   6.261  0.0177 -0.3243 -0.1187
 1047loPI   GL216074  10.831   2.682   6.314 -0.1720  0.3146 -0.1112
 1047loPI   C1A16075  10.978   3.272   6.699 -0.1768  0.1014 -0.2018
 1047loPI   C2A16076  10.989   3.064   7.115 -0.0136 -0.2906 -0.2539
 1047loPI   C3A16077  10.959   3.033   7.574  0.0200 -0.1712 -0.2338
 1047loPI   C4A16078  10.906   3.070   7.992 -0.2395  0.1290  0.2121
 1047loPI   C5A16079  10.635   2.903   8.375  0.1995 -0.3233  0.1462
 1047loPI   C6A16080  10.697   2.518   8.458 -0.3142  0.3680 -0.0442
 1047loPI   C1B16081  10.823   2.783   6.700  0.2210 -0.2838 -0.0754
 1047loPI   C2B16082  10.753   2.619   7.043 -0.1418 -0.0234 -0.1779
 1047loPI   C3B16083  10.661   2.661   7.453 -0.1139  0.2545 -0.2205
 1047loPI   C4B16084  10.673   2.603   7.901  0.1118  0.1396 -0.3068
 1048loPI    C116085  14.439   4.252   5.707 -0.0164 -0.0395 -0.1368
 1048loPI    C216086  14.482   4.256   5.310 -0.3140  0.0377 -0.1707
 1048loPI    C316087  14.172   4.443   5.479 -0.0957  0.1510  0.1114
 1048loPI   PO416088  14.386   4.067   5.904  0.0305 -0.2608 -0.1509
 1048loPI   GL116089  14.235   4.060   6.299 -0.0800  0.0256 -0.3082
 1048loPI   GL216090  13.974   3.958   6.308  0.1111 -0.2136 -0.2937
 1048loPI   C1A16091  14.264   3.911   6.721  0.2350  0.2941  0.1482
 1048loPI   C2A16092  14.319   3.810   7.246  0.1340  0.1177 -0.2190
 1048loPI   C3A16093  14.294   3.792   7.770 -0.1775  0.2175  0.0843
 1048loPI   C4A16094  14.237   3.737   8.221 -0.3793 -0.2508  0.2460
 1048loPI   C5A16095  13.901   3.868   8.558 -0.0287  0.3661 -0.0594
 1048loPI   C6A16096  13.581   3.960   8.901 -0.2393  0.0392 -0.0693
 1048loPI   C1B16097  13.929   4.196   6.683  0.1415  0.2737 -0.0682
 1048loPI   C2B16098  14.012   4.173   7.092 -0.0158  0.0414 -0.2666
 1048loPI   C3B16099  14.038   4.200   7.526 -0.2105 -0.0655 -0.1078
 1048loPI   C4B16100  13.929   4.108   7.914 -0.1173 -0.2005 -0.0314
 1049loPI    C116101   9.343   1.403   5.389 -0.2480 -0.2080  0.1399
 1049loPI    C216102   9.041   1.663   5.366  0.1016  0.1896 -0.1207
 1049loPI    C316103   9.103   1.403   5.069 -0.0292  0.0523 -0.0293
 1049loPI   PO416104   9.391   1.387   5.568  0.2562  0.0462 -0.1479
 1049loPI   GL116105   9.434   1.329   6.067  0.1481  0.2611 -0.3179
 1049loPI   GL216106   9.570   1.497   6.212 -0.0827  0.0334  0.5919
 1049loPI   C1A16107   9.385   1.182   6.514 -0.1410 -0.3902 -0.2514
 1049loPI   C2A16108   9.403   1.178   7.002  0.0084  0.0355 -0.0542
 1049loPI   C3A16109   9.382   1.304   7.418  0.0155 -0.2529 -0.0126
 1049loPI   C4A16110   9.402   1.233   7.802 -0.2890 -0.0774  0.0648
 1049loPI   C5A16111   9.345   1.313   8.208 -0.0635  0.1406  0.1246
 1049loPI   C6A16112   9.113   1.331   8.604 -0.1991  0.3617 -0.2385
 1049loPI   C1B16113   9.681   1.641   6.639 -0.0747  0.2146  0.1981
 1049loPI   C2B16114   9.668   1.840   6.924 -0.0837  0.2847  0.0285
 1049loPI   C3B16115   9.717   1.688   7.238  0.0350  0.1835  0.0548
 1049loPI   C4B16116   9.575   1.775   7.675  0.1573  0.3160  0.1760
 1050loPI    C116117   5.697   3.150   5.642  0.1434  0.1608 -0.0691
 1050loPI    C216118   5.651   2.795   5.463 -0.2365  0.2083 -0.0738
 1050loPI    C316119   5.522   3.129   5.283 -0.3145  0.2945  0.1383
 1050loPI   PO416120   5.587   3.066   5.943 -0.0822  0.3150 -0.0697
 1050loPI   GL116121   5.666   3.049   6.375  0.0698 -0.2004  0.0306
 1050loPI   GL216122   5.336   3.134   6.483 -0.1194  0.2187 -0.1631
 1050loPI   C1A16123   5.744   3.056   6.776  0.2689  0.1114  0.0275
 1050loPI   C2A16124   5.816   3.077   7.272 -0.0518  0.2069  0.0993
 1050loPI   C3A16125   5.785   3.077   7.718 -0.1569  0.0481  0.0624
 1050loPI   C4A16126   5.750   3.019   8.146  0.2579 -0.1681  0.2520
 1050loPI   C5A16127   5.430   3.049   8.490 -0.1698 -0.2455 -0.1558
 1050loPI   C6A16128   5.075   3.365   8.596  0.1135 -0.2633  0.1465
 1050loPI   C1B16129   5.222   2.929   6.916 -0.1225  0.0667  0.1355
 1050loPI   C2B16130   5.256   2.986   7.355  0.0103  0.1683 -0.1286
 1050loPI   C3B16131   5.273   3.026   7.690  0.2409 -0.0137 -0.1532
 1050loPI   C4B16132   5.273   3.188   8.048  0.2229  0.0848 -0.0276
 1051loPI    C116133   2.565  13.072   6.221 -0.1149 -0.2648  0.2213
 1051loPI    C216134   2.827  12.966   5.938  0.0263 -0.0104  0.2535
 1051loPI    C316135   2.446  13.040   5.841  0.0517 -0.0190  0.1465
 1051loPI   PO416136   2.765  13.211   6.418  0.1433  0.0011  0.0689
 1051loPI   GL116137   2.931  13.094   6.838  0.2566  0.1437 -0.1784
 1051loPI   GL216138   3.168  12.779   6.885 -0.3687  0.0224  0.2080
 1051loPI   C1A16139   2.894  13.188   7.306  0.1869 -0.0678 -0.2342
 1051loPI   C2A16140   2.899  13.130   7.728 -0.0271  0.0051  0.0414
 1051loPI   C3A16141   2.812  13.206   8.138  0.1271 -0.1142  0.1720
 1051loPI   C4A16142   2.668  13.120   8.594 -0.3184  0.1142  0.1002
 1051loPI   C5A16143   2.165  13.162   8.683 -0.2729 -0.2748  0.0213
 1051loPI   C6A16144   1.942  13.262   8.963 -0.2981 -0.2477  0.0006
 1051loPI   C1B16145   3.137  12.736   7.362  0.2041  0.0930  0.0918
 1051loPI   C2B16146   3.167  12.724   7.826 -0.0218 -0.1958  0.0754
 1051loPI   C3B16147   3.083  12.748   8.233 -0.0061  0.1539 -0.0159
 1051loPI   C4B16148   3.139  12.921   8.733  0.3513  0.1904 -0.0330
 1052loPI    C116149  10.997   9.973   5.812 -0.1612  0.0632 -0.0703
 1052loPI    C216150  11.245  10.190   5.585 -0.1777  0.1868  0.0282
 1052loPI    C316151  11.166   9.809   5.489  0.0795  0.1346  0.0178
 1052loPI   PO416152  11.086   9.942   6.026 -0.1442 -0.6320 -0.3094
 1052loPI   GL116153  11.044   9.696   6.282  0.1109  0.2268  0.0740
 1052loPI   GL216154  11.059   9.978   6.552  0.0843 -0.0372  0.0559
 1052loPI   C1A16155  10.833   9.565   6.710  0.1693  0.3910 -0.0074
 1052loPI   C2A16156  10.736   9.604   7.189  0.0696  0.1510 -0.0129
 1052loPI   C3A16157  10.760   9.703   7.618  0.1204 -0.1682 -0.0381
 1052loPI   C4A16158  10.624   9.525   8.029  0.1439  0.0139  0.0603
 1052loPI   C5A16159  10.861   9.438   8.407  0.0909 -0.0654  0.0797
 1052loPI   C6A16160  10.851   9.293   8.780 -0.2577  0.0646  0.3012
 1052loPI   C1B16161  11.040  10.040   6.989 -0.3834  0.3062  0.1362
 1052loPI   C2B16162  10.873  10.092   7.364  0.2016  0.0028  0.0569
 1052loPI   C3B16163  10.898  10.092   7.857 -0.0255  0.0005 -0.1198
 1052loPI   C4B16164  10.844  10.007   8.317 -0.0828  0.2908  0.4370
 1053loPI    C116165   6.860   8.611   6.060 -0.2989 -0.0178  0.1679
 1053loPI    C216166   6.868   8.530   5.668 -0.0099  0.1185  0.1427
 1053loPI    C316167   6.838   8.232   5.933 -0.1059  0.0185  0.0210
 1053loPI   PO416168   6.987   8.734   6.140 -0.1930  0.2148  0.3672
 1053loPI   GL116169   7.108   8.760   6.504 -0.1977  0.2329 -0.0746
 1053loPI   GL216170   7.300   8.954   6.717  0.1844 -0.2693 -0.2440
 1053loPI   C1A16171   6.980   8.500   6.855 -0.2198 -0.1540  0.2469
 1053loPI   C2A16172   7.078   8.571   7.264  0.2560 -0.1950  0.0239
 1053loPI   C3A16173   7.033   8.518   7.728 -0.1220  0.0057 -0.2676
 1053loPI   C4A16174   6.959   8.516   8.155 -0.4046 -0.1293  0.1474
 1053loPI   C5A16175   7.084   8.370   8.536  0.0128 -0.2544 -0.0388
 1053loPI   C6A16176   7.008   8.452   8.953  0.1908 -0.0185 -0.2504
 1053loPI   C1B16177   7.304   8.962   7.105 -0.0330  0.3121 -0.1244
 1053loPI   C2B16178   7.289   9.008   7.537  0.2978 -0.0202 -0.1459
 1053loPI   C3B16179   7.286   9.024   8.031  0.1433  0.2179 -0.1266
 1053loPI   C4B16180   7.217   8.917   8.525  0.0877  0.4928  0.2734
 1054loPI    C116181   3.355  10.693   5.788  0.1050 -0.1288 -0.1992
 1054loPI    C216182   3.105  10.929   5.585 -0.0472 -0.0866  0.0336
 1054loPI    C316183   3.246  10.595   5.416 -0.1539 -0.0411 -0.1482
 1054loPI   PO416184   3.174  10.601   6.025 -0.0275 -0.0425 -0.0499
 1054loPI   GL116185   3.242  10.540   6.471 -0.2734  0.0236  0.2045
 1054loPI   GL216186   3.227  10.768   6.551 -0.2079 -0.3614 -0.1548
 1054loPI   C1A16187   3.559  10.540   6.891 -0.2717 -0.0395  0.1443
 1054loPI   C2A16188   3.519  10.579   7.354  0.0950  0.2684 -0.2318
 1054loPI   C3A16189   3.612  10.583   7.900 -0.1911 -0.0317 -0.1599
 1054loPI   C4A16190   3.611  10.507   8.325  0.0344 -0.2132  0.1443
 1054loPI   C5A16191   3.586  10.525   8.702 -0.0588 -0.0284 -0.0186
 1054loPI   C6A16192   3.849  10.593   9.130 -0.0962  0.1197  0.0961
 1054loPI   C1B16193   3.105  10.623   6.986  0.1554  0.2342  0.0613
 1054loPI   C2B16194   3.025  10.495   7.453 -0.0992  0.0899  0.0733
 1054loPI   C3B16195   3.013  10.508   7.810 -0.0863  0.0551  0.0685
 1054loPI   C4B16196   3.010  10.523   8.271 -0.1251 -0.0955  0.0298
 1055loPI    C116197  17.342  16.848   5.888  0.0179 -0.0556  0.1230
 1055loPI    C216198  17.036  16.797   5.636  0.0943 -0.1682  0.0522
 1055loPI    C316199  17.396  16.899   5.495  0.1103 -0.1218  0.1268
 1055loPI   PO416200  17.144  16.875   6.134  0.0689 -0.0414  0.0097
 1055loPI   GL116201  17.335  16.876   6.462  0.2075  0.0487 -0.0773
 1055loPI   GL216202  17.610  16.851   6.639  0.0960 -0.0144 -0.2266
 1055loPI   C1A16203  17.158  17.132   6.887  0.0188  0.1543 -0.2502
 1055loPI   C2A16204  17.253  17.237   7.387  0.1748 -0.1418 -0.0584
 1055loPI   C3A16205  17.253  17.208   7.751 -0.2513  0.1229  0.0193
 1055loPI   C4A16206  17.295  17.126   8.192 -0.0577 -0.1103  0.2109
 1055loPI   C5A16207  17.389  17.086   8.618  0.1471 -0.0004  0.2097
 1055loPI   C6A16208  17.634  16.823   8.753 -0.0099 -0.0229 -0.1276
 1055loPI   C1B16209  17.703  17.096   6.986 -0.2821 -0.0471  0.0481
 1055loPI   C2B16210  17.752  17.191   7.592 -0.3759  0.1016 -0.0332
 1055loPI   C3B16211  17.755  17.116   8.033 -0.1979 -0.2267 -0.0027
 1055loPI   C4B16212  17.920  17.110   8.404 -0.0655  0.0403 -0.2561
 1056loPI    C116213   4.597   4.519   5.837  0.0999 -0.2611  0.2737
 1056loPI    C216214   4.382   4.493   5.501  0.1462  0.2405  0.1963
 1056loPI    C316215   4.222   4.380   5.850 -0.0957  0.2242  0.0827
 1056loPI   PO416216   4.693   4.794   5.837 -0.0409 -0.1821 -0.0156
 1056loPI   GL116217   4.616   4.969   6.245 -0.1066 -0.1093  0.0012
 1056loPI   GL216218   4.325   4.769   6.205  0.0349 -0.1320 -0.1595
 1056loPI   C1A16219   4.752   4.945   6.740 -0.0246  0.0532 -0.3206
 1056loPI   C2A16220   4.642   4.799   7.159 -0.1690  0.0387 -0.1109
 1056loPI   C3A16221   4.725   4.824   7.617  0.2667  0.1276 -0.2618
 1056loPI   C4A16222   4.653   4.855   8.037 -0.0271 -0.2721  0.1426
 1056loPI   C5A16223   4.544   4.816   8.532 -0.2605  0.2269  0.1542
 1056loPI   C6A16224   4.337   4.851   8.890  0.1405  0.1659 -0.1812
 1056loPI   C1B16225   4.179   4.780   6.591  0.1882  0.0096 -0.1391
 1056loPI   C2B16226   4.206   4.870   6.983  0.0881  0.0751  0.0592
 1056loPI   C3B16227   4.207   4.773   7.372  0.0934  0.0707 -0.1480
 1056loPI   C4B16228   4.132   4.752   7.845 -0.0399 -0.1387  0.1931
 1057loPI    C116229   1.205   7.500   5.810  0.0472  0.0963  0.2457
 1057loPI    C216230   0.914   7.706   5.628  0.0916 -0.0262  0.0327
 1057loPI    C316231   1.297   7.803   5.566  0.1052 -0.0365  0.1003
 1057loPI   PO416232   1.115   7.591   6.090 -0.0136  0.1662 -0.2048
 1057loPI   GL116233   1.016   7.669   6.494 -0.0805  0.0760 -0.3284
 1057loPI   GL216234   1.372   7.602   6.532  0.1205 -0.2677 -0.0923
 1057loPI   C1A16235   0.896   7.541   6.861 -0.1428 -0.2101 -0.1115
 1057loPI   C2A16236   0.896   7.412   7.199  0.0422  0.1666  0.0838
 1057loPI   C3A16237   0.857   7.490   7.595 -0.2298  0.2093  0.0984
 1057loPI   C4A16238   0.784   7.580   8.047  0.3255  0.3125 -0.0523
 1057loPI   C5A16239   0.785   7.387   8.420 -0.0036  0.0737 -0.0264
 1057loPI   C6A16240   0.634   7.065   8.542  0.1172 -0.0949 -0.0458
 1057loPI   C1B16241   1.394   7.518   6.913 -0.1417  0.1498  0.0276
 1057loPI   C2B16242   1.400   7.411   7.319  0.2796 -0.0873  0.2454
 1057loPI   C3B16243   1.405   7.514   7.830 -0.2171 -0.0381 -0.3082
 1057loPI   C4B16244   1.350   7.527   8.355  0.1821  0.1246 -0.0075
 1058loPI    C116245  16.646  12.094   5.839 -0.0684 -0.1098  0.0893
 1058loPI    C216246  16.852  11.753   5.875  0.1843 -0.0018 -0.2796
 1058loPI    C316247  16.543  11.775   5.622  0.1218  0.0223 -0.2018
 1058loPI   PO416248  16.641  12.125   6.136  0.0935 -0.1172 -0.2835
 1058loPI   GL116249  16.571  11.943   6.569 -0.1438  0.3013  0.2532
 1058loPI   GL216250  16.566  12.183   6.721  0.2789  0.2328 -0.1106
 1058loPI   C1A16251  16.653  11.576   6.869 -0.2718  0.0413 -0.1739
 1058loPI   C2A16252  16.476  11.486   7.354 -0.1971 -0.1974 -0.3496
 1058loPI   C3A16253  16.393  11.572   7.769 -0.2023  0.3211  0.0847
 1058loPI   C4A16254  16.288  11.511   8.195 -0.2755 -0.0755  0.1474
 1058loPI   C5A16255  16.259  11.539   8.606  0.1317 -0.4144 -0.0275
 1058loPI   C6A16256  16.320  11.649   9.034 -0.3545  0.0929 -0.3950
 1058loPI   C1B16257  16.772  12.107   7.097  0.0862 -0.1229 -0.0828
 1058loPI   C2B16258  16.747  12.049   7.443  0.1798 -0.0528 -0.0698
 1058loPI   C3B16259  16.626  11.976   7.897 -0.2493  0.2167 -0.0586
 1058loPI   C4B16260  16.510  11.955   8.329 -0.0746  0.0224  0.1494
 1059loPI    C116261  14.871   1.318   6.061  0.1127 -0.1960 -0.0396
 1059loPI    C216262  15.166   1.435   5.818  0.0317 -0.1841 -0.1323
 1059loPI    C316263  14.797   1.380   5.673 -0.0035 -0.2347 -0.0239
 1059loPI   PO416264  14.967   1.344   6.289  0.0175 -0.1278  0.0878
 1059loPI   GL116265  14.954   1.488   6.568  0.1421  0.1371 -0.1942
 1059loPI   GL216266  14.724   1.599   6.768  0.0242 -0.0536  0.3558
 1059loPI   C1A16267  15.166   1.461   6.989 -0.0577  0.1951 -0.0761
 1059loPI   C2A16268  15.112   1.464   7.410  0.2189 -0.2776  0.0118
 1059loPI   C3A16269  15.078   1.411   7.842  0.2746  0.1635  0.0820
 1059loPI   C4A16270  15.179   1.431   8.194 -0.0038 -0.2618  0.2123
 1059loPI   C5A16271  15.376   1.389   8.539 -0.2114 -0.2324  0.0175
 1059loPI   C6A16272  15.352   1.261   9.022 -0.1836 -0.0318  0.2558
 1059loPI   C1B16273  14.626   1.537   7.130  0.2566  0.1794 -0.1023
 1059loPI   C2B16274  14.643   1.480   7.605  0.1213 -0.1111 -0.2398
 1059loPI   C3B16275  14.577   1.490   8.045  0.2226 -0.0738  0.0433
 1059loPI   C4B16276  14.702   1.347   8.474  0.2521 -0.0193 -0.1286
 1060loPI    C116277  14.578   9.004   5.838 -0.0778 -0.1081  0.1005
 1060loPI    C216278  14.220   8.827   5.874  0.0247 -0.3319  0.0376
 1060loPI    C316279  14.275   9.114   5.600 -0.0677 -0.3980 -0.0510
 1060loPI   PO416280  14.638   9.087   6.061  0.0735  0.1317  0.1060
 1060loPI   GL116281  14.571   9.067   6.472 -0.0976  0.0292  0.0361
 1060loPI   GL216282  14.440   8.754   6.422 -0.0799 -0.2793 -0.0636
 1060loPI   C1A16283  14.582   9.241   6.910 -0.1881  0.2618  0.0806
 1060loPI   C2A16284  14.600   9.152   7.288  0.1708 -0.2575 -0.0007
 1060loPI   C3A16285  14.527   9.235   7.753  0.2789  0.1154  0.2129
 1060loPI   C4A16286  14.601   9.149   8.162  0.3523  0.2359  0.0989
 1060loPI   C5A16287  14.605   8.962   8.614 -0.0688  0.1770 -0.1988
 1060loPI   C6A16288  14.939   8.977   8.934 -0.0071  0.1876  0.3166
 1060loPI   C1B16289  14.344   8.824   6.903 -0.0967 -0.0945  0.0610
 1060loPI   C2B16290  14.331   8.762   7.359  0.1525  0.0444 -0.0147
 1060loPI   C3B16291  14.299   8.727   7.772  0.1067  0.2985  0.0536
 1060loPI   C4B16292  14.348   8.733   8.207  0.1789  0.0729 -0.1158
 1061loPI    C116293   8.801   6.325   5.946 -0.0988  0.0177  0.0149
 1061loPI    C216294   9.177   6.325   6.084 -0.0494 -0.0841 -0.1179
 1061loPI    C316295   9.102   6.439   5.708 -0.1484 -0.0917 -0.1006
 1061loPI   PO416296   8.705   6.222   6.221 -0.0275  0.1156  0.2756
 1061loPI   GL116297   8.970   6.345   6.531  0.0875 -0.0641  0.2726
 1061loPI   GL216298   9.210   6.617   6.510 -0.1183 -0.1603 -0.0992
 1061loPI   C1A16299   8.983   6.282   6.987  0.2409  0.4357 -0.0915
 1061loPI   C2A16300   9.027   6.250   7.381  0.1092  0.0730  0.0187
 1061loPI   C3A16301   9.054   6.233   7.788  0.1270 -0.2284  0.1938
 1061loPI   C4A16302   8.977   6.318   8.230 -0.0901 -0.2189 -0.1119
 1061loPI   C5A16303   9.094   6.275   8.747 -0.1933  0.1976 -0.0497
 1061loPI   C6A16304   9.535   6.314   9.026 -0.0278  0.3014 -0.0330
 1061loPI   C1B16305   9.171   6.717   6.880 -0.4678 -0.0610  0.1371
 1061loPI   C2B16306   9.259   6.683   7.307  0.0298  0.2944 -0.2636
 1061loPI   C3B16307   9.268   6.753   7.765  0.1196  0.1532 -0.0604
 1061loPI   C4B16308   9.215   6.851   8.269  0.3000 -0.2883  0.1769
 1062loPI    C116309  14.569   6.357   5.898 -0.0468  0.2464 -0.1085
 1062loPI    C216310  14.194   6.325   5.761  0.0048  0.0113 -0.2004
 1062loPI    C316311  14.424   5.999   5.793  0.0707  0.0942  0.2334
 1062loPI   PO416312  14.599   6.433   6.107  0.0167 -0.0610 -0.1113
 1062loPI   GL116313  14.543   6.642   6.460 -0.3180 -0.2609 -0.1062
 1062loPI   GL216314  14.465   6.971   6.547 -0.1351  0.0070 -0.0383
 1062loPI   C1A16315  14.741   6.534   6.872 -0.2793  0.0473 -0.1695
 1062loPI   C2A16316  14.673   6.395   7.307 -0.2027  0.2128  0.2064
 1062loPI   C3A16317  14.677   6.443   7.780  0.0172  0.2011  0.2306
 1062loPI   C4A16318  14.726   6.467   8.246 -0.2411 -0.1684 -0.3286
 1062loPI   C5A16319  14.747   6.807   8.574  0.2646 -0.1147 -0.2269
 1062loPI   C6A16320  14.867   7.223   8.764 -0.1020  0.1694 -0.2672
 1062loPI   C1B16321  14.454   6.970   6.868  0.0848 -0.1977 -0.0713
 1062loPI   C2B16322  14.476   6.916   7.333  0.0962 -0.2845  0.2335
 1062loPI   C3B16323  14.447   6.879   7.706  0.0670 -0.1737 -0.0518
 1062loPI   C4B16324  14.489   6.935   8.130 -0.2220  0.1540 -0.0072
 1063loPI    C116325   5.912   8.225   5.663 -0.1183  0.1644 -0.2524
 1063loPI    C216326   6.134   8.467   5.434 -0.0153 -0.0080 -0.3363
 1063loPI    C316327   5.800   8.303   5.287 -0.1069  0.1141 -0.2662
 1063loPI   PO416328   5.945   8.338   5.917  0.4449 -0.0746 -0.2223
 1063loPI   GL116329   5.774   8.365   6.355  0.2516 -0.0207 -0.0607
 1063loPI   GL216330   5.702   8.127   6.497 -0.3748 -0.2441  0.4349
 1063loPI   C1A16331   6.019   8.485   6.767  0.0591  0.3097 -0.4647
 1063loPI   C2A16332   6.040   8.514   7.243 -0.2017 -0.0327 -0.1487
 1063loPI   C3A16333   6.078   8.439   7.729  0.1322  0.3075  0.0961
 1063loPI   C4A16334   6.025   8.441   8.161  0.1929  0.2268  0.2850
 1063loPI   C5A16335   6.028   8.411   8.656  0.1230 -0.0659  0.0757
 1063loPI   C6A16336   5.810   8.582   8.989  0.1217  0.2898  0.0813
 1063loPI   C1B16337   5.803   7.968   6.935  0.4163  0.1109  0.2766
 1063loPI   C2B16338   5.856   7.954   7.452  0.5826 -0.3369  0.4138
 1063loPI   C3B16339   5.841   7.994   8.002  0.0754 -0.2118  0.1994
 1063loPI   C4B16340   5.690   8.119   8.430  0.1004  0.1907 -0.1267
 1064loPI    C116341   2.275  16.867   5.863  0.0548 -0.1840  0.0953
 1064loPI    C216342   2.349  16.505   5.711  0.0022 -0.1197 -0.0869
 1064loPI    C316343   2.262  16.809   5.467  0.0061  0.0067  0.0679
 1064loPI   PO416344   2.224  16.727   6.150 -0.2725  0.1658 -0.0774
 1064loPI   GL116345   2.067  16.889   6.528 -0.2388  0.1194  0.2822
 1064loPI   GL216346   2.392  17.032   6.523  0.2032 -0.2055  0.1537
 1064loPI   C1A16347   2.167  16.713   6.920  0.0475  0.0479 -0.0097
 1064loPI   C2A16348   2.217  16.773   7.257 -0.0177  0.0685 -0.1903
 1064loPI   C3A16349   2.141  16.728   7.779 -0.2113 -0.2218  0.1972
 1064loPI   C4A16350   2.114  16.738   8.322  0.0102 -0.1533 -0.0533
 1064loPI   C5A16351   2.459  16.835   8.620  0.0562 -0.1619  0.2588
 1064loPI   C6A16352   2.856  17.104   8.763 -0.1047 -0.0073 -0.1905
 1064loPI   C1B16353   2.470  17.202   6.963 -0.3302  0.0809  0.0827
 1064loPI   C2B16354   2.363  17.244   7.366 -0.0671 -0.2706  0.0130
 1064loPI   C3B16355   2.374  17.174   7.839 -0.1230 -0.1685 -0.0790
 1064loPI   C4B16356   2.444  17.236   8.251 -0.1342 -0.0105  0.0055
 1065loPI    C116357   5.272   5.561   5.517 -0.0232  0.0006  0.0155
 1065loPI    C216358   5.244   5.289   5.224  0.0801 -0.0937  0.0925
 1065loPI    C316359   5.303   5.675   5.135  0.0932 -0.1195 -0.0116
 1065loPI   PO416360   5.371   5.370   5.706 -0.1298  0.1442  0.2033
 1065loPI   GL116361   5.524   5.286   6.086 -0.0505 -0.0926 -0.0247
 1065loPI   GL216362   5.390   5.359   6.357 -0.2909 -0.2282 -0.0515
 1065loPI   C1A16363   5.687   4.998   6.523 -0.2605 -0.1237  0.0496
 1065loPI   C2A16364   5.772   4.828   6.937  0.3088  0.1851  0.1612
 1065loPI   C3A16365   5.701   4.873   7.341  0.1908 -0.0405 -0.0539
 1065loPI   C4A16366   5.731   4.914   7.762  0.1025 -0.2491 -0.2635
 1065loPI   C5A16367   5.797   4.942   8.180  0.0756  0.3701  0.3211
 1065loPI   C6A16368   6.260   4.861   8.419  0.2725 -0.0872  0.1336
 1065loPI   C1B16369   5.546   5.392   6.850 -0.2420  0.1503  0.1205
 1065loPI   C2B16370   5.466   5.369   7.244 -0.2175 -0.0294  0.1423
 1065loPI   C3B16371   5.413   5.379   7.633  0.0642 -0.0859 -0.1908
 1065loPI   C4B16372   5.343   5.388   8.142  0.0119  0.0988  0.2873
 1066loPI    C116373   5.593   6.573   5.968  0.0925  0.1448  0.1264
 1066loPI    C216374   5.482   6.739   5.621  0.0391 -0.0224  0.0623
 1066loPI    C316375   5.712   6.412   5.621 -0.1098 -0.1279  0.1809
 1066loPI   PO416376   5.601   6.762   6.117 -0.2406 -0.0850 -0.2532
 1066loPI   GL116377   5.854   6.797   6.522  0.1586  0.1969 -0.4611
 1066loPI   GL216378   5.797   7.066   6.665  0.0806 -0.0181  0.0336
 1066loPI   C1A16379   5.609   6.657   6.926  0.2481 -0.1460  0.1653
 1066loPI   C2A16380   5.650   6.619   7.417 -0.2606 -0.0219 -0.0032
 1066loPI   C3A16381   5.644   6.690   7.887  0.1618  0.1644 -0.0227
 1066loPI   C4A16382   5.595   6.668   8.241  0.0134  0.0168 -0.1424
 1066loPI   C5A16383   5.245   6.785   8.543  0.0476  0.2552 -0.3282
 1066loPI   C6A16384   4.820   6.703   8.564 -0.0508  0.0000 -0.0122
 1066loPI   C1B16385   5.808   7.083   7.150 -0.0348  0.1264 -0.0468
 1066loPI   C2B16386   5.858   7.050   7.617 -0.1049  0.3180  0.0015
 1066loPI   C3B16387   5.902   7.166   8.028 -0.0742  0.2211  0.2456
 1066loPI   C4B16388   5.836   7.065   8.442  0.0828  0.2690  0.2353
 1067loPI    C116389   3.357   3.862   5.601  0.1161 -0.0913 -0.0295
 1067loPI    C216390   3.701   3.679   5.511  0.0596 -0.1398 -0.1480
 1067loPI    C316391   3.373   3.463   5.585  0.0162 -0.0896 -0.1927
 1067loPI   PO416392   3.388   4.049   5.844 -0.1443  0.2037 -0.3268
 1067loPI   GL116393   3.434   4.252   6.314  0.0446 -0.1248  0.0002
 1067loPI   GL216394   3.242   4.027   6.316  0.0765  0.1396  0.2004
 1067loPI   C1A16395   3.431   4.389   6.689  0.1583 -0.2705 -0.0125
 1067loPI   C2A16396   3.382   4.430   7.186 -0.2753 -0.0371  0.0753
 1067loPI   C3A16397   3.365   4.409   7.586  0.1841 -0.1431  0.0610
 1067loPI   C4A16398   3.426   4.226   8.014 -0.0938  0.1644  0.2234
 1067loPI   C5A16399   3.721   4.219   8.410  0.2910  0.0093  0.0684
 1067loPI   C6A16400   3.879   3.890   8.781 -0.1841  0.3453  0.1832
 1067loPI   C1B16401   3.120   3.968   6.740  0.1008 -0.2154  0.0425
 1067loPI   C2B16402   3.143   3.957   7.189  0.1281 -0.3468 -0.1668
 1067loPI   C3B16403   3.165   3.949   7.653 -0.2466  0.1703  0.2977
 1067loPI   C4B16404   3.111   3.847   8.077  0.1631  0.1131  0.1155
 1068loPI    C116405   1.409  13.955   5.894 -0.2314  0.2324 -0.0200
 1068loPI    C216406   1.047  13.836   5.773 -0.1168 -0.1008 -0.0479
 1068loPI    C316407   1.290  14.025   5.518 -0.1978 -0.0454 -0.0848
 1068loPI   PO416408   1.387  14.002   6.111 -0.0907 -0.0841 -0.0935
 1068loPI   GL116409   1.389  14.106   6.520  0.1119  0.0525 -0.1193
 1068loPI   GL216410   1.411  14.344   6.612 -0.0779 -0.0084  0.3470
 1068loPI   C1A16411   1.124  14.002   6.911 -0.0463  0.0119  0.0547
 1068loPI   C2A16412   1.176  14.068   7.361 -0.1158  0.1023  0.0597
 1068loPI   C3A16413   1.256  14.018   7.765 -0.0754  0.1808 -0.0293
 1068loPI   C4A16414   1.204  14.015   8.195  0.3222  0.1177  0.0911
 1068loPI   C5A16415   1.216  13.832   8.599 -0.3859  0.1844 -0.0139
 1068loPI   C6A16416   1.078  13.740   9.002  0.1815  0.1789  0.2945
 1068loPI   C1B16417   1.478  14.401   6.997  0.0959  0.1591  0.2950
 1068loPI   C2B16418   1.419  14.474   7.493 -0.0279 -0.1489 -0.0273
 1068loPI   C3B16419   1.493  14.368   8.017  0.0528  0.1624  0.0994
 1068loPI   C4B16420   1.369  14.448   8.459  0.0561  0.1975  0.0719
 1069loPI    C116421  14.025   2.291   6.134 -0.1481 -0.2971 -0.1600
 1069loPI    C216422  13.904   2.409   5.772  0.0142  0.1927 -0.0616
 1069loPI    C316423  14.289   2.322   5.835  0.0210  0.2910  0.0360
 1069loPI   PO416424  14.104   2.359   6.312 -0.1524  0.0112 -0.0288
 1069loPI   GL116425  14.177   2.366   6.776  0.2402 -0.2047 -0.2625
 1069loPI   GL216426  14.274   2.661   6.747 -0.0654 -0.1116  0.1196
 1069loPI   C1A16427  14.033   2.363   7.161 -0.3707  0.2314 -0.2177
 1069loPI   C2A16428  14.118   2.345   7.629 -0.0453  0.1553 -0.3981
 1069loPI   C3A16429  14.132   2.294   8.060 -0.1762  0.0991  0.3438
 1069loPI   C4A16430  14.066   2.312   8.405 -0.1425  0.3364 -0.1145
 1069loPI   C5A16431  14.203   2.556   8.759  0.1390 -0.1579  0.2386
 1069loPI   C6A16432  14.144   2.975   8.704  0.1332 -0.1098 -0.1280
 1069loPI   C1B16433  14.226   2.834   7.099 -0.0904  0.1193  0.0207
 1069loPI   C2B16434  14.205   2.798   7.544  0.1233  0.1333  0.0300
 1069loPI   C3B16435  14.305   2.752   7.920  0.0853  0.1477  0.1431
 1069loPI   C4B16436  14.381   2.709   8.308 -0.0989  0.1934  0.2413
 1070loPI    C116437  16.231  10.057   5.793  0.0488 -0.1221 -0.1517
 1070loPI    C216438  15.843  10.146   5.836  0.1191  0.2044 -0.1686
 1070loPI    C316439  16.003  10.123   5.471  0.1339  0.1504 -0.1587
 1070loPI   PO416440  16.231  10.011   6.158  0.0539 -0.1002  0.1611
 1070loPI   GL116441  16.080  10.027   6.523  0.2291 -0.4308 -0.1179
 1070loPI   GL216442  16.137  10.277   6.731  0.2092 -0.2775  0.1032
 1070loPI   C1A16443  15.950   9.804   6.917  0.0856 -0.1109 -0.1821
 1070loPI   C2A16444  15.855   9.630   7.287 -0.0536 -0.0147 -0.1329
 1070loPI   C3A16445  15.848   9.697   7.773 -0.1748 -0.1981 -0.0585
 1070loPI   C4A16446  15.800   9.673   8.225 -0.2287  0.0908 -0.0712
 1070loPI   C5A16447  16.023   9.694   8.505  0.0396  0.0722 -0.5719
 1070loPI   C6A16448  16.145   9.656   8.991 -0.0771  0.2121  0.1571
 1070loPI   C1B16449  16.132  10.257   7.103  0.1430 -0.0905  0.1073
 1070loPI   C2B16450  16.023  10.088   7.532  0.1738  0.0222  0.1855
 1070loPI   C3B16451  16.119  10.135   8.045 -0.0666 -0.1496  0.2003
 1070loPI   C4B16452  16.031  10.201   8.426  0.1285  0.2059 -0.2680
 1071loPI    C116453   5.838  11.932   5.782 -0.1236 -0.1055 -0.0693
 1071loPI    C216454   6.056  11.844   5.458  0.1474 -0.1213  0.1146
 1071loPI    C316455   6.010  12.225   5.570 -0.0112 -0.1103  0.0140
 1071loPI   PO416456   5.914  11.865   6.009  0.0242  0.0239  0.0084
 1071loPI   GL116457   5.955  11.998   6.436 -0.2830  0.0279 -0.0899
 1071loPI   GL216458   6.315  12.066   6.440 -0.1319  0.4052  0.4130
 1071loPI   C1A16459   5.940  11.912   6.912  0.0322  0.2336  0.0681
 1071loPI   C2A16460   5.808  11.976   7.301  0.4638 -0.2574  0.0687
 1071loPI   C3A16461   5.752  11.988   7.669  0.3286  0.1515 -0.1542
 1071loPI   C4A16462   5.809  11.979   8.070 -0.1260 -0.4057  0.1277
 1071loPI   C5A16463   5.970  12.039   8.519 -0.2458 -0.0619  0.1143
 1071loPI   C6A16464   5.858  12.025   8.930 -0.0723 -0.0641  0.1778
 1071loPI   C1B16465   6.507  12.031   6.875 -0.2744  0.0595  0.0919
 1071loPI   C2B16466   6.380  11.963   7.303 -0.1926 -0.0085  0.1861
 1071loPI   C3B16467   6.263  12.044   7.773 -0.2478 -0.0580  0.1614
 1071loPI   C4B16468   6.372  12.039   8.188  0.1395 -0.2856  0.0603
 1072loPI    C116469   3.671   6.688   5.619  0.0315 -0.2924  0.0621
 1072loPI    C216470   3.618   6.419   5.328  0.3689 -0.0117 -0.2697
 1072loPI    C316471   3.657   6.807   5.238 -0.0730  0.1543  0.1987
 1072loPI   PO416472   3.576   6.562   5.842  0.0487  0.1487 -0.0274
 1072loPI   GL116473   3.646   6.610   6.306 -0.1897  0.2521 -0.0825
 1072loPI   GL216474   3.465   6.507   6.542 -0.2919  0.1090 -0.2577
 1072loPI   C1A16475   3.941   6.560   6.701  0.0240  0.2798 -0.1470
 1072loPI   C2A16476   4.000   6.648   7.169  0.2977 -0.0950  0.0062
 1072loPI   C3A16477   4.090   6.609   7.544 -0.2272 -0.0079  0.2207
 1072loPI   C4A16478   3.923   6.610   7.963 -0.1272  0.1221 -0.5569
 1072loPI   C5A16479   3.834   6.492   8.317 -0.0102  0.0363  0.1083
 1072loPI   C6A16480   3.610   6.464   8.615  0.1781  0.0421 -0.1253
 1072loPI   C1B16481   3.524   6.606   6.946  0.0498  0.0687 -0.2060
 1072loPI   C2B16482   3.537   6.609   7.350 -0.0751 -0.2138 -0.0428
 1072loPI   C3B16483   3.544   6.613   7.712  0.1015  0.4062  0.1863
 1072loPI   C4B16484   3.384   6.502   8.148 -0.0881 -0.1872  0.2715
 1073loPI    C116485  14.081   5.773   5.557 -0.0485  0.0290 -0.1351
 1073loPI    C216486  13.747   5.729   5.342 -0.1553 -0.2047  0.0745
 1073loPI    C316487  14.089   5.563   5.217 -0.1396 -0.0523 -0.0874
 1073loPI   PO416488  13.957   5.798   5.906 -0.1202  0.2201 -0.0585
 1073loPI   GL116489  14.193   5.756   6.216  0.6144 -0.1441  0.0151
 1073loPI   GL216490  14.385   5.983   6.273 -0.2774  0.0066 -0.1915
 1073loPI   C1A16491  14.219   5.614   6.613  0.3688  0.1699  0.0913
 1073loPI   C2A16492  14.208   5.528   7.014  0.4730  0.0232 -0.0958
 1073loPI   C3A16493  14.195   5.515   7.433  0.1740  0.1092  0.3963
 1073loPI   C4A16494  14.164   5.501   7.829 -0.1928 -0.0253  0.0914
 1073loPI   C5A16495  14.158   5.582   8.323  0.1447  0.3224 -0.0295
 1073loPI   C6A16496  13.821   5.795   8.544  0.1981  0.0558 -0.2381
 1073loPI   C1B16497  14.465   6.047   6.805  0.1554  0.0935 -0.0102
 1073loPI   C2B16498  14.435   5.929   7.211  0.0530 -0.1038 -0.0621
 1073loPI   C3B16499  14.471   5.983   7.671 -0.0997 -0.0512 -0.3159
 1073loPI   C4B16500  14.460   5.978   8.143 -0.0918 -0.0275 -0.1657
 1074loPI    C116501   6.927   9.201   6.023  0.3031 -0.0762 -0.0093
 1074loPI    C216502   6.817   9.224   5.639  0.0114  0.0312  0.0782
 1074loPI    C316503   6.583   9.037   5.904  0.2210 -0.0599  0.2019
 1074loPI   PO416504   6.881   9.468   6.126 -0.2907 -0.1302  0.0604
 1074loPI   GL116505   7.310   9.577   6.392  0.2185  0.2024 -0.1062
 1074loPI   GL216506   7.110   9.385   6.575  0.0769  0.0181  0.3586
 1074loPI   C1A16507   7.376   9.797   6.812 -0.0840 -0.2547  0.2699
 1074loPI   C2A16508   7.334   9.812   7.287  0.0570  0.1446  0.1106
 1074loPI   C3A16509   7.263   9.843   7.683 -0.1010 -0.0878  0.0688
 1074loPI   C4A16510   7.259   9.922   8.134 -0.0516 -0.1039  0.0673
 1074loPI   C5A16511   7.099   9.783   8.586 -0.0432  0.0676 -0.3054
 1074loPI   C6A16512   7.085   9.330   8.757 -0.0464 -0.2036 -0.2522
 1074loPI   C1B16513   7.055   9.412   7.032  0.2459  0.2225  0.1787
 1074loPI   C2B16514   7.044   9.440   7.446 -0.0994 -0.1405  0.5181
 1074loPI   C3B16515   7.052   9.447   7.808  0.2501 -0.1553  0.1884
 1074loPI   C4B16516   6.981   9.392   8.178 -0.0136 -0.0377  0.0298
 1075loPI    C116517   4.029   6.828   5.978 -0.2626  0.1342  0.1065
 1075loPI    C216518   4.120   6.595   6.291 -0.1474 -0.0388 -0.0537
 1075loPI    C316519   4.101   6.438   5.923 -0.1256  0.1943 -0.1563
 1075loPI   PO416520   3.831   7.005   5.979 -0.0398  0.0425  0.0098
 1075loPI   GL116521   3.626   7.125   6.344  0.1980 -0.3910 -0.1365
 1075loPI   GL216522   3.873   7.110   6.483  0.2322  0.0389 -0.2810
 1075loPI   C1A16523   3.311   7.070   6.630 -0.2102 -0.0271 -0.1472
 1075loPI   C2A16524   3.249   6.988   7.086  0.0593 -0.1203  0.0667
 1075loPI   C3A16525   3.303   7.043   7.489 -0.0028  0.0251 -0.1431
 1075loPI   C4A16526   3.249   6.991   7.998 -0.2204 -0.0793 -0.0630
 1075loPI   C5A16527   3.194   6.854   8.464 -0.0054 -0.1315 -0.1091
 1075loPI   C6A16528   3.334   6.818   8.966  0.2799  0.3379  0.0557
 1075loPI   C1B16529   3.790   7.073   6.905  0.1903 -0.1002  0.0375
 1075loPI   C2B16530   3.776   7.059   7.339 -0.1186  0.1627  0.1597
 1075loPI   C3B16531   3.701   7.093   7.770  0.0081 -0.0246 -0.0823
 1075loPI   C4B16532   3.716   7.026   8.245 -0.2432  0.3902  0.2210
 1076loPI    C116533  11.868   2.103   5.662 -0.0650  0.0695  0.0894
 1076loPI    C216534  12.227   2.092   5.486 -0.1110  0.0597 -0.0047
 1076loPI    C316535  11.923   2.281   5.308 -0.1734 -0.0016  0.0360
 1076loPI   PO416536  11.895   2.164   5.925  0.1452 -0.0042 -0.1254
 1076loPI   GL116537  11.764   2.090   6.345  0.0684  0.2183 -0.0019
 1076loPI   GL216538  12.056   2.090   6.450  0.0049  0.0490  0.0443
 1076loPI   C1A16539  11.567   2.055   6.626  0.1538  0.1272  0.2107
 1076loPI   C2A16540  11.556   2.235   6.984 -0.3254  0.0306  0.4223
 1076loPI   C3A16541  11.467   2.253   7.393  0.2172 -0.3361  0.1454
 1076loPI   C4A16542  11.444   2.192   7.806  0.0146  0.1759 -0.1235
 1076loPI   C5A16543  11.250   2.122   8.147  0.0203 -0.2136  0.0059
 1076loPI   C6A16544  11.158   2.240   8.496  0.2570 -0.2830  0.0401
 1076loPI   C1B16545  12.019   2.188   6.896 -0.3810 -0.1330  0.0238
 1076loPI   C2B16546  11.974   2.276   7.279 -0.3385 -0.3475 -0.0170
 1076loPI   C3B16547  11.982   2.227   7.802 -0.0587 -0.0077  0.1361
 1076loPI   C4B16548  12.033   2.238   8.186 -0.3027 -0.0422  0.0558
 1077loPI    C116549  13.984  10.359   5.741 -0.1806 -0.0174 -0.0597
 1077loPI    C216550  13.596  10.429   5.675 -0.1645  0.2120  0.0781
 1077loPI    C316551  13.871  10.691   5.549 -0.0468  0.0081 -0.0957
 1077loPI   PO416552  13.976  10.393   6.029 -0.4946 -0.1807 -0.0731
 1077loPI   GL116553  13.981  10.299   6.450 -0.3615  0.2293 -0.0216
 1077loPI   GL216554  13.998   9.966   6.520  0.1512 -0.1424  0.1969
 1077loPI   C1A16555  13.998  10.506   6.819 -0.1523  0.2983  0.1816
 1077loPI   C2A16556  13.782  10.536   7.220 -0.2113 -0.0945  0.2365
 1077loPI   C3A16557  13.694  10.644   7.691  0.1967 -0.0642  0.1463
 1077loPI   C4A16558  13.693  10.653   8.038 -0.4799 -0.1084  0.1580
 1077loPI   C5A16559  13.774  10.704   8.430 -0.1747 -0.0148 -0.4924
 1077loPI   C6A16560  13.661  10.451   8.863 -0.0289 -0.1628 -0.2530
 1077loPI   C1B16561  14.090  10.034   6.969 -0.0653  0.1874 -0.1551
 1077loPI   C2B16562  14.068  10.120   7.373  0.1855 -0.1476  0.4214
 1077loPI   C3B16563  14.056  10.135   7.861  0.1288 -0.1614  0.0601
 1077loPI   C4B16564  14.063  10.196   8.301  0.3621  0.1605  0.0696
 1078loPI    C116565   5.436  12.290   5.590  0.0725 -0.0934 -0.0020
 1078loPI    C216566   5.298  11.932   5.476 -0.1974  0.0128 -0.0163
 1078loPI    C316567   5.632  12.079   5.312 -0.1884 -0.1497 -0.1462
 1078loPI   PO416568   5.485  12.341   5.848 -0.1161 -0.2133  0.0170
 1078loPI   GL116569   5.456  12.095   6.330  0.0067  0.3742 -0.1487
 1078loPI   GL216570   5.612  12.386   6.548 -0.2465 -0.3103  0.2070
 1078loPI   C1A16571   5.457  11.958   6.788  0.0986 -0.0302  0.3023
 1078loPI   C2A16572   5.277  11.970   7.165 -0.2273 -0.0378  0.1521
 1078loPI   C3A16573   5.244  11.956   7.534  0.0335  0.1777  0.2180
 1078loPI   C4A16574   5.333  12.028   7.943  0.1457  0.1537  0.0110
 1078loPI   C5A16575   5.460  11.927   8.384  0.1150  0.0349  0.0179
 1078loPI   C6A16576   5.241  12.083   8.800 -0.3503  0.0316 -0.0905
 1078loPI   C1B16577   5.720  12.332   6.933 -0.0382 -0.3070  0.0541
 1078loPI   C2B16578   5.533  12.382   7.361 -0.0842 -0.1841 -0.3382
 1078loPI   C3B16579   5.514  12.519   7.915 -0.1308 -0.0236  0.0863
 1078loPI   C4B16580   5.402  12.431   8.431 -0.2285 -0.0088 -0.1454
 1079loPI    C116581   7.405   4.945   5.801 -0.1683  0.0966  0.1661
 1079loPI    C216582   7.500   4.796   5.443 -0.1301  0.0081  0.2127
 1079loPI    C316583   7.519   5.190   5.507 -0.1949  0.0300  0.1001
 1079loPI   PO416584   7.633   4.774   6.010  0.1481  0.0515  0.0463
 1079loPI   GL116585   7.632   4.460   6.336 -0.0634  0.1845  0.1301
 1079loPI   GL216586   7.649   4.132   6.132  0.1861 -0.3504 -0.0364
 1079loPI   C1A16587   7.530   4.484   6.795  0.0773 -0.2440  0.2165
 1079loPI   C2A16588   7.556   4.499   7.263  0.1614 -0.2578 -0.0741
 1079loPI   C3A16589   7.563   4.501   7.689  0.2516  0.0663  0.0470
 1079loPI   C4A16590   7.504   4.401   8.136  0.3152  0.1624 -0.0060
 1079loPI   C5A16591   7.604   4.091   8.497  0.0135 -0.3514 -0.2950
 1079loPI   C6A16592   7.677   4.004   8.939  0.0503 -0.0086 -0.2588
 1079loPI   C1B16593   7.765   4.026   6.515  0.0733  0.0367  0.0369
 1079loPI   C2B16594   7.824   4.037   6.918  0.2018 -0.1916  0.0934
 1079loPI   C3B16595   7.908   4.026   7.369  0.3082  0.1225  0.0799
 1079loPI   C4B16596   7.816   4.075   7.788  0.1195 -0.0431  0.1779
 1080loPI    C116597   4.815  11.046   5.728 -0.1293  0.2688 -0.2099
 1080loPI    C216598   5.128  10.937   5.503 -0.1113 -0.0649 -0.0298
 1080loPI    C316599   4.755  10.873   5.372 -0.1110  0.3832 -0.2689
 1080loPI   PO416600   4.920  10.977   6.020 -0.1657  0.0120 -0.0163
 1080loPI   GL116601   4.773  11.034   6.532  0.2026 -0.1638 -0.0152
 1080loPI   GL216602   5.078  10.839   6.587 -0.0960 -0.0456  0.1321
 1080loPI   C1A16603   4.780  11.017   6.999  0.2511  0.0236  0.0097
 1080loPI   C2A16604   4.823  11.043   7.455  0.1766  0.0578 -0.2595
 1080loPI   C3A16605   4.858  11.100   7.855  0.2647 -0.0359  0.1472
 1080loPI   C4A16606   4.818  11.150   8.331  0.0650 -0.0313  0.1004
 1080loPI   C5A16607   4.535  11.357   8.615  0.0862 -0.1075  0.3121
 1080loPI   C6A16608   4.276  11.335   8.958  0.1566  0.3223 -0.1851
 1080loPI   C1B16609   5.142  10.683   7.038  0.1166 -0.0600 -0.0154
 1080loPI   C2B16610   5.075  10.585   7.527 -0.2113  0.1445  0.1881
 1080loPI   C3B16611   5.245  10.630   7.963 -0.0563 -0.1390 -0.0312
 1080loPI   C4B16612   5.123  10.631   8.496 -0.0987 -0.0052  0.1921
 1081loPI    C116613   6.713   1.116   5.785 -0.1916 -0.0708  0.1132
 1081loPI    C216614   6.494   1.448   5.745 -0.1667 -0.0750 -0.0661
 1081loPI    C316615   6.843   1.414   5.553 -0.0426 -0.0991  0.1592
 1081loPI   PO416616   6.807   1.121   6.003  0.0997  0.1603  0.0361
 1081loPI   GL116617   6.900   1.218   6.465 -0.0283 -0.1984 -0.2365
 1081loPI   GL216618   6.747   0.918   6.551 -0.3107 -0.4727 -0.3838
 1081loPI   C1A16619   6.890   1.220   6.879 -0.1609 -0.0908 -0.2106
 1081loPI   C2A16620   6.853   1.197   7.318 -0.0310 -0.0342 -0.3265
 1081loPI   C3A16621   6.791   1.244   7.808  0.1457  0.3229 -0.1494
 1081loPI   C4A16622   6.744   1.212   8.125 -0.0753  0.4184 -0.4865
 1081loPI   C5A16623   6.776   1.251   8.518 -0.0809 -0.0564  0.2644
 1081loPI   C6A16624   6.547   1.101   8.828  0.1706 -0.3142 -0.0167
 1081loPI   C1B16625   6.566   0.794   6.918  0.0279  0.0697 -0.0579
 1081loPI   C2B16626   6.595   0.775   7.308  0.3542  0.2193 -0.1397
 1081loPI   C3B16627   6.552   0.805   7.778 -0.4593  0.0590 -0.0330
 1081loPI   C4B16628   6.484   0.809   8.262  0.0729 -0.3112  0.3096
 1082loPI    C116629   1.643  11.399   6.121 -0.0135 -0.3492  0.0241
 1082loPI    C216630   1.986  11.491   5.936 -0.1175  0.0862  0.0376
 1082loPI    C316631   1.642  11.493   5.732 -0.1700  0.0930  0.1257
 1082loPI   PO416632   1.733  11.495   6.453  0.0674  0.1569  0.2886
 1082loPI   GL116633   1.943  11.330   6.757  0.0053  0.3389  0.2228
 1082loPI   GL216634   1.652  11.092   6.787  0.0480  0.1206 -0.3541
 1082loPI   C1A16635   1.926  11.420   7.218  0.2354  0.0511  0.1729
 1082loPI   C2A16636   1.880  11.231   7.639 -0.1547 -0.1986 -0.2817
 1082loPI   C3A16637   1.835  11.186   8.068 -0.0660  0.0633  0.1626
 1082loPI   C4A16638   1.900  11.150   8.424  0.1573  0.1269 -0.0128
 1082loPI   C5A16639   1.728  10.943   8.798  0.3933  0.2248  0.4599
 1082loPI   C6A16640   1.701  10.503   8.918 -0.0923  0.0180  0.0909
 1082loPI   C1B16641   1.643  10.702   7.082  0.0402 -0.2007  0.0201
 1082loPI   C2B16642   1.617  10.843   7.499  0.2277 -0.1457  0.1927
 1082loPI   C3B16643   1.581  10.710   7.899  0.1963 -0.0765  0.1611
 1082loPI   C4B16644   1.745  10.599   8.339  0.3338  0.0192 -0.0349
 1083loPI    C116645   2.437   8.263   5.795 -0.1887 -0.1516  0.1716
 1083loPI    C216646   2.547   8.059   5.469 -0.0116 -0.1240  0.2129
 1083loPI    C316647   2.159   8.119   5.547 -0.0542 -0.1114 -0.0043
 1083loPI   PO416648   2.558   8.156   5.962  0.0108 -0.1170 -0.1284
 1083loPI   GL116649   2.619   8.159   6.389  0.0669 -0.0575  0.2527
 1083loPI   GL216650   2.890   8.003   6.412 -0.0987 -0.2092 -0.0342
 1083loPI   C1A16651   2.433   8.332   6.787 -0.0276 -0.2171  0.3846
 1083loPI   C2A16652   2.467   8.277   7.191 -0.1022  0.0442  0.0523
 1083loPI   C3A16653   2.356   8.301   7.456 -0.0907  0.2063  0.2361
 1083loPI   C4A16654   2.376   8.374   7.972 -0.2659  0.0346  0.2184
 1083loPI   C5A16655   2.354   8.344   8.389  0.0348  0.2123  0.0296
 1083loPI   C6A16656   2.592   7.995   8.650 -0.0827  0.0403  0.0200
 1083loPI   C1B16657   2.629   7.787   6.764  0.0080  0.2899 -0.1341
 1083loPI   C2B16658   2.683   7.824   7.281  0.1474  0.1894 -0.3027
 1083loPI   C3B16659   2.659   7.831   7.733 -0.2424  0.1851 -0.1838
 1083loPI   C4B16660   2.429   7.882   8.097  0.0013 -0.2511 -0.0225
 1084loPI    C116661  16.557   2.832   5.509  0.2468  0.0976 -0.2362
 1084loPI    C216662  16.356   3.170   5.581  0.0268 -0.0980  0.0945
 1084loPI    C316663  16.227   2.916   5.300 -0.0256 -0.0877  0.1092
 1084loPI   PO416664  16.760   2.902   5.677 -0.1931  0.2147 -0.1133
 1084loPI   GL116665  16.981   2.953   6.134 -0.0029  0.2392 -0.1101
 1084loPI   GL216666  17.109   3.151   6.445  0.1936 -0.1529  0.2986
 1084loPI   C1A16667  17.054   2.640   6.455 -0.1593  0.1595  0.0299
 1084loPI   C2A16668  17.187   2.490   6.838 -0.2859  0.1222 -0.1613
 1084loPI   C3A16669  17.250   2.477   7.241 -0.3229  0.2372 -0.1466
 1084loPI   C4A16670  17.181   2.527   7.668 -0.1591  0.0420 -0.0570
 1084loPI   C5A16671  17.299   2.392   8.051 -0.0640 -0.2375  0.2000
 1084loPI   C6A16672  17.338   2.370   8.544 -0.2135  0.0859 -0.1334
 1084loPI   C1B16673  16.986   2.951   6.769  0.1139 -0.1012  0.2171
 1084loPI   C2B16674  16.986   2.840   7.219  0.1666  0.0775  0.1299
 1084loPI   C3B16675  16.922   2.926   7.609  0.0285  0.0796  0.2158
 1084loPI   C4B16676  16.805   2.893   8.010  0.1739  0.0710  0.3829
 1085loPI    C116677  10.024   3.406   5.705 -0.0682  0.0119  0.2424
 1085loPI    C216678   9.926   3.793   5.728 -0.0480  0.0190  0.2094
 1085loPI    C316679   9.967   3.617   5.370  0.0822  0.0221  0.2225
 1085loPI   PO416680  10.106   3.376   6.004  0.0805  0.2994 -0.2620
 1085loPI   GL116681  10.028   3.228   6.303 -0.2100 -0.3275  0.0998
 1085loPI   GL216682  10.195   3.452   6.492 -0.2281  0.0736  0.1356
 1085loPI   C1A16683   9.949   3.098   6.764  0.0161 -0.2485 -0.1232
 1085loPI   C2A16684   9.850   3.071   7.236  0.0837 -0.2477 -0.0160
 1085loPI   C3A16685   9.961   3.170   7.690 -0.0379 -0.3903 -0.1067
 1085loPI   C4A16686   9.829   3.068   8.085  0.1172 -0.0971  0.0920
 1085loPI   C5A16687   9.942   3.151   8.437 -0.5168  0.2165  0.0766
 1085loPI   C6A16688  10.299   3.096   8.749 -0.1609  0.2372  0.0359
 1085loPI   C1B16689  10.124   3.578   6.793 -0.1651  0.2729 -0.1633
 1085loPI   C2B16690  10.156   3.693   7.236  0.0948 -0.2015 -0.0233
 1085loPI   C3B16691  10.174   3.617   7.609 -0.2160  0.0239 -0.1588
 1085loPI   C4B16692  10.100   3.523   8.072 -0.2117 -0.1669  0.1710
 1086loPI    C116693  14.701  16.572   6.093  0.1251  0.2673  0.0882
 1086loPI    C216694  14.531  16.823   5.832 -0.1061 -0.0659 -0.0886
 1086loPI    C316695  14.663  16.466   5.709  0.3443  0.0182  0.1329
 1086loPI   PO416696  14.700  16.665   6.301 -0.1741 -0.0141  0.0807
 1086loPI   GL116697  14.854  16.594   6.783 -0.1569  0.0767 -0.2674
 1086loPI   GL216698  15.272  16.717   6.869  0.4719 -0.1802  0.1554
 1086loPI   C1A16699  14.867  16.619   7.206  0.1426  0.2023 -0.0844
 1086loPI   C2A16700  14.914  16.719   7.616 -0.2696  0.2431  0.2752
 1086loPI   C3A16701  15.019  16.630   8.009  0.0862 -0.0376 -0.2235
 1086loPI   C4A16702  14.999  16.518   8.449  0.2116  0.1440 -0.0407
 1086loPI   C5A16703  14.740  16.223   8.731 -0.1978 -0.3857 -0.3720
 1086loPI   C6A16704  14.504  15.974   8.999  0.0234 -0.6016 -0.2044
 1086loPI   C1B16705  15.373  16.624   7.329 -0.0632 -0.0336 -0.3766
 1086loPI   C2B16706  15.466  16.635   7.765  0.1107  0.1723  0.1303
 1086loPI   C3B16707  15.494  16.714   8.190 -0.1125  0.0968  0.1194
 1086loPI   C4B16708  15.423  16.584   8.620 -0.0912  0.3147 -0.0770
 1087loPI    C116709   1.597   1.683   5.991  0.1649  0.1106  0.0052
 1087loPI    C216710   1.339   1.830   5.723  0.0241  0.1929  0.1837
 1087loPI    C316711   1.721   1.768   5.620 -0.0421  0.1660 -0.0524
 1087loPI   PO416712   1.559   1.712   6.160  0.5124 -0.1121 -0.2000
 1087loPI   GL116713   1.309   1.578   6.453  0.0048  0.1434  0.4062
 1087loPI   GL216714   0.915   1.519   6.456 -0.2567 -0.3468  0.0051
 1087loPI   C1A16715   1.341   1.518   6.866  0.2520 -0.0407  0.0233
 1087loPI   C2A16716   1.316   1.557   7.227 -0.1693  0.1256 -0.1918
 1087loPI   C3A16717   1.369   1.559   7.651  0.0977  0.2616 -0.1714
 1087loPI   C4A16718   1.375   1.661   8.113  0.1298 -0.1260  0.1245
 1087loPI   C5A16719   1.291   1.894   8.476 -0.0909  0.0354 -0.2543
 1087loPI   C6A16720   0.955   2.145   8.744 -0.2201 -0.2865  0.1166
 1087loPI   C1B16721   0.830   1.568   6.881 -0.0266 -0.0571 -0.0765
 1087loPI   C2B16722   0.773   1.580   7.308 -0.1133 -0.0305  0.0056
 1087loPI   C3B16723   0.888   1.559   7.749  0.2473  0.1944  0.4284
 1087loPI   C4B16724   0.821   1.559   8.049  0.3589  0.0419  0.1080
 1088loPI    C116725   5.785   0.689   5.811 -0.0008  0.1465 -0.2001
 1088loPI    C216726   5.592   0.384   5.639 -0.1682 -0.0513  0.3186
 1088loPI    C316727   5.457   0.757   5.593 -0.0890 -0.0730 -0.1391
 1088loPI   PO416728   5.913   0.549   6.062  0.1397 -0.0699  0.0127
 1088loPI   GL116729   5.773   0.489   6.535 -0.1319 -0.2797 -0.1715
 1088loPI   GL216730   5.567   0.848   6.707  0.0988 -0.0941  0.1215
 1088loPI   C1A16731   5.783   0.456   6.963  0.1676  0.0365  0.3548
 1088loPI   C2A16732   5.824   0.377   7.398 -0.0064  0.1024 -0.0783
 1088loPI   C3A16733   5.829   0.369   7.720 -0.3956 -0.0955 -0.1721
 1088loPI   C4A16734   5.735   0.445   8.172 -0.0649 -0.2001 -0.1387
 1088loPI   C5A16735   5.604   0.020   8.391  0.0330  0.0672 -0.1387
 1088loPI   C6A16736   5.646  -0.238   8.832  0.1357 -0.1009 -0.3514
 1088loPI   C1B16737   5.595   0.914   7.046 -0.3803  0.1790 -0.0570
 1088loPI   C2B16738   5.492   0.792   7.442 -0.0421  0.0811  0.1185
 1088loPI   C3B16739   5.421   0.776   7.928  0.0898  0.2334  0.2063
 1088loPI   C4B16740   5.473   0.851   8.358 -0.1181  0.0526 -0.1264
 1089loPI    C116741   0.802   9.899   5.829  0.0782 -0.2142 -0.2720
 1089loPI    C216742   0.416   9.796   5.807  0.0254 -0.0538 -0.1194
 1089loPI    C316743   0.582  10.012   5.514 -0.0526  0.0455 -0.0909
 1089loPI   PO416744   0.791   9.899   6.147  0.0737  0.1811 -0.3005
 1089loPI   GL116745   1.029   9.998   6.551 -0.0702  0.2485  0.2186
 1089loPI   GL216746   1.427   9.962   6.597  0.3696  0.0139  0.0997
 1089loPI   C1A16747   1.033   9.739   6.950 -0.1526 -0.3295  0.0359
 1089loPI   C2A16748   1.219   9.814   7.371 -0.0192  0.4693  0.0698
 1089loPI   C3A16749   1.133   9.816   7.769 -0.0903 -0.0166 -0.0245
 1089loPI   C4A16750   0.943   9.843   8.145 -0.2692  0.2030 -0.3110
 1089loPI   C5A16751   0.922   9.876   8.590 -0.2882  0.0683 -0.0889
 1089loPI   C6A16752   1.010  10.090   8.991 -0.3168  0.3502 -0.3922
 1089loPI   C1B16753   1.542   9.887   6.946 -0.0498 -0.0781 -0.0251
 1089loPI   C2B16754   1.709   9.889   7.321 -0.1485  0.1322 -0.0269
 1089loPI   C3B16755   1.649   9.751   7.708  0.4915 -0.1405  0.0211
 1089loPI   C4B16756   1.475   9.739   8.107  0.0184 -0.0142  0.1304
 1090loPI    C116757  10.076   9.291   5.864  0.2939 -0.0900 -0.1075
 1090loPI    C216758   9.900   9.209   5.515 -0.2301  0.2273  0.0706
 1090loPI    C316759  10.193   9.481   5.532  0.0126 -0.0127 -0.1643
 1090loPI   PO416760   9.886   9.211   6.007 -0.0834  0.0420 -0.1398
 1090loPI   GL116761  10.046   9.180   6.438  0.1830  0.1288  0.1935
 1090loPI   GL216762  10.055   9.017   6.657 -0.2137  0.0521 -0.1030
 1090loPI   C1A16763   9.852   9.455   6.686  0.0847  0.1284 -0.1023
 1090loPI   C2A16764   9.767   9.572   7.070 -0.2854  0.0565 -0.0383
 1090loPI   C3A16765   9.701   9.441   7.448 -0.2398  0.2068  0.1325
 1090loPI   C4A16766   9.587   9.539   7.844  0.2255 -0.2328 -0.2296
 1090loPI   C5A16767   9.456   9.716   8.193  0.1677 -0.0669 -0.1523
 1090loPI   C6A16768   9.608   9.642   8.561  0.0839 -0.1014  0.2261
 1090loPI   C1B16769   9.982   9.150   7.113  0.0522  0.0742  0.0694
 1090loPI   C2B16770  10.013   9.086   7.516 -0.0148 -0.4456 -0.0647
 1090loPI   C3B16771   9.905   9.053   7.899 -0.0378  0.1894 -0.0678
 1090loPI   C4B16772   9.958   8.904   8.259 -0.3503 -0.3850  0.1658
 1091loPI    C116773   3.691  16.425   5.818  0.0887  0.1250 -0.0274
 1091loPI    C216774   3.494  16.310   5.489  0.1655  0.1015 -0.0652
 1091loPI    C316775   3.708  16.648   5.486 -0.0592  0.2462  0.0456
 1091loPI   PO416776   3.516  16.299   5.993 -0.0700  0.0575  0.1623
 1091loPI   GL116777   3.680  16.412   6.430 -0.0851 -0.2263  0.3951
 1091loPI   GL216778   3.386  16.329   6.622  0.1367 -0.3895 -0.2773
 1091loPI   C1A16779   3.923  16.290   6.715 -0.0023  0.2533 -0.0992
 1091loPI   C2A16780   4.104  16.335   6.977  0.2385  0.0294  0.1243
 1091loPI   C3A16781   4.014  16.437   7.437 -0.1662 -0.0458 -0.3256
 1091loPI   C4A16782   4.025  16.407   7.831 -0.0890  0.1232  0.0280
 1091loPI   C5A16783   3.975  16.470   8.305  0.0646  0.0182 -0.0026
 1091loPI   C6A16784   4.407  16.462   8.498 -0.1438 -0.3139 -0.1303
 1091loPI   C1B16785   3.561  16.316   7.072 -0.1216 -0.1071 -0.2877
 1091loPI   C2B16786   3.517  16.363   7.520  0.1026  0.0701  0.2750
 1091loPI   C3B16787   3.573  16.362   7.999 -0.2592 -0.0995 -0.2403
 1091loPI   C4B16788   3.412  16.391   8.393  0.1596 -0.2174 -0.1145
 1092loPI    C116789   0.392  16.032   6.229  0.2574  0.1462  0.2044
 1092loPI    C216790   0.082  15.926   6.000  0.1863  0.2401  0.2567
 1092loPI    C316791   0.356  16.181   5.859  0.3118  0.0550  0.1621
 1092loPI   PO416792   0.505  15.817   6.322 -0.0865 -0.1677 -0.0279
 1092loPI   GL116793   0.508  15.808   6.721  0.3934  0.0845 -0.2211
 1092loPI   GL216794   0.405  15.473   6.771 -0.1926  0.0044  0.0792
 1092loPI   C1A16795   0.702  15.984   7.094 -0.0335 -0.3061  0.1296
 1092loPI   C2A16796   0.683  15.942   7.562 -0.1419 -0.3374  0.1234
 1092loPI   C3A16797   0.578  15.727   7.987 -0.1130 -0.2281  0.0043
 1092loPI   C4A16798   0.461  15.812   8.399  0.3929 -0.0931  0.0529
 1092loPI   C5A16799   0.390  15.653   8.804  0.0685  0.1484  0.1404
 1092loPI   C6A16800   0.107  15.428   9.051 -0.1008  0.1992 -0.1517
 1092loPI   C1B16801   0.401  15.645   7.172  0.1587 -0.0500 -0.1113
 1092loPI   C2B16802   0.482  15.502   7.554  0.0435 -0.0709  0.2961
 1092loPI   C3B16803   0.378  15.272   7.939  0.1515  0.1159  0.1361
 1092loPI   C4B16804   0.273  15.302   8.395 -0.0491 -0.1994  0.2543
 1093loPI    C116805   0.601  11.708   6.077  0.0579  0.1761  0.0130
 1093loPI    C216806   0.556  12.062   5.897 -0.1943  0.0936 -0.0911
 1093loPI    C316807   0.511  11.724   5.688  0.0595 -0.0018  0.0043
 1093loPI   PO416808   0.473  11.637   6.234  0.0123 -0.1232  0.2034
 1093loPI   GL116809   0.443  11.617   6.696 -0.0971 -0.1368  0.0324
 1093loPI   GL216810   0.636  11.489   6.660  0.3564  0.2277  0.1640
 1093loPI   C1A16811   0.155  11.631   7.015  0.0247 -0.1173 -0.0574
 1093loPI   C2A16812   0.053  11.611   7.338  0.1780  0.0812 -0.1316
 1093loPI   C3A16813   0.014  11.593   7.707  0.2585  0.3777 -0.1451
 1093loPI   C4A16814  -0.055  11.587   8.178  0.3077 -0.0746  0.3818
 1093loPI   C5A16815  -0.182  11.567   8.613  0.1869 -0.0120 -0.1298
 1093loPI   C6A16816  -0.244  11.463   9.005 -0.0588 -0.1599  0.2832
 1093loPI   C1B16817   0.693  11.616   7.152  0.1579  0.2367 -0.1010
 1093loPI   C2B16818   0.700  11.515   7.611 -0.0589  0.1011 -0.1387
 1093loPI   C3B16819   0.414  11.484   8.068 -0.2123 -0.0621  0.1899
 1093loPI   C4B16820   0.290  11.453   8.533 -0.0184 -0.0145 -0.1622
 1094loPI    C116821   2.644  12.059   6.054 -0.0791  0.2587  0.0296
 1094loPI    C216822   2.520  11.723   5.876  0.0352  0.1644  0.1256
 1094loPI    C316823   2.284  12.046   5.882 -0.0393  0.1141 -0.0442
 1094loPI   PO416824   2.708  11.963   6.315 -0.3885 -0.2439 -0.0388
 1094loPI   GL116825   2.493  12.065   6.681 -0.2554  0.2696  0.1634
 1094loPI   GL216826   2.896  12.283   6.701  0.4582  0.1018 -0.2428
 1094loPI   C1A16827   2.634  11.900   7.097 -0.2341  0.0507 -0.1430
 1094loPI   C2A16828   2.635  11.856   7.505  0.1465  0.1749  0.1251
 1094loPI   C3A16829   2.608  11.787   7.941 -0.2272 -0.5152  0.2067
 1094loPI   C4A16830   2.623  11.631   8.473  0.2387  0.1090  0.1844
 1094loPI   C5A16831   2.340  11.707   8.843  0.4296  0.0561 -0.1154
 1094loPI   C6A16832   2.109  11.769   9.219 -0.2515  0.0125 -0.0352
 1094loPI   C1B16833   2.941  12.371   7.096 -0.2305  0.0996 -0.3875
 1094loPI   C2B16834   2.872  12.338   7.553 -0.1770  0.4494  0.2732
 1094loPI   C3B16835   2.875  12.341   7.925 -0.0243  0.2379 -0.0530
 1094loPI   C4B16836   2.867  12.273   8.286  0.0480 -0.1079  0.1589
 1095loPI    C116837   6.267   7.544   5.825 -0.0939 -0.0456  0.2503
 1095loPI    C216838   5.872   7.482   5.843 -0.1123 -0.0356 -0.0659
 1095loPI    C316839   6.021   7.751   5.587  0.1205 -0.2524 -0.1628
 1095loPI   PO416840   6.338   7.540   6.141  0.1642  0.0522 -0.1999
 1095loPI   GL116841   6.432   7.763   6.525  0.0263  0.1843  0.0097
 1095loPI   GL216842   6.220   8.015   6.635 -0.0639 -0.1870  0.2262
 1095loPI   C1A16843   6.611   7.521   6.780 -0.0042 -0.0491  0.0174
 1095loPI   C2A16844   6.726   7.513   7.234  0.0909 -0.1718  0.0053
 1095loPI   C3A16845   6.566   7.616   7.713  0.2503  0.2659  0.2224
 1095loPI   C4A16846   6.682   7.674   8.150 -0.1725 -0.2067  0.1669
 1095loPI   C5A16847   6.480   7.569   8.565  0.0960 -0.1761 -0.0427
 1095loPI   C6A16848   6.645   7.724   8.936 -0.0529  0.1570 -0.3125
 1095loPI   C1B16849   6.246   8.099   7.095  0.0616  0.1812 -0.0959
 1095loPI   C2B16850   6.359   8.093   7.519  0.0733  0.2809  0.0611
 1095loPI   C3B16851   6.303   8.077   7.951 -0.1671 -0.0653 -0.0519
 1095loPI   C4B16852   6.253   8.051   8.403 -0.1829  0.1427 -0.1105
 1096loPI    C116853   0.823  10.934   6.001  0.0564  0.1696  0.0643
 1096loPI    C216854   0.497  10.913   5.769  0.0345  0.0735  0.1031
 1096loPI    C316855   0.692  11.260   5.810  0.0801  0.0751 -0.1156
 1096loPI   PO416856   0.837  10.875   6.168  0.1426 -0.0688 -0.0812
 1096loPI   GL116857   0.728  10.967   6.611 -0.2468  0.2422 -0.2427
 1096loPI   GL216858   0.651  10.673   6.784 -0.1024  0.2345  0.1906
 1096loPI   C1A16859   0.800  11.125   7.031 -0.0100  0.0948  0.0592
 1096loPI   C2A16860   0.796  11.048   7.429 -0.1363 -0.1751  0.0875
 1096loPI   C3A16861   0.647  11.095   7.880 -0.2790 -0.3160 -0.0278
 1096loPI   C4A16862   0.685  11.172   8.370 -0.1589  0.1730  0.1072
 1096loPI   C5A16863   0.718  11.228   8.801 -0.0555  0.0513 -0.1961
 1096loPI   C6A16864   0.686  11.610   9.081  0.0148  0.4372 -0.0658
 1096loPI   C1B16865   0.585  10.627   7.217  0.1237  0.1420 -0.0023
 1096loPI   C2B16866   0.540  10.607   7.595 -0.2973 -0.1788  0.2828
 1096loPI   C3B16867   0.497  10.640   7.879  0.1582 -0.1017  0.0003
 1096loPI   C4B16868   0.438  10.729   8.246 -0.6260  0.1972  0.1220
 1097loPI    C116869   0.401  13.962   5.949  0.1846 -0.0241 -0.0024
 1097loPI    C216870   0.631  14.155   5.685  0.1160 -0.1450 -0.1520
 1097loPI    C316871   0.333  13.920   5.557  0.0536 -0.1692  0.0346
 1097loPI   PO416872   0.390  14.036   6.219  0.3206 -0.0760  0.1389
 1097loPI   GL116873   0.480  13.975   6.493 -0.0979 -0.0667  0.0613
 1097loPI   GL216874   0.418  14.283   6.674  0.1235  0.0353 -0.1358
 1097loPI   C1A16875   0.645  13.935   6.936 -0.0363  0.4489 -0.3257
 1097loPI   C2A16876   0.625  14.027   7.387 -0.1147 -0.3275 -0.1052
 1097loPI   C3A16877   0.594  13.994   7.782 -0.2632  0.1056  0.2920
 1097loPI   C4A16878   0.746  13.856   8.171  0.1692  0.2162  0.3142
 1097loPI   C5A16879   0.817  14.252   8.417  0.1049 -0.4849 -0.2159
 1097loPI   C6A16880   0.925  14.472   8.763  0.2900 -0.1650  0.0890
 1097loPI   C1B16881   0.324  14.313   7.108 -0.1898  0.0395  0.0958
 1097loPI   C2B16882   0.396  14.404   7.636  0.1703  0.0768  0.3508
 1097loPI   C3B16883   0.472  14.404   8.057  0.0417 -0.2778 -0.2080
 1097loPI   C4B16884   0.263  14.356   8.353 -0.0226  0.0976  0.2392
 1098loPI    C116885  11.614   0.701   5.661  0.2066  0.0841  0.3387
 1098loPI    C216886  11.351   1.001   5.631  0.2635  0.1085  0.0525
 1098loPI    C316887  11.239   0.627   5.544  0.2537  0.0793  0.1883
 1098loPI   PO416888  11.646   0.706   5.988 -0.1434 -0.1206 -0.1602
 1098loPI   GL116889  11.634   0.549   6.421 -0.0890  0.0934 -0.0113
 1098loPI   GL216890  11.893   0.414   6.310 -0.1635 -0.0162  0.1401
 1098loPI   C1A16891  11.538   0.415   6.836 -0.1552  0.0008  0.0446
 1098loPI   C2A16892  11.428   0.439   7.329  0.0407 -0.2563  0.2471
 1098loPI   C3A16893  11.396   0.462   7.742 -0.2966  0.0308  0.4495
 1098loPI   C4A16894  11.595   0.355   8.204  0.0180 -0.1052 -0.2322
 1098loPI   C5A16895  11.531   0.572   8.566  0.0276 -0.0707  0.1782
 1098loPI   C6A16896  11.627   0.656   8.952 -0.0523 -0.0271  0.2556
 1098loPI   C1B16897  12.028   0.439   6.722  0.0763 -0.1393  0.0881
 1098loPI   C2B16898  12.001   0.420   7.243  0.0097 -0.0182  0.1144
 1098loPI   C3B16899  11.996   0.444   7.647 -0.0092 -0.0205 -0.0516
 1098loPI   C4B16900  12.057   0.429   8.080  0.0945 -0.0159 -0.0752
 1099loPI    C116901   0.349   8.959   5.896  0.0195  0.3990  0.0412
 1099loPI    C216902   0.286   8.658   5.641  0.0296  0.0126  0.4803
 1099loPI    C316903   0.608   8.892   5.598 -0.0438  0.0451  0.0613
 1099loPI   PO416904   0.314   8.879   6.103  0.3036  0.2061 -0.1355
 1099loPI   GL116905   0.395   9.123   6.454  0.0510  0.0602 -0.4758
 1099loPI   GL216906   0.260   9.430   6.645  0.1880  0.0078  0.0577
 1099loPI   C1A16907   0.116   8.982   6.716  0.0023  0.0413  0.0394
 1099loPI   C2A16908   0.047   8.832   7.161  0.0779  0.1920  0.0433
 1099loPI   C3A16909  -0.021   8.830   7.640  0.0076 -0.0587  0.2166
 1099loPI   C4A16910  -0.016   8.904   8.003  0.2506  0.0144  0.0579
 1099loPI   C5A16911  -0.045   8.943   8.416  0.1042 -0.0923  0.1905
 1099loPI   C6A16912  -0.065   8.736   8.760 -0.0637  0.0453 -0.0746
 1099loPI   C1B16913   0.294   9.281   7.029  0.0588 -0.1119  0.0876
 1099loPI   C2B16914   0.393   9.355   7.357 -0.0030 -0.1424 -0.0233
 1099loPI   C3B16915   0.252   9.265   7.768  0.2174  0.1696  0.1350
 1099loPI   C4B16916   0.270   9.311   8.269 -0.1447 -0.2320  0.1317
 1100loPI    C116917  15.425   8.485   5.999 -0.3574  0.1939 -0.1870
 1100loPI    C216918  15.656   8.790   5.883  0.0058  0.0018  0.0130
 1100loPI    C316919  15.546   8.511   5.619 -0.1884  0.2129 -0.1327
 1100loPI   PO416920  15.477   8.417   6.116 -0.0316 -0.0978  0.1284
 1100loPI   GL116921  15.445   8.386   6.496  0.0761 -0.0953 -0.2707
 1100loPI   GL216922  15.142   8.342   6.530 -0.0756 -0.0753  0.3490
 1100loPI   C1A16923  15.707   8.374   6.837  0.1197 -0.2146  0.1522
 1100loPI   C2A16924  15.810   8.250   7.178  0.1319 -0.2352 -0.0088
 1100loPI   C3A16925  15.673   8.300   7.685  0.2125 -0.0383  0.0635
 1100loPI   C4A16926  15.667   8.361   8.047  0.0860 -0.0349  0.1351
 1100loPI   C5A16927  15.599   8.341   8.517 -0.0562  0.2278  0.2274
 1100loPI   C6A16928  15.738   8.496   8.967  0.2141  0.2153  0.2460
 1100loPI   C1B16929  15.126   8.325   6.915  0.1120  0.2291 -0.1103
 1100loPI   C2B16930  15.176   8.378   7.385  0.0851  0.1352 -0.3204
 1100loPI   C3B16931  15.152   8.357   7.805  0.5121  0.1306 -0.1820
 1100loPI   C4B16932  15.178   8.279   8.206  0.0936 -0.1385  0.0103
 1101loPI    C116933  10.969   7.152   5.904  0.1873 -0.4601  0.1774
 1101loPI    C216934  11.042   7.238   5.520 -0.1811 -0.0027  0.2008
 1101loPI    C316935  10.840   6.906   5.616  0.1468 -0.2603  0.0225
 1101loPI   PO416936  10.891   7.313   6.043  0.0040  0.3082  0.0721
 1101loPI   GL116937  10.824   7.462   6.461 -0.0380 -0.0363 -0.3003
 1101loPI   GL216938  10.759   7.816   6.524 -0.5733  0.2240  0.0526
 1101loPI   C1A16939  10.944   7.324   6.833  0.2382  0.1410 -0.1398
 1101loPI   C2A16940  11.007   7.287   7.253 -0.3400  0.1409  0.3078
 1101loPI   C3A16941  11.051   7.369   7.692  0.2046  0.0723 -0.0631
 1101loPI   C4A16942  11.056   7.274   8.212  0.0951 -0.0963 -0.1929
 1101loPI   C5A16943  10.941   7.410   8.578 -0.0585  0.0252  0.0919
 1101loPI   C6A16944  10.647   7.163   8.829  0.4293  0.0195 -0.2255
 1101loPI   C1B16945  10.722   7.740   6.952 -0.1934  0.0429 -0.0376
 1101loPI   C2B16946  10.693   7.725   7.383  0.0031  0.0132 -0.1675
 1101loPI   C3B16947  10.755   7.787   7.840 -0.4217 -0.0117  0.0925
 1101loPI   C4B16948  10.730   7.792   8.275 -0.0155  0.2865  0.0475
 1102loPI    C116949  11.775   7.319   6.002 -0.1258  0.0299 -0.0555
 1102loPI    C216950  11.410   7.372   5.846 -0.1393  0.0600 -0.0137
 1102loPI    C316951  11.625   7.050   5.745 -0.1136  0.1218 -0.1599
 1102loPI   PO416952  11.766   7.344   6.257  0.1423  0.0625 -0.0101
 1102loPI   GL116953  11.588   7.141   6.637 -0.2030 -0.1895 -0.2993
 1102loPI   GL216954  11.792   6.919   6.654  0.2493 -0.0560 -0.5115
 1102loPI   C1A16955  11.475   7.326   7.046  0.0418 -0.1478 -0.2393
 1102loPI   C2A16956  11.568   7.244   7.446 -0.0624  0.2803  0.1366
 1102loPI   C3A16957  11.594   7.445   7.848  0.0725  0.1832 -0.0512
 1102loPI   C4A16958  11.538   7.379   8.208  0.1216  0.0695 -0.0645
 1102loPI   C5A16959  11.507   7.135   8.651  0.1842  0.1690 -0.1211
 1102loPI   C6A16960  11.068   6.877   8.832 -0.2144 -0.1045 -0.0708
 1102loPI   C1B16961  11.778   6.892   7.127  0.1289 -0.2348 -0.0709
 1102loPI   C2B16962  11.859   6.837   7.598 -0.0358 -0.1429  0.2174
 1102loPI   C3B16963  11.806   7.022   7.975 -0.0464 -0.1870  0.0972
 1102loPI   C4B16964  11.877   6.929   8.349 -0.0862  0.0552  0.3188
 1103loPI    C116965  15.251  11.130   5.977 -0.2599  0.0073 -0.0214
 1103loPI    C216966  15.335  11.495   6.118 -0.0964  0.0420 -0.2051
 1103loPI    C316967  15.571  11.329   5.841 -0.2457 -0.1487 -0.2194
 1103loPI   PO416968  15.211  10.945   6.218  0.0191  0.0725 -0.1828
 1103loPI   GL116969  14.957  10.773   6.581  0.0200 -0.1161  0.1663
 1103loPI   GL216970  14.911  11.106   6.592  0.0464 -0.0135 -0.0570
 1103loPI   C1A16971  14.837  10.601   6.944  0.0065  0.2527  0.1283
 1103loPI   C2A16972  14.942  10.605   7.219 -0.0205 -0.1189 -0.2249
 1103loPI   C3A16973  14.874  10.597   7.560 -0.0313  0.1104 -0.1652
 1103loPI   C4A16974  14.804  10.574   7.986  0.0238 -0.2012  0.2675
 1103loPI   C5A16975  14.774  10.563   8.416 -0.0711  0.1169  0.1367
 1103loPI   C6A16976  14.940  10.467   8.842 -0.0584 -0.2341 -0.0640
 1103loPI   C1B16977  15.106  11.044   6.986 -0.0646  0.0297  0.1839
 1103loPI   C2B16978  15.185  11.017   7.416 -0.0192 -0.2730 -0.0023
 1103loPI   C3B16979  15.118  11.062   7.837  0.3847 -0.2177 -0.1005
 1103loPI   C4B16980  14.873  11.112   8.250 -0.0477 -0.2887  0.2133
 1104loPI    C116981  13.773   8.615   5.821  0.0340 -0.0277 -0.1092
 1104loPI    C216982  13.542   8.865   5.610  0.1367  0.1364 -0.0288
 1104loPI    C316983  13.587   8.486   5.491 -0.2017  0.0931 -0.0258
 1104loPI   PO416984  13.734   8.686   6.059  0.0231 -0.3904  0.2887
 1104loPI   GL116985  13.965   8.820   6.356 -0.2050 -0.3545  0.0338
 1104loPI   GL216986  14.108   9.170   6.232 -0.1377  0.0688 -0.0741
 1104loPI   C1A16987  13.747   8.798   6.758 -0.0561 -0.1418  0.1671
 1104loPI   C2A16988  13.848   8.774   7.175 -0.1921  0.0893 -0.1142
 1104loPI   C3A16989  13.799   8.707   7.611 -0.1918  0.2071  0.1447
 1104loPI   C4A16990  13.817   8.770   8.091  0.2627 -0.0503  0.3427
 1104loPI   C5A16991  13.757   8.578   8.403  0.1780  0.1409 -0.3476
 1104loPI   C6A16992  13.757   8.503   8.747 -0.0446  0.0879 -0.1178
 1104loPI   C1B16993  14.154   9.206   6.697  0.1585 -0.2167 -0.0279
 1104loPI   C2B16994  14.126   9.197   7.134  0.0512 -0.0998  0.0927
 1104loPI   C3B16995  14.040   9.171   7.550  0.1762 -0.1346  0.3572
 1104loPI   C4B16996  14.086   9.189   7.950  0.1257 -0.1151 -0.2690
 1105loPI    C116997  12.660   7.179   5.826  0.0999  0.0239 -0.0835
 1105loPI    C216998  12.817   7.383   5.520  0.0066  0.1359 -0.0574
 1105loPI    C316999  12.468   7.193   5.476  0.2077 -0.2206 -0.1548
 1105loPI   PO417000  12.911   6.954   5.884 -0.1774 -0.0419 -0.0925
 1105loPI   GL117001  13.193   6.731   6.276 -0.0280 -0.1011 -0.1796
 1105loPI   GL217002  13.597   6.670   6.155  0.1755  0.0773 -0.0133
 1105loPI   C1A17003  13.440   6.801   6.694  0.3223 -0.0200  0.0363
 1105loPI   C2A17004  13.488   6.804   7.114 -0.0366  0.0986 -0.0934
 1105loPI   C3A17005  13.475   6.806   7.567 -0.2071  0.2912 -0.1510
 1105loPI   C4A17006  13.374   6.805   7.987  0.2571  0.2222 -0.0247
 1105loPI   C5A17007  13.329   6.801   8.396 -0.2774  0.1178 -0.2148
 1105loPI   C6A17008  13.189   6.676   8.763  0.0142 -0.2913 -0.0404
 1105loPI   C1B17009  13.639   6.416   6.485 -0.0206 -0.0221  0.0778
 1105loPI   C2B17010  13.696   6.429   6.875  0.0192  0.1416  0.0890
 1105loPI   C3B17011  13.754   6.422   7.360  0.2004 -0.0384 -0.2932
 1105loPI   C4B17012  13.749   6.421   7.719  0.2983  0.2801 -0.1475
 1106loPI    C117013  14.629   1.806   6.247 -0.0319 -0.4556 -0.0555
 1106loPI    C217014  14.568   1.884   5.860 -0.1455  0.2024  0.0826
 1106loPI    C317015  14.940   1.881   6.007 -0.1194  0.2030  0.0171
 1106loPI   PO417016  14.405   1.893   6.337 -0.1031 -0.0769  0.1760
 1106loPI   GL117017  14.055   1.796   6.653 -0.1830 -0.1071 -0.1991
 1106loPI   GL217018  14.237   1.801   6.952 -0.0642  0.0287 -0.2348
 1106loPI   C1A17019  13.813   1.843   7.098 -0.2028 -0.1752 -0.0615
 1106loPI   C2A17020  13.780   1.927   7.468 -0.2218  0.3034 -0.1778
 1106loPI   C3A17021  13.877   1.907   7.865 -0.1296  0.0983  0.2645
 1106loPI   C4A17022  13.759   1.934   8.328 -0.0878 -0.1269  0.0980
 1106loPI   C5A17023  13.597   1.934   8.813  0.0853 -0.4469 -0.3751
 1106loPI   C6A17024  13.238   2.123   9.038 -0.2237 -0.1687 -0.0282
 1106loPI   C1B17025  14.288   1.906   7.340 -0.1092  0.1054 -0.0166
 1106loPI   C2B17026  14.330   1.901   7.731  0.1326  0.1831  0.0011
 1106loPI   C3B17027  14.221   1.818   8.161 -0.1672 -0.0289 -0.1425
 1106loPI   C4B17028  14.235   1.865   8.579  0.2186  0.0105 -0.0045
 1107loPI    C117029  16.429   7.558   5.797  0.2584 -0.1388 -0.2270
 1107loPI    C217030  16.220   7.250   5.944 -0.2424  0.2493 -0.0971
 1107loPI    C317031  16.411   7.214   5.594 -0.2329 -0.2261 -0.0492
 1107loPI   PO417032  16.545   7.635   6.058  0.3247  0.1378 -0.1581
 1107loPI   GL117033  17.007   7.804   6.292 -0.1404  0.1631 -0.1691
 1107loPI   GL217034  16.950   7.515   6.409  0.1164 -0.2099  0.1855
 1107loPI   C1A17035  17.008   8.002   6.763  0.1619  0.0721 -0.2549
 1107loPI   C2A17036  17.056   7.962   7.295 -0.0780  0.0856  0.3007
 1107loPI   C3A17037  16.915   8.009   7.822  0.0384 -0.1146  0.0802
 1107loPI   C4A17038  16.880   7.977   8.227 -0.0349 -0.3695  0.1395
 1107loPI   C5A17039  17.041   7.917   8.593  0.2299 -0.3586  0.4343
 1107loPI   C6A17040  17.282   8.115   8.916 -0.4785 -0.1201  0.2277
 1107loPI   C1B17041  16.791   7.549   6.781 -0.1005  0.2681 -0.0658
 1107loPI   C2B17042  16.774   7.509   7.244 -0.0301  0.4041  0.2778
 1107loPI   C3B17043  16.744   7.580   7.673  0.4397 -0.2210 -0.0686
 1107loPI   C4B17044  16.735   7.401   8.114 -0.2463  0.0840  0.0232
 1108loPI    C117045  14.701   7.308   5.685 -0.1276 -0.0737 -0.0626
 1108loPI    C217046  15.038   7.311   5.469  0.0644  0.0208  0.2318
 1108loPI    C317047  14.710   7.495   5.332  0.1005 -0.1568 -0.1027
 1108loPI   PO417048  14.880   7.371   5.938  0.2532  0.0897  0.2025
 1108loPI   GL117049  14.875   7.446   6.376 -0.1287  0.1059  0.1903
 1108loPI   GL217050  15.041   7.764   6.281 -0.0402 -0.1858  0.1699
 1108loPI   C1A17051  14.736   7.446   6.775  0.4326  0.1266 -0.0986
 1108loPI   C2A17052  14.709   7.408   7.137  0.0851 -0.0136 -0.0899
 1108loPI   C3A17053  14.658   7.412   7.553 -0.0075  0.1026  0.2335
 1108loPI   C4A17054  14.692   7.386   8.062 -0.2134 -0.3525  0.1436
 1108loPI   C5A17055  14.783   7.595   8.450 -0.0212  0.1241 -0.3030
 1108loPI   C6A17056  14.599   7.942   8.528 -0.4497 -0.0024 -0.0952
 1108loPI   C1B17057  14.916   7.875   6.684 -0.2740 -0.0873 -0.0604
 1108loPI   C2B17058  14.848   7.910   7.114 -0.2364 -0.2213  0.2523
 1108loPI   C3B17059  14.900   7.838   7.544 -0.0705  0.1623  0.0245
 1108loPI   C4B17060  14.939   7.916   7.948  0.0922  0.1168 -0.2587
 1109loPI    C117061  12.731   2.758   5.881 -0.1015 -0.2581  0.0116
 1109loPI    C217062  12.842   3.141   5.851 -0.4638 -0.1453  0.0513
 1109loPI    C317063  12.937   2.882   5.561 -0.0400 -0.0758  0.1202
 1109loPI   PO417064  12.592   2.713   6.077 -0.1458  0.1318  0.1769
 1109loPI   GL117065  12.590   2.973   6.463  0.2281  0.4351 -0.3192
 1109loPI   GL217066  12.377   2.753   6.498  0.0561 -0.1119  0.0154
 1109loPI   C1A17067  12.485   3.060   6.906  0.1904 -0.2540 -0.3158
 1109loPI   C2A17068  12.541   3.109   7.332 -0.0683  0.0700  0.0520
 1109loPI   C3A17069  12.499   3.201   7.776  0.0072  0.0489 -0.0232
 1109loPI   C4A17070  12.500   3.222   8.260  0.0314 -0.2068  0.0757
 1109loPI   C5A17071  12.726   3.266   8.553  0.0618 -0.3983  0.3251
 1109loPI   C6A17072  12.971   3.547   8.733 -0.3980  0.2333  0.0178
 1109loPI   C1B17073  12.205   2.663   6.895  0.1221 -0.1520  0.1682
 1109loPI   C2B17074  12.300   2.682   7.240  0.1757 -0.1449 -0.2482
 1109loPI   C3B17075  12.233   2.709   7.748 -0.0482 -0.1014  0.1923
 1109loPI   C4B17076  12.329   2.755   8.159 -0.0555  0.0055  0.3022
 1110loPI    C117077  12.208  15.560   5.817 -0.1641 -0.0646  0.1594
 1110loPI    C217078  11.904  15.492   5.566  0.0238  0.0931 -0.1168
 1110loPI    C317079  12.239  15.276   5.537  0.0136  0.0528  0.0577
 1110loPI   PO417080  12.104  15.681   6.016  0.0069 -0.1843 -0.0526
 1110loPI   GL117081  12.279  15.811   6.346 -0.1140 -0.0092  0.1540
 1110loPI   GL217082  12.452  15.575   6.330  0.1381  0.2097  0.1779
 1110loPI   C1A17083  12.006  15.837   6.699  0.1051  0.0224 -0.1902
 1110loPI   C2A17084  12.063  16.000   7.148  0.1836 -0.0909 -0.1740
 1110loPI   C3A17085  12.115  16.122   7.548 -0.2742 -0.0349  0.1479
 1110loPI   C4A17086  12.134  16.088   7.904 -0.1722 -0.0127 -0.2203
 1110loPI   C5A17087  12.044  16.080   8.365  0.2552 -0.0109  0.0441
 1110loPI   C6A17088  12.064  16.125   8.764 -0.2560  0.0253 -0.0425
 1110loPI   C1B17089  12.304  15.445   6.701 -0.0029 -0.2510  0.1058
 1110loPI   C2B17090  12.280  15.568   7.139  0.3109 -0.1274  0.0525
 1110loPI   C3B17091  12.398  15.679   7.494 -0.0773 -0.0423 -0.3737
 1110loPI   C4B17092  12.316  15.621   7.868  0.0965 -0.1746  0.0331
 1111loPI    C117093   7.133  15.456   6.043 -0.1752 -0.2550 -0.1922
 1111loPI    C217094   7.281  15.644   5.722  0.0121  0.0060  0.0421
 1111loPI    C317095   6.886  15.629   5.780 -0.0143  0.1231 -0.1020
 1111loPI   PO417096   7.315  15.487   6.217 -0.1112 -0.1042  0.1901
 1111loPI   GL117097   7.507  15.759   6.568  0.2634 -0.1942  0.1258
 1111loPI   GL217098   7.613  16.074   6.453  0.0659  0.0191 -0.1432
 1111loPI   C1A17099   7.499  15.908   7.006 -0.2079  0.0381  0.2387
 1111loPI   C2A17100   7.390  16.018   7.466  0.0374 -0.0118 -0.1227
 1111loPI   C3A17101   7.427  16.043   7.897 -0.2878 -0.0495  0.0425
 1111loPI   C4A17102   7.443  15.902   8.362  0.0721  0.1014  0.1014
 1111loPI   C5A17103   7.599  15.638   8.696  0.0047  0.2626  0.0015
 1111loPI   C6A17104   7.880  15.275   8.708 -0.1340  0.1018 -0.1784
 1111loPI   C1B17105   7.703  16.321   6.834  0.0575 -0.1475  0.1021
 1111loPI   C2B17106   7.643  16.427   7.219  0.0474 -0.0462 -0.0618
 1111loPI   C3B17107   7.637  16.465   7.734  0.1398  0.2681 -0.0521
 1111loPI   C4B17108   7.681  16.492   8.143 -0.0236  0.3925 -0.1132
 1112loPI    C117109   6.497   5.139   5.559 -0.3058  0.0799  0.1941
 1112loPI    C217110   6.266   5.395   5.357 -0.0273  0.0531 -0.1677
 1112loPI    C317111   6.658   5.467   5.397 -0.0398 -0.0537  0.1821
 1112loPI   PO417112   6.402   5.082   5.804 -0.2854 -0.0085  0.1006
 1112loPI   GL117113   6.549   4.938   6.216 -0.1476 -0.0262 -0.1270
 1112loPI   GL217114   6.342   5.204   6.275 -0.0863  0.0175  0.1301
 1112loPI   C1A17115   6.696   4.904   6.527  0.0681 -0.5479 -0.0968
 1112loPI   C2A17116   6.770   4.949   6.938  0.1185 -0.2137  0.1152
 1112loPI   C3A17117   6.835   4.945   7.349 -0.1445 -0.0074 -0.1123
 1112loPI   C4A17118   6.715   4.979   7.800  0.1686 -0.3463  0.2336
 1112loPI   C5A17119   6.722   4.939   8.182 -0.1750  0.0374 -0.2092
 1112loPI   C6A17120   6.718   5.160   8.592  0.0930 -0.2150 -0.2259
 1112loPI   C1B17121   6.194   4.898   6.616  0.2497 -0.3658  0.0471
 1112loPI   C2B17122   6.233   4.904   7.022 -0.2311  0.0122  0.0571
 1112loPI   C3B17123   6.206   4.916   7.469 -0.4041  0.2849  0.2301
 1112loPI   C4B17124   6.251   4.861   7.905 -0.0812 -0.0974  0.3818
 1113loPI    C117125   4.534   7.800   5.821 -0.1419 -0.1598 -0.0210
 1113loPI    C217126   4.403   7.484   5.612  0.0055  0.0596 -0.4580
 1113loPI    C317127   4.787   7.593   5.590  0.0566  0.0056  0.0457
 1113loPI   PO417128   4.445   7.755   6.104  0.2807 -0.1730 -0.0144
 1113loPI   GL117129   4.741   7.742   6.409  0.0203  0.1898 -0.0096
 1113loPI   GL217130   4.937   7.409   6.448  0.2356 -0.1455 -0.0217
 1113loPI   C1A17131   4.712   7.891   6.804  0.0999  0.1203 -0.0164
 1113loPI   C2A17132   4.865   8.034   7.185  0.5345 -0.0389  0.4689
 1113loPI   C3A17133   4.747   7.997   7.626  0.0348  0.0546 -0.1386
 1113loPI   C4A17134   4.747   7.982   8.035  0.2085  0.1939  0.3005
 1113loPI   C5A17135   4.737   7.918   8.511 -0.1531  0.2039 -0.0656
 1113loPI   C6A17136   4.505   7.650   8.703 -0.0056 -0.2159 -0.1634
 1113loPI   C1B17137   4.997   7.510   6.781  0.2397  0.0696 -0.0161
 1113loPI   C2B17138   5.106   7.499   7.249 -0.2111  0.1537 -0.0596
 1113loPI   C3B17139   5.011   7.590   7.650  0.0670 -0.0871  0.1656
 1113loPI   C4B17140   5.005   7.537   8.037  0.3534 -0.0495 -0.4011
 1114loPI    C117141  11.650   1.730   5.947 -0.0477 -0.2288 -0.0287
 1114loPI    C217142  11.378   1.470   5.810 -0.1389 -0.0531 -0.1851
 1114loPI    C317143  11.556   1.725   5.558  0.1796 -0.1729 -0.0859
 1114loPI   PO417144  11.659   1.643   6.198 -0.0668  0.0890  0.1595
 1114loPI   GL117145  11.591   1.464   6.524 -0.2430 -0.1530  0.0850
 1114loPI   GL217146  11.873   1.672   6.608  0.0475  0.0690 -0.2014
 1114loPI   C1A17147  11.583   1.315   6.902  0.0682 -0.0549  0.3941
 1114loPI   C2A17148  11.513   1.296   7.284  0.1148  0.2779 -0.1256
 1114loPI   C3A17149  11.457   1.397   7.702 -0.0943 -0.3634 -0.0211
 1114loPI   C4A17150  11.379   1.351   8.201  0.0041 -0.1080  0.1498
 1114loPI   C5A17151  11.655   1.084   8.443  0.0660  0.1175  0.0707
 1114loPI   C6A17152  11.985   1.039   8.825  0.1171  0.1613 -0.0700
 1114loPI   C1B17153  11.769   1.758   6.976 -0.3003  0.1758 -0.0131
 1114loPI   C2B17154  11.708   1.777   7.288  0.0515 -0.1331 -0.2111
 1114loPI   C3B17155  11.735   1.810   7.650  0.1993 -0.1363 -0.2016
 1114loPI   C4B17156  11.706   1.879   8.098  0.0111 -0.1402 -0.1476
 1115loPI    C117157   5.446   7.230   5.948  0.2876 -0.1528 -0.1119
 1115loPI    C217158   5.136   7.002   6.056 -0.0015  0.2915  0.0229
 1115loPI    C317159   5.143   7.172   5.694  0.0249  0.3792  0.0642
 1115loPI   PO417160   5.474   7.383   6.207 -0.1371  0.0574 -0.1806
 1115loPI   GL117161   5.332   7.094   6.487 -0.0852  0.0206  0.0198
 1115loPI   GL217162   5.360   6.771   6.537 -0.0651  0.0338  0.1248
 1115loPI   C1A17163   5.321   7.106   6.976 -0.0234 -0.1501  0.0071
 1115loPI   C2A17164   5.387   7.098   7.381  0.4330 -0.2432 -0.2414
 1115loPI   C3A17165   5.380   7.211   7.827  0.1383 -0.0202 -0.2752
 1115loPI   C4A17166   5.348   7.236   8.246 -0.1108 -0.3552 -0.0000
 1115loPI   C5A17167   4.970   7.421   8.571 -0.0609 -0.0434  0.2839
 1115loPI   C6A17168   4.971   7.653   9.043  0.0349  0.0048  0.3211
 1115loPI   C1B17169   5.136   6.682   6.852  0.3191  0.0399 -0.0437
 1115loPI   C2B17170   5.094   6.667   7.279 -0.0611 -0.0297  0.0467
 1115loPI   C3B17171   5.158   6.720   7.650  0.1170  0.1073 -0.0448
 1115loPI   C4B17172   5.069   6.656   8.052  0.1321 -0.3332 -0.1271
 1116loPI    C117173  16.692   1.271   6.134  0.1658  0.0405 -0.0441
 1116loPI    C217174  16.456   1.224   5.814 -0.0690  0.3864  0.0719
 1116loPI    C317175  16.849   1.155   5.785 -0.1714 -0.1629 -0.1333
 1116loPI   PO417176  16.525   1.358   6.291 -0.0651 -0.0807  0.0734
 1116loPI   GL117177  16.440   1.364   6.604 -0.1783 -0.0115  0.0436
 1116loPI   GL217178  16.293   1.591   6.804  0.1892 -0.1050  0.2270
 1116loPI   C1A17179  16.431   1.092   6.951  0.0138 -0.1121 -0.1713
 1116loPI   C2A17180  16.400   1.065   7.399  0.2092  0.0104  0.1131
 1116loPI   C3A17181  16.456   1.080   7.803  0.0192 -0.0468 -0.2199
 1116loPI   C4A17182  16.482   1.026   8.250 -0.0825 -0.1527 -0.1164
 1116loPI   C5A17183  16.665   1.051   8.716 -0.0483  0.1810  0.1033
 1116loPI   C6A17184  16.944   1.158   9.011  0.1489  0.2315 -0.0082
 1116loPI   C1B17185  16.177   1.456   7.188 -0.2155  0.1034 -0.1646
 1116loPI   C2B17186  16.120   1.483   7.606  0.1013  0.3398 -0.1374
 1116loPI   C3B17187  16.201   1.506   8.024  0.0234 -0.1882  0.0300
 1116loPI   C4B17188  16.284   1.529   8.455 -0.0232  0.2150 -0.1933
 1117loPI    C117189   0.694  13.575   5.989  0.0641 -0.0394 -0.2192
 1117loPI    C217190   0.349  13.477   5.812  0.0984 -0.2599 -0.1673
 1117loPI    C317191   0.689  13.476   5.602  0.0893 -0.1859 -0.1827
 1117loPI   PO417192   0.563  13.561   6.238 -0.1669 -0.1078 -0.1457
 1117loPI   GL117193   0.452  13.369   6.645  0.0749 -0.1437  0.1856
 1117loPI   GL217194   0.617  13.092   6.694 -0.3061  0.0664  0.3024
 1117loPI   C1A17195   0.464  13.512   7.021  0.1052  0.0347 -0.0064
 1117loPI   C2A17196   0.445  13.486   7.322  0.0391 -0.1046 -0.1140
 1117loPI   C3A17197   0.549  13.438   7.764  0.2467  0.0209  0.0096
 1117loPI   C4A17198   0.508  13.412   8.244  0.1863 -0.3640 -0.0853
 1117loPI   C5A17199   0.578  13.577   8.580 -0.1347 -0.0595 -0.1705
 1117loPI   C6A17200   0.643  13.965   8.774 -0.2077  0.2924  0.1175
 1117loPI   C1B17201   0.712  13.084   7.103  0.0550 -0.2066  0.1436
 1117loPI   C2B17202   0.823  13.054   7.514 -0.1059  0.3773  0.0824
 1117loPI   C3B17203   0.760  13.005   8.002  0.3131  0.0016 -0.4969
 1117loPI   C4B17204   0.726  13.026   8.469  0.0114  0.0451 -0.2390
 1118loPI    C117205   7.045   4.703   5.389 -0.0017 -0.1080  0.1532
 1118loPI    C217206   6.653   4.634   5.354 -0.0399  0.1756 -0.0100
 1118loPI    C317207   6.914   4.423   5.136 -0.0986 -0.0231  0.1092
 1118loPI   PO417208   6.929   4.702   5.789 -0.0943 -0.1934 -0.3270
 1118loPI   GL117209   7.166   4.717   6.183  0.1520 -0.0182  0.1462
 1118loPI   GL217210   7.322   4.914   6.352 -0.0726  0.0397  0.1156
 1118loPI   C1A17211   7.037   4.459   6.502  0.0565  0.0666  0.0881
 1118loPI   C2A17212   7.022   4.480   6.943  0.0144 -0.4640 -0.4390
 1118loPI   C3A17213   7.015   4.429   7.412  0.2934 -0.0337  0.0954
 1118loPI   C4A17214   7.005   4.521   7.898  0.0003 -0.1866  0.1480
 1118loPI   C5A17215   7.221   4.691   8.409 -0.1186  0.0030  0.0361
 1118loPI   C6A17216   7.094   4.822   8.813 -0.3522  0.0250 -0.2368
 1118loPI   C1B17217   7.251   4.962   6.770 -0.2406  0.0794 -0.2098
 1118loPI   C2B17218   7.261   5.020   7.088 -0.0936 -0.0487 -0.4419
 1118loPI   C3B17219   7.273   4.882   7.501 -0.1466 -0.1611 -0.0129
 1118loPI   C4B17220   7.231   4.963   7.939  0.1342 -0.2915  0.1520
 1119loPI    C117221  11.459  10.850   6.007 -0.3196 -0.1102  0.1225
 1119loPI    C217222  11.488  11.038   5.656  0.1076  0.1355  0.2823
 1119loPI    C317223  11.375  10.655   5.668  0.1113  0.1165 -0.1235
 1119loPI   PO417224  11.340  11.109   6.192  0.0408  0.0968 -0.3315
 1119loPI   GL117225  11.154  10.979   6.589 -0.1281  0.0310  0.1673
 1119loPI   GL217226  11.591  10.860   6.529 -0.0727  0.2705 -0.1142
 1119loPI   C1A17227  11.001  10.948   7.039 -0.0169  0.0822 -0.0736
 1119loPI   C2A17228  10.993  11.003   7.442 -0.0436  0.0700 -0.2624
 1119loPI   C3A17229  10.898  10.930   7.826  0.3253  0.1832  0.0752
 1119loPI   C4A17230  10.782  11.001   8.190 -0.2126 -0.0209 -0.0007
 1119loPI   C5A17231  10.792  10.905   8.594  0.2852 -0.0231  0.1209
 1119loPI   C6A17232  10.850  11.129   8.952  0.0035 -0.1481  0.0455
 1119loPI   C1B17233  11.476  10.929   6.975 -0.0096 -0.2107  0.3124
 1119loPI   C2B17234  11.489  11.029   7.382  0.3318  0.0358 -0.1254
 1119loPI   C3B17235  11.416  10.984   7.860  0.0723  0.1420  0.2376
 1119loPI   C4B17236  11.251  10.996   8.250 -0.1020  0.2269  0.0347
 1120loPI    C117237  13.563  14.403   6.147 -0.1357  0.0801  0.2217
 1120loPI    C217238  13.214  14.514   5.987 -0.1885 -0.3311  0.0405
 1120loPI    C317239  13.469  14.289   5.775  0.1710 -0.0695  0.1867
 1120loPI   PO417240  13.707  14.673   6.200 -0.0891 -0.0995 -0.0902
 1120loPI   GL117241  13.721  14.918   6.522 -0.0298  0.2393 -0.1289
 1120loPI   GL217242  13.888  14.707   6.748 -0.2686  0.2534 -0.0514
 1120loPI   C1A17243  13.630  15.156   6.890 -0.3611  0.0278 -0.2364
 1120loPI   C2A17244  13.549  15.156   7.383  0.1342 -0.0621 -0.0868
 1120loPI   C3A17245  13.677  15.204   7.748  0.0162 -0.0918  0.0656
 1120loPI   C4A17246  13.716  15.146   8.046 -0.2273  0.0997  0.3169
 1120loPI   C5A17247  13.835  15.250   8.412  0.1175 -0.1132  0.0424
 1120loPI   C6A17248  13.769  15.086   8.791 -0.1090  0.0182  0.0282
 1120loPI   C1B17249  13.839  14.733   7.159  0.0945  0.0131 -0.3364
 1120loPI   C2B17250  13.856  14.727   7.589  0.0722  0.0148  0.0939
 1120loPI   C3B17251  14.023  14.690   7.923 -0.1750  0.0922 -0.0957
 1120loPI   C4B17252  13.831  14.753   8.376  0.1007  0.1181 -0.2308
 1121loPI    C117253  11.168   4.610   5.947 -0.0638 -0.2481 -0.0959
 1121loPI    C217254  11.421   4.377   6.152  0.2904  0.1877 -0.0225
 1121loPI    C317255  11.444   4.395   5.753  0.0649 -0.1233 -0.0530
 1121loPI   PO417256  10.921   4.529   6.069  0.1271 -0.1237  0.2369
 1121loPI   GL117257  10.963   4.271   6.415  0.2608  0.0315  0.1046
 1121loPI   GL217258  10.802   3.923   6.383  0.0733 -0.1457  0.0504
 1121loPI   C1A17259  10.961   4.065   6.908 -0.0028 -0.1524  0.2933
 1121loPI   C2A17260  10.971   4.022   7.350  0.1444  0.0319  0.1487
 1121loPI   C3A17261  10.936   4.114   7.728 -0.0387 -0.0367  0.0495
 1121loPI   C4A17262  10.943   3.971   8.099  0.0700 -0.0977  0.1778
 1121loPI   C5A17263  10.914   3.947   8.492  0.1819  0.2187  0.1366
 1121loPI   C6A17264  10.668   4.120   8.763 -0.0417  0.1585 -0.0065
 1121loPI   C1B17265  10.619   3.670   6.759 -0.1578 -0.2072  0.0728
 1121loPI   C2B17266  10.752   3.569   7.134  0.2662  0.1248 -0.1239
 1121loPI   C3B17267  10.743   3.660   7.583 -0.0784  0.0434 -0.0000
 1121loPI   C4B17268  10.642   3.516   8.060  0.2334  0.0307 -0.0963
 1122loPI    C117269  10.523   1.520   5.682  0.0332  0.1707  0.1463
 1122loPI    C217270  10.228   1.680   5.464 -0.0533 -0.1068  0.0552
 1122loPI    C317271  10.580   1.596   5.294 -0.0387 -0.0976  0.0809
 1122loPI   PO417272  10.333   1.485   5.904  0.0790  0.1056 -0.0149
 1122loPI   GL117273  10.554   1.661   6.259  0.1557 -0.2088  0.3051
 1122loPI   GL217274  10.679   1.409   6.296 -0.1929 -0.2113 -0.0726
 1122loPI   C1A17275  10.687   1.759   6.688 -0.0468 -0.0558  0.3785
 1122loPI   C2A17276  10.750   1.739   7.138 -0.2651 -0.3316 -0.0065
 1122loPI   C3A17277  10.642   1.820   7.544 -0.0395  0.0572 -0.2156
 1122loPI   C4A17278  10.572   1.727   7.936  0.1383  0.3961  0.2472
 1122loPI   C5A17279  10.267   1.834   8.208 -0.0532  0.1268  0.1568
 1122loPI   C6A17280  10.123   2.080   8.545 -0.1473 -0.0114 -0.1075
 1122loPI   C1B17281  10.945   1.257   6.615  0.0843 -0.1393 -0.1914
 1122loPI   C2B17282  10.964   1.295   7.019  0.3831  0.1716 -0.0221
 1122loPI   C3B17283  10.927   1.360   7.499 -0.0572  0.2569  0.1156
 1122loPI   C4B17284  10.858   1.337   7.928 -0.1910 -0.4148  0.1781
 1123loPI    C117285  10.508  13.743   5.993  0.1475  0.1510 -0.0662
 1123loPI    C217286  10.480  13.672   5.600  0.3180  0.0251 -0.0570
 1123loPI    C317287  10.152  13.765   5.811  0.1795 -0.1844 -0.1762
 1123loPI   PO417288  10.655  13.606   6.061  0.1959 -0.0110  0.1334
 1123loPI   GL117289  10.649  13.432   6.423  0.1916  0.2992  0.2088
 1123loPI   GL217290  10.894  13.591   6.490 -0.2131 -0.1793  0.0570
 1123loPI   C1A17291  10.559  13.121   6.755  0.0578  0.0258 -0.2060
 1123loPI   C2A17292  10.525  13.259   7.127  0.0052  0.2940 -0.1738
 1123loPI   C3A17293  10.572  13.165   7.549 -0.2358 -0.0657  0.1336
 1123loPI   C4A17294  10.491  13.256   8.056 -0.0881  0.0281 -0.2414
 1123loPI   C5A17295  10.603  13.215   8.538 -0.0858  0.0893 -0.2847
 1123loPI   C6A17296  10.620  12.905   8.832  0.2095 -0.0311 -0.1184
 1123loPI   C1B17297  10.774  13.665   6.957  0.0778  0.1115  0.0096
 1123loPI   C2B17298  10.789  13.666   7.462 -0.4892 -0.2257  0.1896
 1123loPI   C3B17299  10.777  13.650   7.892 -0.3592 -0.0934 -0.1137
 1123loPI   C4B17300  10.745  13.721   8.322 -0.0718 -0.4260  0.0048
 1124loPI    C117301   2.976  11.843   5.639 -0.0407  0.0185 -0.2824
 1124loPI    C217302   2.700  12.118   5.549  0.1777  0.3564  0.0495
 1124loPI    C317303   2.951  11.986   5.266 -0.3868 -0.0442 -0.2870
 1124loPI   PO417304   3.068  11.898   5.885 -0.2306 -0.1511 -0.2401
 1124loPI   GL117305   3.294  11.738   6.295  0.0435 -0.3105  0.1413
 1124loPI   GL217306   3.173  11.831   6.484 -0.2988  0.2803 -0.3142
 1124loPI   C1A17307   3.483  11.600   6.722 -0.2738  0.2702  0.0960
 1124loPI   C2A17308   3.443  11.536   7.118 -0.0197  0.1298 -0.0224
 1124loPI   C3A17309   3.505  11.507   7.545  0.1797  0.0941 -0.1900
 1124loPI   C4A17310   3.383  11.412   7.975 -0.0408 -0.0671 -0.3196
 1124loPI   C5A17311   3.598  11.388   8.361 -0.1230 -0.2015  0.0466
 1124loPI   C6A17312   4.033  11.356   8.457  0.0257  0.2006  0.0647
 1124loPI   C1B17313   3.150  11.922   6.917 -0.0020  0.2233 -0.3150
 1124loPI   C2B17314   3.277  11.922   7.368  0.1282 -0.0183 -0.3469
 1124loPI   C3B17315   3.180  11.905   7.850 -0.1309 -0.0823 -0.1511
 1124loPI   C4B17316   3.037  11.824   8.189 -0.1082 -0.3549 -0.1756
 1125loPI    C117317   6.539  14.677   6.099  0.1917  0.1371  0.1157
 1125loPI    C217318   6.456  14.539   5.733  0.3182 -0.0644  0.1613
 1125loPI    C317319   6.423  14.930   5.812 -0.0042 -0.0599  0.0181
 1125loPI   PO417320   6.816  14.582   6.127 -0.3813  0.0800 -0.1276
 1125loPI   GL117321   6.861  14.295   6.416  0.2122  0.1541  0.2265
 1125loPI   GL217322   6.601  14.349   6.533 -0.1740 -0.3449  0.1450
 1125loPI   C1A17323   7.008  14.216   6.832  0.1024 -0.0483 -0.2206
 1125loPI   C2A17324   6.905  14.333   7.302 -0.0376  0.1771  0.2372
 1125loPI   C3A17325   6.964  14.246   7.801 -0.1170 -0.2978 -0.1553
 1125loPI   C4A17326   6.925  14.204   8.241  0.0997  0.0779 -0.1182
 1125loPI   C5A17327   7.105  14.193   8.668  0.1569 -0.1026  0.0657
 1125loPI   C6A17328   7.496  14.199   8.901  0.3520  0.1453 -0.4224
 1125loPI   C1B17329   6.634  14.537   6.907  0.2860  0.0356 -0.1304
 1125loPI   C2B17330   6.622  14.712   7.333 -0.0099 -0.0249 -0.0306
 1125loPI   C3B17331   6.594  14.720   7.822 -0.0652 -0.0437 -0.2599
 1125loPI   C4B17332   6.776  14.702   8.199  0.0947 -0.1227 -0.0212
 1126loPI    C117333   3.891   1.624   5.619 -0.1822  0.0569 -0.2006
 1126loPI    C217334   3.606   1.901   5.578 -0.2860 -0.0424 -0.1565
 1126loPI    C317335   3.936   1.917   5.351 -0.2388  0.1816 -0.0745
 1126loPI   PO417336   3.799   1.552   5.948 -0.1379  0.0681  0.0751
 1126loPI   GL117337   3.815   1.603   6.292 -0.0522 -0.0068  0.0615
 1126loPI   GL217338   3.735   1.335   6.603 -0.0867  0.0137  0.2987
 1126loPI   C1A17339   3.997   1.707   6.646  0.0669 -0.0747 -0.3251
 1126loPI   C2A17340   3.975   1.638   7.049  0.1034 -0.1446  0.0629
 1126loPI   C3A17341   3.957   1.640   7.490  0.0411 -0.0952  0.1130
 1126loPI   C4A17342   3.941   1.653   7.922 -0.0905  0.1184  0.0387
 1126loPI   C5A17343   3.972   1.667   8.408 -0.2521  0.0373 -0.1658
 1126loPI   C6A17344   3.729   1.549   8.736 -0.0837 -0.1310  0.0687
 1126loPI   C1B17345   3.672   1.241   7.037  0.3066 -0.2381  0.0998
 1126loPI   C2B17346   3.684   1.162   7.505 -0.0558 -0.0601  0.0830
 1126loPI   C3B17347   3.644   1.196   7.977 -0.1814 -0.2379 -0.1318
 1126loPI   C4B17348   3.641   1.164   8.441 -0.0551 -0.2436  0.4072
 1127loPI    C117349   6.467  10.990   5.850 -0.1224  0.0984 -0.1569
 1127loPI    C217350   6.753  10.985   5.571  0.0412  0.1925  0.0066
 1127loPI    C317351   6.381  10.869   5.479  0.2035 -0.2413 -0.1271
 1127loPI   PO417352   6.570  10.778   6.070 -0.1381  0.0226  0.1355
 1127loPI   GL117353   6.692  10.767   6.412 -0.1253 -0.1197  0.2360
 1127loPI   GL217354   6.358  10.633   6.664  0.1307 -0.2125 -0.1152
 1127loPI   C1A17355   6.818  10.762   6.824 -0.2180 -0.1060 -0.0594
 1127loPI   C2A17356   6.721  10.710   7.264 -0.1256  0.1425  0.1192
 1127loPI   C3A17357   6.697  10.746   7.759  0.1066  0.1017  0.1222
 1127loPI   C4A17358   6.696  10.808   8.222 -0.0130  0.0957 -0.0915
 1127loPI   C5A17359   7.054  10.785   8.523 -0.0376 -0.2446 -0.0546
 1127loPI   C6A17360   7.463  10.857   8.679 -0.1653 -0.0480 -0.0086
 1127loPI   C1B17361   6.186  10.674   7.199  0.0541  0.0194  0.0077
 1127loPI   C2B17362   6.147  10.705   7.597  0.1373 -0.3120 -0.1473
 1127loPI   C3B17363   6.270  10.709   8.019 -0.1142 -0.1385 -0.2800
 1127loPI   C4B17364   6.240  10.678   8.449  0.1243 -0.0256 -0.0367
 1128loPI    C117365   1.515   8.634   6.007  0.1203  0.2375 -0.0311
 1128loPI    C217366   1.141   8.564   6.131  0.1096  0.2999 -0.0278
 1128loPI    C317367   1.205   8.744   5.779  0.1352  0.3420 -0.0016
 1128loPI   PO417368   1.698   8.509   6.231  0.0258  0.1092  0.1620
 1128loPI   GL117369   1.531   8.426   6.528  0.3215  0.3374  0.1356
 1128loPI   GL217370   1.291   8.186   6.522  0.0369 -0.3047 -0.1544
 1128loPI   C1A17371   1.402   8.404   6.942  0.0670 -0.0006 -0.2428
 1128loPI   C2A17372   1.292   8.305   7.359  0.0888 -0.0020  0.2913
 1128loPI   C3A17373   1.327   8.368   7.813 -0.1771 -0.1578 -0.1472
 1128loPI   C4A17374   1.248   8.404   8.232  0.1335  0.1294 -0.2198
 1128loPI   C5A17375   1.129   8.117   8.559  0.3197 -0.2448 -0.3049
 1128loPI   C6A17376   1.004   7.740   8.648 -0.0741  0.0529 -0.4574
 1128loPI   C1B17377   1.150   7.986   6.892 -0.2473  0.0063  0.0544
 1128loPI   C2B17378   1.178   7.849   7.314  0.0872  0.1847  0.0390
 1128loPI   C3B17379   1.082   7.926   7.717 -0.0783  0.3003 -0.0702
 1128loPI   C4B17380   0.951   7.988   8.110 -0.3579  0.3164  0.0312
 1129loPI    C117381   7.205   5.373   5.879 -0.1260 -0.1343 -0.0629
 1129loPI    C217382   6.916   5.127   6.004 -0.3048 -0.0233 -0.2527
 1129loPI    C317383   6.993   5.163   5.613 -0.1661  0.0952 -0.2152
 1129loPI   PO417384   7.186   5.598   5.982  0.0763  0.0965 -0.1344
 1129loPI   GL117385   6.820   5.479   6.309  0.0893  0.0386  0.2805
 1129loPI   GL217386   7.062   5.309   6.489  0.1806  0.2147 -0.2066
 1129loPI   C1A17387   6.524   5.383   6.692 -0.1965  0.0082  0.3028
 1129loPI   C2A17388   6.529   5.343   7.081  0.0302 -0.1648 -0.0376
 1129loPI   C3A17389   6.482   5.334   7.574 -0.1015 -0.0393 -0.0604
 1129loPI   C4A17390   6.445   5.330   8.043 -0.2107 -0.0858  0.0156
 1129loPI   C5A17391   6.250   5.359   8.441 -0.0444  0.0603  0.0328
 1129loPI   C6A17392   6.275   5.623   8.757  0.0775  0.0504  0.0243
 1129loPI   C1B17393   6.981   5.382   6.905  0.3234  0.1603  0.2187
 1129loPI   C2B17394   6.932   5.411   7.383 -0.2383 -0.2957  0.0658
 1129loPI   C3B17395   6.924   5.486   7.839  0.0735 -0.2391  0.1772
 1129loPI   C4B17396   6.990   5.365   8.256 -0.2526  0.4056  0.0651
 1130loPI    C117397   5.881  14.661   5.905  0.1378  0.0010  0.0191
 1130loPI    C217398   5.948  14.504   5.543  0.1644  0.0994 -0.0191
 1130loPI    C317399   5.746  14.847   5.577 -0.2008 -0.1211  0.0854
 1130loPI   PO417400   6.066  14.602   6.099 -0.2064 -0.1053 -0.0972
 1130loPI   GL117401   6.246  14.700   6.578  0.0197 -0.1060  0.1273
 1130loPI   GL217402   5.914  14.544   6.569 -0.1171  0.0831 -0.1958
 1130loPI   C1A17403   6.128  14.648   7.023  0.1887  0.0611 -0.0041
 1130loPI   C2A17404   6.102  14.751   7.493 -0.1503  0.0875  0.1055
 1130loPI   C3A17405   6.109  14.733   7.896 -0.0332  0.2146  0.0639
 1130loPI   C4A17406   6.281  14.690   8.277  0.0953  0.1264 -0.4425
 1130loPI   C5A17407   6.249  14.741   8.619 -0.2208  0.2130 -0.4629
 1130loPI   C6A17408   6.078  14.677   9.007  0.0203  0.1719  0.0605
 1130loPI   C1B17409   5.616  14.583   6.952 -0.2103 -0.2959  0.1237
 1130loPI   C2B17410   5.624  14.648   7.459 -0.4684  0.5560 -0.0778
 1130loPI   C3B17411   5.593  14.678   7.904 -0.0074  0.1063 -0.0076
 1130loPI   C4B17412   5.662  14.615   8.293  0.0853 -0.1834 -0.1473
 1131loPI    C117413   7.742   8.069   5.972  0.0160 -0.0886 -0.0440
 1131loPI    C217414   8.121   8.181   5.912  0.0331 -0.0557  0.1203
 1131loPI    C317415   8.008   7.807   5.828  0.1043 -0.0688  0.0815
 1131loPI   PO417416   7.680   8.163   6.187  0.1330 -0.1873  0.0060
 1131loPI   GL117417   7.900   8.044   6.550 -0.1960  0.2294  0.1965
 1131loPI   GL217418   7.998   7.768   6.350 -0.2828 -0.1366 -0.0143
 1131loPI   C1A17419   7.949   8.044   6.927  0.1155 -0.2090  0.1435
 1131loPI   C2A17420   7.871   8.109   7.329  0.2250 -0.2100  0.1831
 1131loPI   C3A17421   7.810   8.036   7.784  0.0030  0.1052 -0.2842
 1131loPI   C4A17422   7.833   8.089   8.236 -0.2471  0.0528  0.0358
 1131loPI   C5A17423   7.608   8.139   8.614 -0.1072 -0.2512  0.0169
 1131loPI   C6A17424   7.482   8.495   8.732 -0.0409  0.0061  0.2599
 1131loPI   C1B17425   8.171   7.633   6.674  0.0571 -0.1275 -0.0870
 1131loPI   C2B17426   8.186   7.589   7.081  0.1777 -0.1744  0.0914
 1131loPI   C3B17427   8.219   7.598   7.615  0.1250  0.0927 -0.0443
 1131loPI   C4B17428   8.167   7.743   8.020 -0.2234 -0.2269 -0.2362
 1132loPI    C117429  12.012   7.873   5.899 -0.1250  0.2001  0.1560
 1132loPI    C217430  11.992   7.579   5.628 -0.0751  0.0997  0.2603
 1132loPI    C317431  11.731   7.882   5.615 -0.0520  0.1131  0.0804
 1132loPI   PO417432  12.079   7.720   6.129 -0.2292  0.0314 -0.2221
 1132loPI   GL117433  12.090   7.532   6.495  0.0337  0.1709  0.1304
 1132loPI   GL217434  11.819   7.762   6.521 -0.0150 -0.3766 -0.2667
 1132loPI   C1A17435  12.075   7.337   6.864  0.1045 -0.0886 -0.0220
 1132loPI   C2A17436  12.208   7.326   7.317 -0.0749 -0.1334  0.1691
 1132loPI   C3A17437  12.119   7.393   7.748 -0.1724 -0.1955  0.0793
 1132loPI   C4A17438  12.086   7.359   8.105  0.1713  0.1203 -0.0267
 1132loPI   C5A17439  11.924   7.371   8.536  0.2130 -0.0218  0.0858
 1132loPI   C6A17440  12.108   7.494   8.908 -0.2063 -0.0614 -0.0180
 1132loPI   C1B17441  11.707   7.731   6.972  0.0724  0.0790 -0.0725
 1132loPI   C2B17442  11.740   7.717   7.430 -0.2628  0.0206  0.0952
 1132loPI   C3B17443  11.859   7.851   7.790  0.2567  0.1813  0.0086
 1132loPI   C4B17444  11.808   7.806   8.301  0.2840 -0.0982 -0.0066
 1133loPI    C117445  15.928  15.471   5.968 -0.1990  0.1093  0.1062
 1133loPI    C217446  15.572  15.331   5.850 -0.1135  0.2215 -0.3000
 1133loPI    C317447  15.894  15.094   5.840 -0.1785  0.1070  0.1073
 1133loPI   PO417448  15.799  15.627   6.222 -0.2296 -0.3683 -0.2510
 1133loPI   GL117449  15.655  15.653   6.610 -0.0004  0.1124 -0.0276
 1133loPI   GL217450  15.933  15.790   6.740  0.1875 -0.0462  0.0211
 1133loPI   C1A17451  15.447  15.692   6.906  0.0356  0.3036  0.2007
 1133loPI   C2A17452  15.439  15.712   7.310  0.1169 -0.1516  0.2498
 1133loPI   C3A17453  15.482  15.739   7.722 -0.2735  0.1249 -0.2928
 1133loPI   C4A17454  15.568  15.765   8.100 -0.4676 -0.0996 -0.0867
 1133loPI   C5A17455  15.538  15.579   8.493  0.3607  0.1012  0.1439
 1133loPI   C6A17456  15.635  15.133   8.642  0.2051 -0.0477  0.0644
 1133loPI   C1B17457  15.956  15.779   7.087  0.1073  0.0475  0.0758
 1133loPI   C2B17458  15.946  15.747   7.474 -0.0216 -0.0020  0.1946
 1133loPI   C3B17459  16.023  15.750   7.928 -0.0306 -0.0400  0.1097
 1133loPI   C4B17460  16.028  15.796   8.383 -0.0718  0.0126 -0.0839
 1134loPI    C117461  17.342  16.299   5.634 -0.0507  0.1382  0.0870
 1134loPI    C217462  17.214  16.493   5.309  0.0749  0.3553  0.1650
 1134loPI    C317463  17.217  16.093   5.315  0.0962  0.3493 -0.1094
 1134loPI   PO417464  17.174  16.334   5.871 -0.3570 -0.1332  0.0586
 1134loPI   GL117465  17.123  16.180   6.287  0.0958 -0.0835 -0.1073
 1134loPI   GL217466  17.092  16.482   6.463 -0.1596  0.1002  0.4034
 1134loPI   C1A17467  17.059  16.055   6.761  0.1441  0.0931  0.1511
 1134loPI   C2A17468  17.125  16.213   7.079 -0.3469  0.5054 -0.1225
 1134loPI   C3A17469  17.211  16.294   7.515  0.1705  0.1921 -0.2641
 1134loPI   C4A17470  17.217  16.243   7.925  0.0874 -0.1693 -0.3275
 1134loPI   C5A17471  17.399  16.200   8.386  0.1332  0.1251 -0.2216
 1134loPI   C6A17472  17.717  16.265   8.581 -0.3260 -0.0437  0.1776
 1134loPI   C1B17473  17.331  16.602   6.928 -0.0246  0.1729  0.0340
 1134loPI   C2B17474  17.475  16.759   7.406  0.3074  0.1643  0.2132
 1134loPI   C3B17475  17.479  16.715   7.824  0.2042 -0.1421  0.1750
 1134loPI   C4B17476  17.581  16.673   8.274  0.0066  0.0214 -0.1604
 1135loPI    C117477  14.727   5.544   5.820  0.0329  0.0567  0.0877
 1135loPI    C217478  14.389   5.393   5.668  0.0629  0.1025 -0.0254
 1135loPI    C317479  14.741   5.226   5.578  0.0717  0.0611  0.0840
 1135loPI   PO417480  14.638   5.580   6.085 -0.3152 -0.0027  0.0648
 1135loPI   GL117481  14.801   5.728   6.441 -0.2032 -0.1500  0.0596
 1135loPI   GL217482  14.752   5.383   6.488  0.2844 -0.0280  0.3332
 1135loPI   C1A17483  14.748   5.604   6.915  0.2604  0.1748  0.0792
 1135loPI   C2A17484  14.658   5.498   7.405 -0.2483  0.1313  0.0629
 1135loPI   C3A17485  14.774   5.576   7.800 -0.2705 -0.2614  0.1352
 1135loPI   C4A17486  14.693   5.575   8.313  0.2741  0.2247 -0.0129
 1135loPI   C5A17487  14.537   5.416   8.687 -0.2307 -0.1932  0.0969
 1135loPI   C6A17488  14.116   5.601   8.902 -0.2511 -0.0021  0.2346
 1135loPI   C1B17489  14.431   5.165   6.713 -0.1885 -0.1335 -0.0117
 1135loPI   C2B17490  14.446   5.107   7.155 -0.3746  0.0168 -0.2916
 1135loPI   C3B17491  14.416   5.109   7.632 -0.1298 -0.3570 -0.0368
 1135loPI   C4B17492  14.426   5.188   8.085  0.0262 -0.1964 -0.0651
 1136loPI    C117493   2.309   6.240   5.780  0.5157  0.1182  0.2109
 1136loPI    C217494   2.460   6.000   5.498  0.1278  0.1739 -0.0528
 1136loPI    C317495   2.368   6.379   5.409  0.1614  0.2424  0.1966
 1136loPI   PO417496   2.224   6.074   5.924 -0.2364  0.0282  0.0797
 1136loPI   GL117497   2.161   6.046   6.299  0.3055  0.2185  0.0292
 1136loPI   GL217498   1.867   6.006   6.371 -0.1801 -0.1240  0.0345
 1136loPI   C1A17499   2.294   6.020   6.755 -0.0502  0.0475  0.1543
 1136loPI   C2A17500   2.374   6.055   7.163  0.0315  0.0011 -0.1156
 1136loPI   C3A17501   2.292   6.088   7.638 -0.0310 -0.1848 -0.0242
 1136loPI   C4A17502   2.086   6.208   8.058  0.1157  0.0135 -0.0886
 1136loPI   C5A17503   1.956   6.205   8.434  0.0727 -0.1028  0.0735
 1136loPI   C6A17504   1.953   6.050   8.905  0.2226  0.0291  0.0115
 1136loPI   C1B17505   1.780   6.107   6.729  0.1214 -0.0309  0.3901
 1136loPI   C2B17506   1.808   6.104   7.250  0.0230  0.0136 -0.1465
 1136loPI   C3B17507   1.753   6.094   7.616  0.4994 -0.0742  0.0968
 1136loPI   C4B17508   1.599   6.235   8.020 -0.0981  0.4306 -0.0487
 1137loPI    C117509   8.016   2.397   5.766 -0.2537  0.1689 -0.2121
 1137loPI    C217510   8.344   2.272   5.574 -0.1185  0.3258 -0.0854
 1137loPI    C317511   8.051   2.454   5.371 -0.0676  0.3065 -0.1771
 1137loPI   PO417512   8.057   2.440   6.010 -0.2730  0.1317  0.0319
 1137loPI   GL117513   8.062   2.345   6.330  0.1141  0.1072 -0.0431
 1137loPI   GL217514   8.221   2.119   6.482 -0.0444 -0.0952  0.0721
 1137loPI   C1A17515   8.033   2.639   6.644  0.4156 -0.4549  0.2564
 1137loPI   C2A17516   8.096   2.672   7.073 -0.0295  0.1099 -0.0898
 1137loPI   C3A17517   8.139   2.540   7.483  0.1101 -0.0606 -0.1138
 1137loPI   C4A17518   8.090   2.676   7.892 -0.1171  0.0253 -0.1082
 1137loPI   C5A17519   7.980   2.528   8.199 -0.0500  0.0943 -0.1236
 1137loPI   C6A17520   7.747   2.360   8.517 -0.3071  0.1245  0.0318
 1137loPI   C1B17521   8.303   2.277   6.795 -0.2555 -0.0846 -0.1235
 1137loPI   C2B17522   8.461   2.161   7.165 -0.0100 -0.1489  0.2146
 1137loPI   C3B17523   8.399   2.135   7.563 -0.0420 -0.1983 -0.0633
 1137loPI   C4B17524   8.314   2.232   7.970  0.0038 -0.0691 -0.1202
 1138loPI    C117525  12.343   9.561   5.662 -0.2045 -0.0918 -0.0081
 1138loPI    C217526  12.283   9.199   5.503  0.0199 -0.0752 -0.1343
 1138loPI    C317527  12.431   9.495   5.278 -0.0068  0.0505  0.0112
 1138loPI   PO417528  12.515   9.532   5.922 -0.1340 -0.2875  0.2737
 1138loPI   GL117529  12.459   9.463   6.311  0.0398  0.1187 -0.1635
 1138loPI   GL217530  12.464   9.179   6.304 -0.1222 -0.0717 -0.2542
 1138loPI   C1A17531  12.337   9.647   6.656 -0.1097  0.2665  0.1434
 1138loPI   C2A17532  12.253   9.568   7.132  0.0332 -0.2634 -0.0222
 1138loPI   C3A17533  12.197   9.514   7.473  0.0039 -0.1209 -0.0168
 1138loPI   C4A17534  12.172   9.611   7.858 -0.3944  0.0249 -0.0288
 1138loPI   C5A17535  12.236   9.610   8.316  0.2468 -0.0193 -0.2706
 1138loPI   C6A17536  12.209   9.403   8.614  0.1123  0.0128 -0.1264
 1138loPI   C1B17537  12.544   9.249   6.807  0.1292  0.1960 -0.1447
 1138loPI   C2B17538  12.508   9.159   7.254 -0.0123  0.0326 -0.3145
 1138loPI   C3B17539  12.554   9.174   7.676 -0.1508 -0.1142 -0.0879
 1138loPI   C4B17540  12.546   9.230   8.119 -0.1057  0.0204 -0.0134
 1139loPI    C117541  11.846   9.476   5.439  0.3560  0.2780  0.0350
 1139loPI    C217542  11.622   9.782   5.313  0.3967  0.3056  0.0293
 1139loPI    C317543  11.705   9.480   5.065 -0.2383 -0.0630  0.2437
 1139loPI   PO417544  11.794   9.475   5.678  0.2067  0.3061  0.0449
 1139loPI   GL117545  11.674   9.380   6.183  0.1520  0.1156 -0.0571
 1139loPI   GL217546  11.501   9.461   6.300 -0.1916 -0.2192  0.0349
 1139loPI   C1A17547  11.960   9.289   6.440 -0.2264  0.0163 -0.2304
 1139loPI   C2A17548  12.069   9.145   6.915 -0.1784  0.0509 -0.1287
 1139loPI   C3A17549  12.036   9.087   7.390 -0.0814 -0.0304  0.0678
 1139loPI   C4A17550  12.050   9.179   7.793  0.1453 -0.0387 -0.3805
 1139loPI   C5A17551  12.019   9.117   8.229 -0.0614  0.1203 -0.0135
 1139loPI   C6A17552  11.835   9.085   8.709 -0.2205 -0.1540  0.2483
 1139loPI   C1B17553  11.304   9.566   6.666 -0.0838  0.0810  0.0241
 1139loPI   C2B17554  11.195   9.587   7.084 -0.2875  0.0816 -0.1170
 1139loPI   C3B17555  11.256   9.599   7.527 -0.0097 -0.2314  0.1982
 1139loPI   C4B17556  11.127   9.631   8.011 -0.0849 -0.3030 -0.2093
 1140loPI    C117557  16.384   6.747   5.978  0.1906 -0.0060  0.0017
 1140loPI    C217558  16.430   6.490   5.676 -0.1191  0.1931 -0.2208
 1140loPI    C317559  16.148   6.773   5.656 -0.0660  0.2823  0.2068
 1140loPI   PO417560  16.433   6.641   6.152 -0.2048 -0.2314 -0.2977
 1140loPI   GL117561  16.353   6.425   6.508 -0.2155  0.0637  0.1947
 1140loPI   GL217562  16.094   6.587   6.606  0.1616 -0.0578  0.2013
 1140loPI   C1A17563  16.548   6.208   6.767  0.1881  0.0860  0.2282
 1140loPI   C2A17564  16.568   6.115   7.247 -0.0248  0.2659 -0.1148
 1140loPI   C3A17565  16.507   6.154   7.662 -0.2344  0.5389  0.2051
 1140loPI   C4A17566  16.469   6.069   8.016 -0.1036 -0.1555  0.1404
 1140loPI   C5A17567  16.590   6.122   8.433 -0.0981 -0.1505 -0.1858
 1140loPI   C6A17568  16.616   6.074   8.925  0.0806  0.1129  0.2062
 1140loPI   C1B17569  16.355   6.621   6.959  0.0851  0.3147  0.1069
 1140loPI   C2B17570  16.317   6.619   7.454 -0.3408 -0.1997  0.1500
 1140loPI   C3B17571  16.273   6.592   7.958  0.1716 -0.0904 -0.1651
 1140loPI   C4B17572  16.194   6.515   8.466 -0.2608 -0.1042  0.0477
 1141loPI    C117573   8.546   8.964   5.531  0.1639 -0.0519  0.1366
 1141loPI    C217574   8.149   8.999   5.569  0.1629  0.1519 -0.0390
 1141loPI    C317575   8.310   8.925   5.211  0.2723 -0.1367  0.0666
 1141loPI   PO417576   8.615   8.898   5.841  0.0105 -0.0611  0.0628
 1141loPI   GL117577   8.672   9.079   6.235  0.3244 -0.1134 -0.0124
 1141loPI   GL217578   8.952   8.958   6.263 -0.1109  0.1598 -0.1068
 1141loPI   C1A17579   8.556   9.009   6.659  0.4598  0.1995 -0.0420
 1141loPI   C2A17580   8.497   9.024   7.029 -0.0154 -0.0642 -0.1254
 1141loPI   C3A17581   8.349   8.986   7.535 -0.0353  0.0807 -0.2218
 1141loPI   C4A17582   8.267   9.021   7.974  0.2787  0.0556 -0.1764
 1141loPI   C5A17583   8.594   8.878   8.301  0.2026  0.3356  0.0677
 1141loPI   C6A17584   8.555   8.604   8.423 -0.1359  0.1270 -0.0852
 1141loPI   C1B17585   9.106   8.994   6.688 -0.0008 -0.1901  0.0225
 1141loPI   C2B17586   8.997   9.068   7.042  0.4373  0.0914  0.2201
 1141loPI   C3B17587   8.884   8.983   7.408  0.2314 -0.2062 -0.0854
 1141loPI   C4B17588   8.793   9.073   7.833  0.4035 -0.0531 -0.0353
 1142loPI    C117589   7.150  15.945   6.157 -0.0991  0.0975 -0.1928
 1142loPI    C217590   7.419  16.216   6.038  0.0352  0.0701  0.0428
 1142loPI    C317591   7.102  16.135   5.808 -0.1357  0.6020  0.0787
 1142loPI   PO417592   7.055  15.997   6.383  0.2218 -0.2381 -0.0087
 1142loPI   GL117593   7.029  15.776   6.709 -0.1939 -0.3083 -0.0092
 1142loPI   GL217594   7.193  15.508   6.827 -0.1428  0.0356  0.3356
 1142loPI   C1A17595   6.963  16.028   7.083  0.2274 -0.1082  0.1784
 1142loPI   C2A17596   6.919  15.987   7.492 -0.0011  0.0726  0.1966
 1142loPI   C3A17597   6.842  15.961   7.901 -0.1688 -0.2521  0.2403
 1142loPI   C4A17598   6.907  16.009   8.345  0.0881  0.0015  0.0011
 1142loPI   C5A17599   7.142  16.020   8.707  0.1906  0.2249 -0.1255
 1142loPI   C6A17600   7.128  15.805   9.138 -0.2158 -0.1925 -0.2904
 1142loPI   C1B17601   7.114  15.606   7.192  0.1497 -0.2716  0.1194
 1142loPI   C2B17602   7.211  15.565   7.635 -0.2142 -0.0178 -0.1261
 1142loPI   C3B17603   7.267  15.521   8.049  0.0560 -0.2115 -0.1571
 1142loPI   C4B17604   7.129  15.555   8.445  0.4252  0.1399  0.1284
 1143loPI    C117605   9.409  15.024   5.925  0.0812 -0.0102  0.0472
 1143loPI    C217606   9.512  15.229   5.597  0.0719  0.0959  0.1099
 1143loPI    C317607   9.767  14.964   5.755  0.1548  0.1869  0.1295
 1143loPI   PO417608   9.375  15.032   6.135 -0.1057 -0.0785 -0.1114
 1143loPI   GL117609   9.372  14.844   6.562 -0.0751 -0.1023  0.1061
 1143loPI   GL217610   9.390  15.178   6.598 -0.4785 -0.1512  0.0658
 1143loPI   C1A17611   9.459  15.038   7.012 -0.0895  0.0130 -0.1861
 1143loPI   C2A17612   9.509  15.031   7.407 -0.0107  0.0991 -0.3373
 1143loPI   C3A17613   9.548  15.182   7.891 -0.1604 -0.0632 -0.2822
 1143loPI   C4A17614   9.557  15.069   8.274  0.1577  0.3057  0.4346
 1143loPI   C5A17615   9.718  15.014   8.775  0.5270 -0.0221 -0.2741
 1143loPI   C6A17616   9.794  14.650   8.693 -0.1559  0.1228 -0.1546
 1143loPI   C1B17617   9.790  15.000   6.694 -0.3367  0.1248  0.0840
 1143loPI   C2B17618   9.994  15.000   7.025 -0.0341 -0.3536 -0.1849
 1143loPI   C3B17619  10.029  15.033   7.471  0.2487 -0.1410  0.1749
 1143loPI   C4B17620  10.066  15.272   7.800 -0.0975 -0.0578 -0.1416
 1144loPI    C117621   1.376   5.450   5.718 -0.2021 -0.0167  0.1455
 1144loPI    C217622   1.596   5.723   5.526 -0.2217  0.0389  0.2018
 1144loPI    C317623   1.347   5.487   5.321 -0.0498 -0.0799  0.1278
 1144loPI   PO417624   1.453   5.147   5.836 -0.0994 -0.2413  0.1662
 1144loPI   GL117625   1.529   5.047   6.247  0.1325 -0.3060 -0.1656
 1144loPI   GL217626   1.557   4.835   6.549  0.2026 -0.0896 -0.2888
 1144loPI   C1A17627   1.334   5.266   6.615 -0.1058  0.0829 -0.1000
 1144loPI   C2A17628   1.287   5.232   7.039  0.1486  0.0830 -0.1621
 1144loPI   C3A17629   1.221   5.242   7.408 -0.0017 -0.0380  0.1017
 1144loPI   C4A17630   1.265   5.263   7.799 -0.0634 -0.0365 -0.0596
 1144loPI   C5A17631   1.244   5.186   8.221  0.4447 -0.1470 -0.0382
 1144loPI   C6A17632   1.244   5.496   8.500 -0.2526  0.2925 -0.1430
 1144loPI   C1B17633   1.558   4.863   6.981 -0.0670 -0.0858  0.1430
 1144loPI   C2B17634   1.521   4.844   7.388 -0.3941  0.1112  0.2758
 1144loPI   C3B17635   1.505   4.758   7.752  0.2140 -0.2052 -0.1921
 1144loPI   C4B17636   1.511   4.699   8.171 -0.0084  0.0665  0.1738
 1145loPI    C117637   4.408   1.004   5.658 -0.0149 -0.1968 -0.0158
 1145loPI    C217638   4.048   1.160   5.738  0.0125 -0.1277 -0.0260
 1145loPI    C317639   4.351   1.400   5.635  0.1358 -0.1559  0.2593
 1145loPI   PO417640   4.535   0.948   5.889 -0.2707 -0.2487 -0.3499
 1145loPI   GL117641   4.874   0.946   6.273 -0.0095 -0.0368  0.1866
 1145loPI   GL217642   4.569   0.817   6.382 -0.2461 -0.0437 -0.1458
 1145loPI   C1A17643   4.767   1.225   6.543  0.0502 -0.0882  0.5253
 1145loPI   C2A17644   4.732   1.244   7.042 -0.1340 -0.1337  0.0839
 1145loPI   C3A17645   4.824   1.189   7.530 -0.0609 -0.1011  0.0868
 1145loPI   C4A17646   4.717   1.277   7.910 -0.1582  0.0747 -0.0398
 1145loPI   C5A17647   4.820   1.232   8.353 -0.0338  0.0170  0.0704
 1145loPI   C6A17648   4.760   1.192   8.691  0.0476 -0.1025 -0.1884
 1145loPI   C1B17649   4.554   0.771   6.878 -0.2799  0.2857 -0.2588
 1145loPI   C2B17650   4.443   0.813   7.327  0.1921  0.0985 -0.1503
 1145loPI   C3B17651   4.461   0.757   7.772 -0.0902  0.1095  0.1935
 1145loPI   C4B17652   4.474   0.893   8.152  0.0667 -0.3188 -0.0774
 1146loPI    C117653   9.726   7.702   5.782  0.1608 -0.0616 -0.0892
 1146loPI    C217654   9.713   7.543   5.416  0.1976  0.0242 -0.1281
 1146loPI    C317655  10.034   7.751   5.532  0.1229  0.1253 -0.1013
 1146loPI   PO417656   9.523   7.681   5.858  0.1257  0.0634 -0.1681
 1146loPI   GL117657   9.352   7.588   6.333  0.2618 -0.2043 -0.1145
 1146loPI   GL217658   9.341   7.226   6.231  0.1083  0.1735  0.1167
 1146loPI   C1A17659   9.184   7.506   6.791  0.3213 -0.0853  0.4584
 1146loPI   C2A17660   9.196   7.533   7.190  0.2436  0.2598 -0.3162
 1146loPI   C3A17661   9.141   7.686   7.647 -0.0866  0.0531  0.3251
 1146loPI   C4A17662   9.178   7.827   8.103  0.0878  0.0984 -0.1117
 1146loPI   C5A17663   9.205   7.911   8.567  0.2165 -0.1547 -0.2489
 1146loPI   C6A17664   9.491   7.796   8.885 -0.0262 -0.0349 -0.1811
 1146loPI   C1B17665   9.511   7.086   6.654  0.3428 -0.3347 -0.0954
 1146loPI   C2B17666   9.435   7.134   7.100  0.1141  0.0753  0.0332
 1146loPI   C3B17667   9.451   7.201   7.536 -0.0544  0.0560  0.0911
 1146loPI   C4B17668   9.467   7.215   8.010 -0.2063 -0.1403  0.5098
 1147loPI    C117669  16.975   7.497   5.885 -0.0200 -0.2970  0.0035
 1147loPI    C217670  17.257   7.515   5.601 -0.0995 -0.2522 -0.0731
 1147loPI    C317671  16.873   7.465   5.499 -0.1667  0.0737  0.0081
 1147loPI   PO417672  17.143   7.240   6.064 -0.4030 -0.1568  0.0782
 1147loPI   GL117673  17.385   7.251   6.447  0.1423  0.0899 -0.2287
 1147loPI   GL217674  17.238   6.979   6.521  0.2022 -0.3567  0.1034
 1147loPI   C1A17675  17.353   7.525   6.801  0.2865  0.1767 -0.0588
 1147loPI   C2A17676  17.309   7.483   7.306 -0.1711  0.0150 -0.0237
 1147loPI   C3A17677  17.247   7.452   7.716 -0.0317  0.3449 -0.1660
 1147loPI   C4A17678  17.233   7.439   8.166 -0.2235  0.0641 -0.1274
 1147loPI   C5A17679  17.099   7.362   8.590 -0.1805 -0.2513  0.0542
 1147loPI   C6A17680  16.740   7.144   8.658  0.0408  0.1279 -0.2073
 1147loPI   C1B17681  17.077   7.089   6.941  0.0281 -0.2605  0.0276
 1147loPI   C2B17682  17.025   7.069   7.367 -0.3277  0.0571 -0.0492
 1147loPI   C3B17683  16.982   7.041   7.846 -0.0676 -0.2115  0.2328
 1147loPI   C4B17684  17.025   7.006   8.240  0.2008 -0.0792 -0.1114
 1148loPI    C117685  15.019   2.401   5.957 -0.1190  0.2077  0.0237
 1148loPI    C217686  14.740   2.681   5.899 -0.2906 -0.0125 -0.2375
 1148loPI    C317687  14.754   2.360   5.660  0.2304  0.0271 -0.2713
 1148loPI   PO417688  15.079   2.330   6.180  0.2190 -0.3660 -0.1589
 1148loPI   GL117689  15.018   2.444   6.568 -0.3246 -0.2535  0.0487
 1148loPI   GL217690  14.724   2.438   6.683 -0.0246 -0.2344  0.1075
 1148loPI   C1A17691  15.085   2.433   7.060 -0.1977 -0.3616 -0.1643
 1148loPI   C2A17692  15.047   2.380   7.439 -0.2315  0.2033 -0.0065
 1148loPI   C3A17693  15.105   2.305   7.923  0.1246 -0.0891 -0.1997
 1148loPI   C4A17694  15.107   2.296   8.355  0.0113  0.1541  0.0606
 1148loPI   C5A17695  15.084   2.367   8.772 -0.1322 -0.1969 -0.0635
 1148loPI   C6A17696  14.927   2.102   9.102  0.1049 -0.0340  0.0884
 1148loPI   C1B17697  14.563   2.438   7.139  0.1189  0.2081 -0.0795
 1148loPI   C2B17698  14.599   2.419   7.648 -0.2397  0.1012  0.0621
 1148loPI   C3B17699  14.635   2.390   8.078 -0.0166  0.1394 -0.0904
 1148loPI   C4B17700  14.601   2.216   8.463  0.0817 -0.1967 -0.1472
 1149loPI    C117701  11.724   4.838   5.740  0.1398 -0.1314 -0.2247
 1149loPI    C217702  11.423   4.933   5.493  0.0018 -0.0340 -0.0216
 1149loPI    C317703  11.802   4.983   5.375 -0.0642  0.1808 -0.1486
 1149loPI   PO417704  11.665   4.852   6.047 -0.2451  0.2477 -0.3300
 1149loPI   GL117705  11.733   5.025   6.439  0.0662  0.2929 -0.1590
 1149loPI   GL217706  12.035   4.934   6.557 -0.3791 -0.0045 -0.0803
 1149loPI   C1A17707  11.451   5.070   6.821 -0.1502  0.1361  0.0819
 1149loPI   C2A17708  11.423   4.970   7.291  0.1195 -0.1815 -0.2573
 1149loPI   C3A17709  11.426   4.971   7.702  0.0463 -0.1058 -0.1681
 1149loPI   C4A17710  11.447   4.926   8.137 -0.3197 -0.1849  0.0146
 1149loPI   C5A17711  11.349   4.981   8.618  0.0395 -0.0085 -0.1710
 1149loPI   C6A17712  11.352   5.286   8.897 -0.0598  0.0247  0.0197
 1149loPI   C1B17713  11.910   5.045   6.947  0.0437 -0.0168 -0.1529
 1149loPI   C2B17714  11.955   5.090   7.392 -0.0563 -0.1328  0.3554
 1149loPI   C3B17715  11.928   4.991   7.809  0.0971  0.0053  0.0127
 1149loPI   C4B17716  11.912   5.044   8.227 -0.0415  0.0496  0.0184
 1150loPI    C117717  12.585   7.927   6.207  0.0603 -0.1169 -0.0376
 1150loPI    C217718  12.779   8.021   6.543 -0.1018 -0.0412  0.0356
 1150loPI    C317719  12.797   8.266   6.227  0.0249 -0.0969 -0.0012
 1150loPI   PO417720  12.623   7.583   6.220 -0.2745 -0.1103  0.0363
 1150loPI   GL117721  12.716   7.214   6.411 -0.0968  0.1014  0.0430
 1150loPI   GL217722  12.732   6.926   6.345 -0.2697 -0.0218  0.0750
 1150loPI   C1A17723  12.655   7.228   6.791 -0.0425 -0.0489  0.1502
 1150loPI   C2A17724  12.749   7.341   7.114  0.0740 -0.0213 -0.0201
 1150loPI   C3A17725  12.665   7.359   7.568  0.2071 -0.0384  0.2443
 1150loPI   C4A17726  12.618   7.288   7.894 -0.0413  0.1114 -0.1357
 1150loPI   C5A17727  12.612   7.267   8.289  0.3775 -0.0796 -0.0878
 1150loPI   C6A17728  12.807   7.091   8.588  0.2645 -0.0359  0.2528
 1150loPI   C1B17729  12.920   6.804   6.667  0.1355  0.0534 -0.1014
 1150loPI   C2B17730  12.948   6.802   7.141 -0.2186 -0.0321  0.0974
 1150loPI   C3B17731  12.899   6.781   7.650  0.0727  0.0611  0.0945
 1150loPI   C4B17732  12.852   6.832   8.083  0.0847 -0.0192  0.0672
 1151loPI    C117733   8.113  12.042   5.701 -0.2070 -0.0125 -0.0238
 1151loPI    C217734   8.426  12.236   5.546 -0.0753 -0.0979  0.1321
 1151loPI    C317735   8.429  11.837   5.570 -0.2584 -0.1086  0.0012
 1151loPI   PO417736   7.989  12.093   5.883 -0.0155 -0.1073 -0.1450
 1151loPI   GL117737   8.014  11.947   6.214 -0.2584 -0.3917  0.0219
 1151loPI   GL217738   7.850  11.592   6.367  0.1627  0.0353 -0.0242
 1151loPI   C1A17739   8.202  12.075   6.676  0.1085 -0.1238  0.0640
 1151loPI   C2A17740   8.087  12.258   7.073  0.0485  0.2259 -0.2383
 1151loPI   C3A17741   8.033  12.242   7.493  0.0010 -0.0400  0.0225
 1151loPI   C4A17742   8.029  12.238   7.846  0.1926 -0.3248 -0.0328
 1151loPI   C5A17743   7.831  12.084   8.186  0.2423 -0.3433 -0.0438
 1151loPI   C6A17744   7.566  12.272   8.471 -0.0461 -0.0207  0.1750
 1151loPI   C1B17745   7.930  11.671   6.764  0.0404  0.1228  0.0129
 1151loPI   C2B17746   7.967  11.750   7.211  0.0147 -0.0015  0.0110
 1151loPI   C3B17747   7.842  11.770   7.584 -0.1260  0.3741 -0.4019
 1151loPI   C4B17748   7.623  11.646   7.853  0.0404  0.1087  0.1935
 1152loPI    C117749  13.466   7.684   5.741  0.0770  0.0752  0.0289
 1152loPI    C217750  13.314   7.372   5.541 -0.1435  0.1581  0.0642
 1152loPI    C317751  13.547   7.638   5.352  0.1498 -0.0941  0.0630
 1152loPI   PO417752  13.496   7.591   6.047  0.0931  0.0161  0.0058
 1152loPI   GL117753  13.587   7.818   6.340  0.0456 -0.1503  0.1748
 1152loPI   GL217754  13.519   8.121   6.472 -0.3931 -0.1923  0.1361
 1152loPI   C1A17755  13.410   7.785   6.780 -0.2849 -0.0656  0.1619
 1152loPI   C2A17756  13.396   7.759   7.218  0.0289 -0.2664  0.0402
 1152loPI   C3A17757  13.374   7.755   7.648 -0.4069 -0.0678  0.0828
 1152loPI   C4A17758  13.311   7.825   8.053  0.1399  0.2704  0.2731
 1152loPI   C5A17759  13.223   7.683   8.413 -0.3059  0.0965  0.1971
 1152loPI   C6A17760  13.475   7.617   8.845 -0.0876 -0.1365  0.1399
 1152loPI   C1B17761  13.593   8.313   6.786 -0.0678 -0.2248 -0.2194
 1152loPI   C2B17762  13.614   8.306   7.248 -0.1791 -0.1554  0.1519
 1152loPI   C3B17763  13.648   8.229   7.720 -0.2281  0.0583  0.0043
 1152loPI   C4B17764  13.657   8.298   8.019  0.0876 -0.0418 -0.1620
 1153loPI    C117765   0.889  12.338   6.203  0.1696  0.0989  0.0504
 1153loPI    C217766   0.816  12.730   6.185 -0.0777  0.0496 -0.0600
 1153loPI    C317767   0.781  12.505   5.856  0.0768 -0.0635 -0.0003
 1153loPI   PO417768   1.049  12.326   6.484 -0.3747 -0.3796  0.2559
 1153loPI   GL117769   1.117  12.702   6.681  0.0140 -0.2227  0.2295
 1153loPI   GL217770   1.106  12.988   6.737 -0.0137 -0.2810 -0.5253
 1153loPI   C1A17771   0.969  12.626   7.068  0.0884  0.1708  0.3236
 1153loPI   C2A17772   1.080  12.657   7.500 -0.2022 -0.0176  0.2422
 1153loPI   C3A17773   1.105  12.532   7.842  0.2051  0.1484 -0.1458
 1153loPI   C4A17774   1.052  12.532   8.274 -0.0263  0.0473  0.0747
 1153loPI   C5A17775   0.965  12.386   8.606  0.1385 -0.4321 -0.0177
 1153loPI   C6A17776   0.910  12.056   8.940 -0.1590 -0.1845  0.2085
 1153loPI   C1B17777   1.226  13.130   7.058 -0.0198 -0.1223 -0.0973
 1153loPI   C2B17778   1.277  13.200   7.434  0.0803 -0.1983 -0.0698
 1153loPI   C3B17779   1.243  13.066   7.786  0.1752 -0.0082 -0.2402
 1153loPI   C4B17780   1.233  12.998   8.192  0.0058 -0.2216  0.0954
 1154loPI    C117781   7.636   2.620   5.649  0.1061 -0.1749  0.0353
 1154loPI    C217782   7.311   2.395   5.588  0.0786 -0.1251 -0.0026
 1154loPI    C317783   7.553   2.484   5.282  0.0821 -0.0918  0.0097
 1154loPI   PO417784   7.553   2.828   5.836 -0.0389  0.0849 -0.1083
 1154loPI   GL117785   7.672   2.714   6.215 -0.1347 -0.1442  0.2670
 1154loPI   GL217786   7.470   2.660   6.391 -0.0502  0.1654 -0.3592
 1154loPI   C1A17787   7.779   3.017   6.450  0.1550 -0.1067  0.3977
 1154loPI   C2A17788   7.834   3.066   6.889 -0.1819  0.0084 -0.1020
 1154loPI   C3A17789   7.957   3.150   7.238  0.1734 -0.1780 -0.1523
 1154loPI   C4A17790   7.894   3.091   7.715 -0.0361  0.0332 -0.3342
 1154loPI   C5A17791   7.690   2.994   8.075 -0.1247  0.0889 -0.0959
 1154loPI   C6A17792   7.801   2.862   8.501 -0.4551 -0.5050  0.0237
 1154loPI   C1B17793   7.585   2.670   6.785  0.0105  0.1047  0.1972
 1154loPI   C2B17794   7.581   2.580   7.205  0.1774  0.1772 -0.0149
 1154loPI   C3B17795   7.646   2.592   7.653  0.0134  0.1406 -0.3030
 1154loPI   C4B17796   7.541   2.519   8.025  0.2563  0.0178  0.1771
 1155loPI    C117797   9.299   2.877   6.102  0.0439  0.1209  0.0087
 1155loPI    C217798   9.308   3.045   5.739 -0.0937 -0.0715 -0.0854
 1155loPI    C317799   9.325   2.647   5.776  0.0965 -0.0457  0.1289
 1155loPI   PO417800   9.519   2.984   6.226 -0.1885 -0.2659  0.1619
 1155loPI   GL117801   9.464   3.098   6.581 -0.0154  0.5694 -0.1080
 1155loPI   GL217802   9.623   3.397   6.519 -0.2406  0.0282 -0.1704
 1155loPI   C1A17803   9.428   3.089   7.016 -0.1170 -0.1493 -0.0391
 1155loPI   C2A17804   9.398   3.054   7.436 -0.0205 -0.2101 -0.0104
 1155loPI   C3A17805   9.373   3.106   7.864 -0.2191  0.2790 -0.0416
 1155loPI   C4A17806   9.392   3.124   8.302  0.0453 -0.1174  0.0564
 1155loPI   C5A17807   9.455   2.956   8.683  0.0915 -0.0028  0.0257
 1155loPI   C6A17808   9.158   2.640   8.926  0.1311  0.1574  0.1842
 1155loPI   C1B17809   9.677   3.490   6.992 -0.0828 -0.0781  0.2056
 1155loPI   C2B17810   9.702   3.553   7.396  0.1274  0.1034 -0.0620
 1155loPI   C3B17811   9.641   3.533   7.800 -0.0890 -0.1745 -0.0498
 1155loPI   C4B17812   9.659   3.530   8.286 -0.2418 -0.3999 -0.0160
 1156loPI    C117813  11.930  14.999   5.789  0.3215  0.1872  0.0641
 1156loPI    C217814  11.669  15.247   5.964  0.2545  0.1476  0.0205
 1156loPI    C317815  11.589  15.095   5.602  0.4376  0.3072 -0.0891
 1156loPI   PO417816  11.963  14.820   6.005 -0.0806  0.0515  0.1154
 1156loPI   GL117817  12.112  14.757   6.333 -0.1517 -0.1952 -0.0660
 1156loPI   GL217818  12.379  14.590   6.371  0.1544 -0.4706  0.0779
 1156loPI   C1A17819  12.068  14.995   6.688 -0.1680  0.0544 -0.0721
 1156loPI   C2A17820  12.028  15.150   7.062 -0.1894  0.0677  0.2648
 1156loPI   C3A17821  12.084  15.211   7.562 -0.0650 -0.0111 -0.1684
 1156loPI   C4A17822  12.108  15.191   7.968 -0.0421  0.0022  0.2506
 1156loPI   C5A17823  12.023  15.398   8.341 -0.0210 -0.1365 -0.3677
 1156loPI   C6A17824  11.880  15.263   8.577 -0.2398  0.0632 -0.2489
 1156loPI   C1B17825  12.294  14.539   6.816  0.1782 -0.2549  0.1039
 1156loPI   C2B17826  12.274  14.742   7.204 -0.0144 -0.0393  0.1385
 1156loPI   C3B17827  12.295  14.784   7.623 -0.0185  0.1712  0.0559
 1156loPI   C4B17828  12.486  14.698   7.978  0.0529 -0.0000  0.0118
 1157loPI    C117829  12.351   0.541   5.803 -0.0026 -0.1868  0.1160
 1157loPI    C217830  11.981   0.415   5.720  0.1168 -0.3349 -0.2086
 1157loPI    C317831  12.094   0.784   5.617 -0.0284 -0.1836  0.1556
 1157loPI   PO417832  12.422   0.462   5.994 -0.1993  0.1556 -0.0654
 1157loPI   GL117833  12.369   0.538   6.381  0.0730  0.1302  0.0578
 1157loPI   GL217834  12.638   0.432   6.500  0.1164 -0.0729 -0.0353
 1157loPI   C1A17835  12.334   0.888   6.658  0.2329 -0.3292  0.0181
 1157loPI   C2A17836  12.349   0.919   7.096  0.1982 -0.3013 -0.2006
 1157loPI   C3A17837  12.249   0.893   7.588 -0.1277 -0.0317  0.0737
 1157loPI   C4A17838  12.300   0.869   8.049 -0.0105 -0.0923 -0.2430
 1157loPI   C5A17839  12.037   0.722   8.430  0.1718  0.0776 -0.2402
 1157loPI   C6A17840  12.085   0.466   8.893 -0.1037 -0.3400 -0.2573
 1157loPI   C1B17841  12.530   0.514   6.918 -0.3755  0.0429  0.0395
 1157loPI   C2B17842  12.507   0.455   7.253 -0.1638 -0.1119  0.0045
 1157loPI   C3B17843  12.549   0.501   7.591  0.0064 -0.0896 -0.2085
 1157loPI   C4B17844  12.582   0.410   8.034 -0.2253 -0.1828 -0.0304
 1158loPI    C117845   1.776   3.113   5.849 -0.0107  0.1649 -0.0875
 1158loPI    C217846   1.730   3.461   5.658  0.3699  0.1429 -0.2277
 1158loPI    C317847   2.097   3.311   5.716  0.2198 -0.1557 -0.0230
 1158loPI   PO417848   1.655   3.121   6.100 -0.0898 -0.1474 -0.3948
 1158loPI   GL117849   1.707   3.034   6.497 -0.4801 -0.0929  0.0506
 1158loPI   GL217850   1.681   3.388   6.619 -0.1567 -0.2876  0.1233
 1158loPI   C1A17851   1.588   2.965   6.887  0.0772 -0.0815 -0.1302
 1158loPI   C2A17852   1.548   2.960   7.316  0.1820  0.2266  0.0540
 1158loPI   C3A17853   1.615   2.965   7.730  0.1361 -0.0269  0.0021
 1158loPI   C4A17854   1.577   3.042   8.132 -0.0980 -0.4561 -0.0588
 1158loPI   C5A17855   1.461   2.951   8.543  0.3007 -0.0544 -0.0357
 1158loPI   C6A17856   1.267   2.658   8.756  0.2205 -0.0344 -0.0099
 1158loPI   C1B17857   1.772   3.378   7.002  0.0786  0.1031  0.0324
 1158loPI   C2B17858   1.770   3.422   7.434  0.2034  0.1589  0.1186
 1158loPI   C3B17859   1.795   3.453   7.906  0.4510 -0.0837  0.1347
 1158loPI   C4B17860   1.962   3.483   8.288 -0.0923  0.1152  0.2562
 1159loPI    C117861   2.703   9.871   6.038  0.1861 -0.0923 -0.0527
 1159loPI    C217862   3.023  10.079   5.916 -0.0075  0.0872 -0.2629
 1159loPI    C317863   2.861   9.802   5.677 -0.1728  0.1890 -0.2708
 1159loPI   PO417864   2.700   9.875   6.435 -0.2387 -0.0841 -0.0444
 1159loPI   GL117865   2.613   9.823   6.779 -0.1425  0.2211 -0.0989
 1159loPI   GL217866   2.768   9.425   6.700 -0.0918  0.1998 -0.3244
 1159loPI   C1A17867   2.737   9.636   7.174 -0.2318  0.1054  0.0534
 1159loPI   C2A17868   2.565   9.625   7.667 -0.3068  0.0123 -0.0719
 1159loPI   C3A17869   2.576   9.608   8.133 -0.0795 -0.2016  0.0311
 1159loPI   C4A17870   2.444   9.798   8.430  0.2488 -0.0862 -0.3199
 1159loPI   C5A17871   2.111   9.928   8.784  0.0108  0.0362 -0.0003
 1159loPI   C6A17872   1.843   9.703   9.041  0.1671 -0.4187 -0.0646
 1159loPI   C1B17873   2.934   9.168   7.116  0.0671 -0.0681  0.0028
 1159loPI   C2B17874   2.948   9.224   7.600  0.1436 -0.0428 -0.3689
 1159loPI   C3B17875   2.790   9.217   7.986  0.3024  0.3186  0.2487
 1159loPI   C4B17876   2.817   9.118   8.355 -0.1212 -0.3961 -0.1921
 1160loPI    C117877  14.921   0.727   6.074  0.3174 -0.0462  0.0871
 1160loPI    C217878  15.246   0.960   6.062  0.1665  0.1593 -0.0913
 1160loPI    C317879  14.992   0.956   5.753  0.1784 -0.2625 -0.1009
 1160loPI   PO417880  14.834   0.850   6.384 -0.0850  0.3133 -0.2570
 1160loPI   GL117881  15.027   0.966   6.742  0.0482 -0.0961 -0.1364
 1160loPI   GL217882  14.804   1.089   6.827 -0.3102 -0.1493 -0.0640
 1160loPI   C1A17883  15.386   1.015   6.971  0.2114  0.0515 -0.0614
 1160loPI   C2A17884  15.410   1.032   7.426 -0.1202  0.0716 -0.0294
 1160loPI   C3A17885  15.447   0.958   7.873  0.2086  0.1339  0.1999
 1160loPI   C4A17886  15.497   0.971   8.232  0.2380 -0.2317  0.0395
 1160loPI   C5A17887  15.624   0.948   8.708 -0.2407  0.0429 -0.0715
 1160loPI   C6A17888  15.636   0.648   8.895 -0.2084  0.1491 -0.0414
 1160loPI   C1B17889  14.798   1.056   7.263 -0.0885 -0.0048  0.0316
 1160loPI   C2B17890  14.823   1.012   7.647  0.0928  0.0045  0.2009
 1160loPI   C3B17891  14.862   0.982   8.098  0.1092 -0.0676 -0.0924
 1160loPI   C4B17892  15.083   1.024   8.526  0.1145  0.0649 -0.0378
 1161loPI    C117893   7.752   9.292   6.015  0.0562 -0.0615  0.0408
 1161loPI    C217894   7.841   9.594   5.768  0.1583 -0.1830 -0.0726
 1161loPI    C317895   7.729   9.241   5.619 -0.0404 -0.1778  0.0611
 1161loPI   PO417896   7.758   9.412   6.222 -0.3116 -0.2160 -0.2259
 1161loPI   GL117897   7.772   9.602   6.538 -0.1621 -0.2598  0.2700
 1161loPI   GL217898   7.655   9.352   6.673  0.0282  0.2663 -0.0135
 1161loPI   C1A17899   7.854   9.837   6.919 -0.4030  0.1593  0.3731
 1161loPI   C2A17900   7.845   9.931   7.396 -0.2902  0.0797  0.2388
 1161loPI   C3A17901   7.806   9.894   7.837 -0.0375  0.1091  0.1386
 1161loPI   C4A17902   7.720   9.917   8.262  0.0802 -0.0586  0.2922
 1161loPI   C5A17903   7.645   9.804   8.645  0.2055  0.3692 -0.0012
 1161loPI   C6A17904   7.591   9.365   8.903 -0.0261 -0.2030  0.0048
 1161loPI   C1B17905   7.543   9.364   7.098  0.0461 -0.2851  0.3954
 1161loPI   C2B17906   7.610   9.461   7.505 -0.2135  0.0505 -0.0848
 1161loPI   C3B17907   7.525   9.500   7.933 -0.3212  0.2580  0.1290
 1161loPI   C4B17908   7.500   9.415   8.348  0.0304 -0.2958 -0.0264
 1162loPI    C117909   8.841   0.211   5.951  0.1548 -0.1919 -0.0599
 1162loPI    C217910   9.160   0.429   5.850 -0.0916  0.0778 -0.2736
 1162loPI    C317911   8.958   0.229   5.569 -0.1391 -0.0545 -0.1462
 1162loPI   PO417912   8.885   0.140   6.187  0.0485 -0.1625 -0.1560
 1162loPI   GL117913   8.987   0.071   6.589 -0.1354  0.0661 -0.0449
 1162loPI   GL217914   9.096  -0.270   6.665  0.1541  0.2456 -0.2831
 1162loPI   C1A17915   8.890   0.266   6.980  0.0457 -0.2201 -0.1486
 1162loPI   C2A17916   8.883   0.344   7.421 -0.0088 -0.0068 -0.1319
 1162loPI   C3A17917   8.880   0.378   7.846  0.1019  0.1559  0.0741
 1162loPI   C4A17918   8.735   0.494   8.286  0.0832 -0.2705 -0.1028
 1162loPI   C5A17919   8.371   0.634   8.425  0.0875 -0.0469  0.0669
 1162loPI   C6A17920   8.240   0.788   8.756  0.3031  0.2419 -0.0887
 1162loPI   C1B17921   9.141  -0.150   7.100 -0.0358 -0.0419  0.1201
 1162loPI   C2B17922   9.120  -0.064   7.522  0.1861 -0.1372 -0.1668
 1162loPI   C3B17923   9.159  -0.051   7.953  0.0036  0.0596  0.0465
 1162loPI   C4B17924   9.012  -0.096   8.319  0.2132  0.1387  0.3376
 1163loPI    C117925   2.056   8.837   5.763 -0.1229  0.0014 -0.0550
 1163loPI    C217926   2.096   8.652   5.410  0.2256  0.0431 -0.0411
 1163loPI    C317927   2.226   9.028   5.455 -0.1678  0.1753  0.0272
 1163loPI   PO417928   2.137   8.619   5.926  0.1340  0.2822 -0.0339
 1163loPI   GL117929   2.138   8.382   6.276 -0.1178  0.0463  0.0287
 1163loPI   GL217930   2.088   8.751   6.479 -0.2014  0.1227 -0.1049
 1163loPI   C1A17931   1.936   8.339   6.792  0.0169 -0.0878  0.0315
 1163loPI   C2A17932   1.886   8.293   7.196 -0.0264  0.0306  0.2340
 1163loPI   C3A17933   1.825   8.380   7.574 -0.2369  0.0756  0.0213
 1163loPI   C4A17934   1.791   8.346   8.057 -0.1412  0.0679  0.1982
 1163loPI   C5A17935   1.867   8.530   8.445  0.1384  0.0473  0.1019
 1163loPI   C6A17936   2.113   8.905   8.517  0.0797 -0.2027  0.1022
 1163loPI   C1B17937   2.129   8.827   6.865  0.0828 -0.2105  0.2210
 1163loPI   C2B17938   2.175   8.706   7.249  0.1609 -0.3822 -0.2075
 1163loPI   C3B17939   2.191   8.741   7.608 -0.0676  0.0684 -0.4360
 1163loPI   C4B17940   2.017   8.774   7.958 -0.2650  0.2426  0.0211
 1164loPI    C117941  11.259  16.601   5.739  0.0126  0.1242  0.1788
 1164loPI    C217942  11.158  16.813   5.415  0.0505 -0.0654  0.0414
 1164loPI    C317943  11.237  16.422   5.382  0.0221 -0.0933  0.2854
 1164loPI   PO417944  11.360  16.745   5.894 -0.1578  0.1367  0.1510
 1164loPI   GL117945  11.448  16.618   6.307  0.2086  0.2185 -0.3088
 1164loPI   GL217946  11.237  16.395   6.498  0.2374  0.0018  0.1093
 1164loPI   C1A17947  11.493  16.855   6.654  0.2156  0.0786 -0.1716
 1164loPI   C2A17948  11.538  16.903   7.088  0.0787  0.2409 -0.2016
 1164loPI   C3A17949  11.594  16.958   7.495  0.0037  0.0654  0.0931
 1164loPI   C4A17950  11.605  16.995   7.935  0.3322  0.1272  0.0628
 1164loPI   C5A17951  11.519  16.834   8.303 -0.3667  0.0030  0.2617
 1164loPI   C6A17952  11.171  16.917   8.642 -0.1973  0.1088 -0.0898
 1164loPI   C1B17953  11.253  16.474   6.952  0.0325  0.0524 -0.1277
 1164loPI   C2B17954  11.352  16.444   7.411  0.1192  0.2618 -0.0673
 1164loPI   C3B17955  11.430  16.531   7.837  0.1240 -0.1763 -0.1552
 1164loPI   C4B17956  11.836  16.545   8.041 -0.3432  0.1967 -0.0466
 1165loPI    C117957   0.719   6.708   5.801  0.3118 -0.3404 -0.2241
 1165loPI    C217958   0.381   6.819   5.618  0.1842 -0.0665  0.1635
 1165loPI    C317959   0.735   6.910   5.456  0.0770 -0.2138 -0.1629
 1165loPI   PO417960   0.591   6.674   6.096 -0.0975 -0.1279 -0.2117
 1165loPI   GL117961   0.846   6.704   6.497 -0.0885 -0.0770  0.0499
 1165loPI   GL217962   1.095   6.539   6.604  0.0258 -0.0733  0.0476
 1165loPI   C1A17963   0.582   6.566   6.826 -0.3883  0.0532  0.1249
 1165loPI   C2A17964   0.386   6.586   7.183  0.2333  0.0177  0.0327
 1165loPI   C3A17965   0.453   6.533   7.548 -0.0153 -0.0808  0.2544
 1165loPI   C4A17966   0.345   6.679   7.992  0.0332 -0.2563  0.1250
 1165loPI   C5A17967   0.422   6.538   8.322 -0.0747  0.0359  0.0901
 1165loPI   C6A17968   0.725   6.489   8.775 -0.0473  0.1364  0.1401
 1165loPI   C1B17969   1.044   6.544   7.106  0.0527  0.1526 -0.1232
 1165loPI   C2B17970   1.000   6.547   7.598  0.2273  0.2231 -0.0026
 1165loPI   C3B17971   0.865   6.680   7.988  0.0285  0.0818 -0.1476
 1165loPI   C4B17972   0.890   6.692   8.332 -0.0236  0.1503  0.1777
 1166loPI    C117973  16.845   4.899   5.992 -0.0595  0.2615  0.0452
 1166loPI    C217974  17.081   4.666   5.768 -0.0506  0.1122  0.2086
 1166loPI    C317975  16.780   4.868   5.598 -0.0269  0.0215  0.0575
 1166loPI   PO417976  16.940   5.120   6.148 -0.2640  0.2959  0.0866
 1166loPI   GL117977  16.910   5.428   6.523  0.0177  0.0431  0.1131
 1166loPI   GL217978  17.104   5.224   6.663  0.0740  0.4328  0.3008
 1166loPI   C1A17979  16.619   5.317   6.881  0.0746  0.2139 -0.1659
 1166loPI   C2A17980  16.466   5.243   7.316  0.1261 -0.1360 -0.0845
 1166loPI   C3A17981  16.496   5.088   7.821 -0.1303  0.0507  0.0771
 1166loPI   C4A17982  16.493   5.208   8.294 -0.3392  0.2277  0.2319
 1166loPI   C5A17983  16.333   5.157   8.624 -0.0266 -0.0257 -0.1549
 1166loPI   C6A17984  16.334   4.899   8.989  0.2425  0.0359  0.2421
 1166loPI   C1B17985  17.074   5.200   7.060 -0.0029 -0.1991 -0.1317
 1166loPI   C2B17986  17.057   5.256   7.502  0.0735 -0.1608  0.0650
 1166loPI   C3B17987  17.027   5.182   7.952  0.2494 -0.0722 -0.1335
 1166loPI   C4B17988  16.871   4.914   8.289 -0.0943 -0.2293 -0.0026
 1167loPI    C117989   2.734   4.378   5.998 -0.0858  0.0136  0.0116
 1167loPI    C217990   2.935   4.152   5.736 -0.0064  0.0105  0.0750
 1167loPI    C317991   2.858   4.535   5.651 -0.2642 -0.0765 -0.0944
 1167loPI   PO417992   2.771   4.328   6.218 -0.0749  0.1362 -0.1511
 1167loPI   GL117993   2.983   4.442   6.486 -0.0703 -0.1117  0.0246
 1167loPI   GL217994   3.112   4.699   6.437  0.2118 -0.1247 -0.4834
 1167loPI   C1A17995   2.876   4.327   6.972  0.4530  0.1712  0.0548
 1167loPI   C2A17996   2.869   4.333   7.435  0.0789  0.2606 -0.0913
 1167loPI   C3A17997   2.930   4.280   7.912 -0.1255  0.0915 -0.2342
 1167loPI   C4A17998   2.861   4.268   8.361 -0.0435 -0.2195 -0.1488
 1167loPI   C5A17999   2.480   4.221   8.606 -0.5678  0.1716  0.0214
 1167loPI   C6A18000   2.031   4.325   8.840 -0.0316 -0.1076 -0.4003
 1167loPI   C1B18001   3.091   4.794   6.949 -0.1324 -0.0877 -0.1872
 1167loPI   C2B18002   3.215   4.852   7.303 -0.2998 -0.3447 -0.0628
 1167loPI   C3B18003   3.088   4.803   7.628 -0.0741 -0.0029  0.1022
 1167loPI   C4B18004   3.141   4.699   8.086  0.0353  0.0891  0.3115
 1168loPI    C118005   9.491  14.529   5.872  0.3153 -0.1655 -0.1442
 1168loPI    C218006   9.416  14.320   5.540  0.0794 -0.2737 -0.0255
 1168loPI    C318007   9.322  14.709   5.557 -0.0696 -0.3089 -0.0260
 1168loPI   PO418008   9.466  14.412   6.023  0.1611 -0.0218  0.0781
 1168loPI   GL118009   9.536  14.394   6.447 -0.2847 -0.0124 -0.3486
 1168loPI   GL218010   9.490  14.145   6.606  0.1662 -0.1288 -0.2870
 1168loPI   C1A18011   9.623  14.588   6.914  0.3298  0.0593  0.0250
 1168loPI   C2A18012   9.682  14.562   7.353 -0.0013 -0.0889 -0.0338
 1168loPI   C3A18013   9.763  14.661   7.764 -0.1646  0.0395 -0.3428
 1168loPI   C4A18014   9.983  14.880   8.090  0.2303 -0.1617  0.0034
 1168loPI   C5A18015  10.136  15.125   8.436  0.1881 -0.2132 -0.0677
 1168loPI   C6A18016  10.226  14.931   8.873  0.1453 -0.1771 -0.3265
 1168loPI   C1B18017   9.458  14.144   7.057  0.1686 -0.1954 -0.1973
 1168loPI   C2B18018   9.451  14.174   7.553 -0.0182 -0.3847  0.0225
 1168loPI   C3B18019   9.637  14.026   7.952 -0.1881  0.4676  0.1463
 1168loPI   C4B18020   9.809  13.860   8.383  0.2545 -0.1952 -0.0624
 1169loPI    C118021   2.635   3.346   5.965 -0.0470  0.0575  0.1452
 1169loPI    C218022   2.581   3.312   5.570 -0.2414 -0.2118  0.1922
 1169loPI    C318023   2.932   3.212   5.733 -0.1072  0.0522  0.0709
 1169loPI   PO418024   2.419   3.352   6.077  0.1905 -0.0463  0.1524
 1169loPI   GL118025   2.188   3.318   6.530  0.3168  0.2206  0.0119
 1169loPI   GL218026   2.505   3.355   6.566  0.1317  0.0189 -0.0637
 1169loPI   C1A18027   2.125   3.051   6.882 -0.1463  0.2220  0.4229
 1169loPI   C2A18028   2.124   3.046   7.290  0.0117  0.1551 -0.1391
 1169loPI   C3A18029   2.059   3.007   7.691  0.0979 -0.1031  0.1426
 1169loPI   C4A18030   2.092   2.942   8.172  0.0573 -0.3734  0.0037
 1169loPI   C5A18031   1.921   2.985   8.602 -0.1626 -0.2065 -0.5072
 1169loPI   C6A18032   1.778   2.901   8.996  0.1394  0.0099 -0.1877
 1169loPI   C1B18033   2.416   3.367   7.049 -0.2409  0.0843  0.0149
 1169loPI   C2B18034   2.382   3.467   7.484 -0.0908  0.3404  0.0349
 1169loPI   C3B18035   2.344   3.431   7.974 -0.0939 -0.2455  0.2227
 1169loPI   C4B18036   2.392   3.265   8.449 -0.0891 -0.0343  0.3455
 1170loPI    C118037   8.877  17.145   5.700 -0.0861  0.3508  0.0372
 1170loPI    C218038   8.719  16.931   5.401  0.0097  0.0905  0.1701
 1170loPI    C318039   9.109  17.020   5.399  0.0374 -0.0242  0.2806
 1170loPI   PO418040   8.692  17.086   5.915  0.2227  0.0094  0.4897
 1170loPI   GL118041   8.642  17.172   6.381  0.2331  0.0420  0.0176
 1170loPI   GL218042   8.714  16.782   6.318 -0.0967  0.3325  0.0183
 1170loPI   C1A18043   8.662  17.244   6.851  0.0424 -0.2003  0.1925
 1170loPI   C2A18044   8.602  17.282   7.331 -0.0488  0.0154 -0.1521
 1170loPI   C3A18045   8.637  17.404   7.737 -0.1149 -0.0770  0.1541
 1170loPI   C4A18046   8.587  17.448   8.165  0.1164 -0.0106  0.1452
 1170loPI   C5A18047   8.457  17.584   8.569  0.3880 -0.1433  0.3219
 1170loPI   C6A18048   8.509  17.701   8.981  0.2447  0.3293  0.1153
 1170loPI   C1B18049   8.837  16.732   6.780 -0.0912 -0.0442  0.4351
 1170loPI   C2B18050   8.978  16.778   7.218  0.2450  0.1076 -0.0803
 1170loPI   C3B18051   8.886  16.888   7.591 -0.0543 -0.1840 -0.1350
 1170loPI   C4B18052   8.897  16.867   8.028  0.1769  0.1936 -0.2728
 1171loPI    C118053   2.252  10.181   5.914  0.0782 -0.0534 -0.0111
 1171loPI    C218054   2.167   9.814   5.781 -0.1647  0.1499 -0.4409
 1171loPI    C318055   2.441  10.036   5.593  0.2988  0.0380  0.0756
 1171loPI   PO418056   2.323  10.180   6.173  0.2698  0.2636  0.1291
 1171loPI   GL118057   2.199  10.036   6.639 -0.1731  0.3119 -0.3655
 1171loPI   GL218058   2.395  10.341   6.644 -0.0790 -0.2415 -0.1350
 1171loPI   C1A18059   2.340   9.983   7.155  0.1872 -0.3499 -0.0488
 1171loPI   C2A18060   2.175  10.025   7.602 -0.0342 -0.0495  0.0487
 1171loPI   C3A18061   2.303  10.108   8.091  0.0895 -0.0901 -0.0955
 1171loPI   C4A18062   2.077  10.255   8.457  0.3728 -0.1993 -0.0288
 1171loPI   C5A18063   1.645  10.105   8.638  0.1079  0.1459  0.1557
 1171loPI   C6A18064   1.515  10.077   9.089  0.2849 -0.1618  0.4078
 1171loPI   C1B18065   2.533  10.464   7.016  0.2622  0.3980 -0.0762
 1171loPI   C2B18066   2.498  10.421   7.394  0.0951 -0.1262  0.0209
 1171loPI   C3B18067   2.513  10.485   7.822  0.0353  0.0777 -0.0762
 1171loPI   C4B18068   2.516  10.482   8.262 -0.1564  0.0047 -0.1220
 1172loPI    C118069   2.406  10.671   5.983 -0.1143  0.3161  0.0682
 1172loPI    C218070   2.712  10.461   5.835 -0.3211  0.0717 -0.0188
 1172loPI    C318071   2.631  10.824   5.689 -0.1254  0.1030 -0.0531
 1172loPI   PO418072   2.359  10.689   6.174  0.0192 -0.1023 -0.1401
 1172loPI   GL118073   2.404  10.936   6.496 -0.0009 -0.1260 -0.1577
 1172loPI   GL218074   2.684  10.761   6.681 -0.0848 -0.1914 -0.2706
 1172loPI   C1A18075   2.407  11.127   6.905  0.1239  0.1203 -0.0711
 1172loPI   C2A18076   2.386  11.296   7.313 -0.0376  0.0148 -0.5356
 1172loPI   C3A18077   2.411  11.376   7.692  0.1420 -0.1211 -0.0116
 1172loPI   C4A18078   2.358  11.322   8.084 -0.0394  0.0772 -0.1565
 1172loPI   C5A18079   2.361  11.212   8.481 -0.1231  0.2119 -0.0979
 1172loPI   C6A18080   2.221  11.192   8.918 -0.2978 -0.0643 -0.0393
 1172loPI   C1B18081   2.719  10.870   7.176  0.0563  0.0751  0.0168
 1172loPI   C2B18082   2.816  10.930   7.590  0.0454 -0.1216  0.0961
 1172loPI   C3B18083   2.690  10.934   7.987 -0.0626 -0.0572 -0.0856
 1172loPI   C4B18084   2.768  10.942   8.485 -0.0742  0.6284  0.0915
 1173loPI    C118085   6.692   7.242   5.737  0.1078 -0.0985  0.1522
 1173loPI    C218086   6.799   6.893   5.574  0.0564 -0.0157 -0.0628
 1173loPI    C318087   6.639   7.179   5.345 -0.0332  0.0970  0.1385
 1173loPI   PO418088   6.500   7.114   5.918 -0.0772 -0.0760 -0.0579
 1173loPI   GL118089   6.526   6.857   6.390 -0.0001  0.0538  0.0264
 1173loPI   GL218090   6.379   7.108   6.571 -0.0700  0.0330 -0.1267
 1173loPI   C1A18091   6.637   6.742   6.831 -0.2375  0.2679  0.1872
 1173loPI   C2A18092   6.677   6.708   7.256 -0.2869  0.1642 -0.1932
 1173loPI   C3A18093   6.753   6.680   7.725  0.1585  0.1696 -0.0304
 1173loPI   C4A18094   6.578   6.829   8.031  0.0279 -0.2118  0.0679
 1173loPI   C5A18095   6.618   6.768   8.428  0.2275 -0.0690  0.1765
 1173loPI   C6A18096   6.558   6.659   8.884  0.1324 -0.2512 -0.4414
 1173loPI   C1B18097   6.433   7.153   7.092 -0.0885  0.0766 -0.0265
 1173loPI   C2B18098   6.444   7.130   7.551  0.0780  0.1727 -0.2204
 1173loPI   C3B18099   6.388   7.274   7.939  0.1390  0.0600  0.1265
 1173loPI   C4B18100   6.289   7.187   8.367 -0.0653 -0.0001  0.1137
 1174loPI    C118101   1.932   0.836   5.735  0.0793  0.0826  0.1756
 1174loPI    C218102   1.951   0.437   5.729  0.1879  0.0896 -0.0939
 1174loPI    C318103   2.269   0.654   5.620  0.1040  0.2501 -0.0235
 1174loPI   PO418104   1.884   0.859   5.991 -0.0492 -0.1312 -0.3739
 1174loPI   GL118105   1.816   0.639   6.406 -0.4636  0.0017 -0.1765
 1174loPI   GL218106   1.707   0.325   6.658  0.0764  0.2141 -0.1912
 1174loPI   C1A18107   1.918   0.700   6.845 -0.0079  0.0840  0.0682
 1174loPI   C2A18108   1.900   0.668   7.257  0.0417 -0.1125  0.0341
 1174loPI   C3A18109   1.924   0.675   7.693 -0.2754  0.1968  0.2076
 1174loPI   C4A18110   1.909   0.752   8.172  0.2359  0.3375 -0.5661
 1174loPI   C5A18111   2.042   0.705   8.545  0.0345  0.0077  0.3173
 1174loPI   C6A18112   2.130   0.432   8.974  0.1081  0.0910 -0.1937
 1174loPI   C1B18113   1.613   0.199   7.071  0.2257 -0.2156 -0.0093
 1174loPI   C2B18114   1.635   0.238   7.449  0.0885 -0.0065  0.1334
 1174loPI   C3B18115   1.600   0.274   7.863 -0.0223  0.0957 -0.1180
 1174loPI   C4B18116   1.677   0.246   8.293  0.1388 -0.0988  0.0000
 1175loPI    C118117   2.788   2.821   5.996 -0.1727  0.0633  0.1227
 1175loPI    C218118   2.441   2.855   5.801 -0.2887  0.1291  0.3366
 1175loPI    C318119   2.614   2.497   5.841 -0.1209  0.1512 -0.1243
 1175loPI   PO418120   2.758   2.944   6.282  0.1268  0.2417 -0.0891
 1175loPI   GL118121   3.020   2.899   6.698  0.3989  0.3001 -0.1042
 1175loPI   GL218122   3.313   3.049   6.612  0.1577 -0.2666 -0.1249
 1175loPI   C1A18123   2.703   3.002   7.006 -0.1766  0.0479 -0.0387
 1175loPI   C2A18124   2.607   3.036   7.437 -0.2188 -0.0590 -0.1290
 1175loPI   C3A18125   2.555   3.002   7.823  0.0639  0.4437  0.1420
 1175loPI   C4A18126   2.559   2.822   8.324  0.1367  0.1479 -0.1656
 1175loPI   C5A18127   2.280   2.576   8.572 -0.0334 -0.1002 -0.2163
 1175loPI   C6A18128   2.051   2.433   8.906  0.3094 -0.0205  0.2725
 1175loPI   C1B18129   3.273   3.081   7.085 -0.0151  0.1382 -0.0235
 1175loPI   C2B18130   3.086   3.095   7.447 -0.1889  0.1812  0.1806
 1175loPI   C3B18131   3.229   2.975   7.812 -0.2018  0.1380  0.2329
 1175loPI   C4B18132   3.207   2.966   8.251 -0.0167 -0.1913  0.3005
 1176loPI    C118133  13.924  11.926   6.156  0.0985  0.1115 -0.0192
 1176loPI    C218134  14.190  11.883   5.860  0.0259  0.2269 -0.1019
 1176loPI    C318135  13.881  12.134   5.818 -0.0721  0.1269  0.0110
 1176loPI   PO418136  13.973  12.000   6.359 -0.1833  0.0228 -0.0591
 1176loPI   GL118137  14.039  11.954   6.745  0.1470  0.0392 -0.2237
 1176loPI   GL218138  14.236  11.676   6.722  0.0554 -0.1768 -0.0125
 1176loPI   C1A18139  14.042  11.995   7.122  0.1356 -0.2372 -0.0140
 1176loPI   C2A18140  14.065  11.994   7.522  0.0032  0.3124  0.0496
 1176loPI   C3A18141  13.944  12.004   7.984 -0.1663 -0.1125 -0.0765
 1176loPI   C4A18142  13.849  12.069   8.443  0.1192 -0.1193 -0.0414
 1176loPI   C5A18143  13.621  12.167   8.817 -0.0638 -0.0198 -0.1134
 1176loPI   C6A18144  13.425  12.227   9.242 -0.2271  0.0805 -0.0193
 1176loPI   C1B18145  14.275  11.466   7.104 -0.1721 -0.0871  0.2097
 1176loPI   C2B18146  14.293  11.399   7.540 -0.0117  0.1989  0.1021
 1176loPI   C3B18147  14.217  11.575   7.881  0.0778  0.1395  0.1880
 1176loPI   C4B18148  14.119  11.657   8.383  0.2973 -0.0129 -0.2542
 1177loPI    C118149   1.460   1.287   5.665 -0.0432 -0.2269 -0.1671
 1177loPI    C218150   1.780   1.210   5.437  0.0004 -0.0905 -0.1532
 1177loPI    C318151   1.468   1.406   5.283 -0.0523 -0.1715 -0.1501
 1177loPI   PO418152   1.571   1.187   5.913  0.0547 -0.3776  0.3181
 1177loPI   GL118153   1.727   1.248   6.266 -0.1191 -0.0502 -0.0140
 1177loPI   GL218154   1.989   1.447   6.346 -0.0067  0.0677 -0.1640
 1177loPI   C1A18155   1.682   1.161   6.658  0.2528  0.1825 -0.1126
 1177loPI   C2A18156   1.626   1.121   7.102 -0.0648 -0.1801  0.0470
 1177loPI   C3A18157   1.594   1.063   7.489 -0.1758 -0.1182  0.0640
 1177loPI   C4A18158   1.606   1.173   7.868  0.2542  0.0512 -0.0903
 1177loPI   C5A18159   1.581   1.138   8.283  0.0654  0.1408  0.0778
 1177loPI   C6A18160   1.600   1.092   8.674 -0.2785  0.2173 -0.0103
 1177loPI   C1B18161   1.898   1.606   6.740 -0.0576  0.1988 -0.2862
 1177loPI   C2B18162   1.852   1.517   7.137  0.0258 -0.4760  0.0322
 1177loPI   C3B18163   1.909   1.593   7.549 -0.0198  0.1687  0.1137
 1177loPI   C4B18164   1.914   1.635   7.971 -0.0530 -0.0848  0.1646
 1178loPI    C118165  12.039  13.957   5.721  0.1720 -0.0676  0.2282
 1178loPI    C218166  12.249  13.795   5.422  0.0014  0.1915 -0.0384
 1178loPI    C318167  12.329  14.167   5.544 -0.1329  0.1978  0.0326
 1178loPI   PO418168  12.042  13.816   5.860  0.1029 -0.0787  0.0847
 1178loPI   GL118169  11.871  13.955   6.250  0.0192 -0.0132  0.0319
 1178loPI   GL218170  12.005  14.133   6.472  0.1056 -0.0832 -0.0586
 1178loPI   C1A18171  11.764  13.742   6.685 -0.0680  0.0679 -0.1782
 1178loPI   C2A18172  11.779  13.686   7.068  0.0105  0.0302 -0.1661
 1178loPI   C3A18173  11.809  13.840   7.502 -0.0359 -0.2011  0.3213
 1178loPI   C4A18174  11.840  13.720   7.980  0.0108  0.0357  0.2084
 1178loPI   C5A18175  11.739  13.896   8.350 -0.1238 -0.1440 -0.0819
 1178loPI   C6A18176  11.597  14.296   8.510  0.2766 -0.0961  0.0804
 1178loPI   C1B18177  12.049  14.146   6.854 -0.2001 -0.0519  0.0438
 1178loPI   C2B18178  12.028  14.276   7.331 -0.0865 -0.5007 -0.1552
 1178loPI   C3B18179  12.065  14.258   7.700  0.0606  0.2587  0.1992
 1178loPI   C4B18180  12.091  14.240   8.151  0.0596  0.3375 -0.0906
 1179loPI    C118181   4.298  14.831   5.947 -0.0079  0.0215  0.2192
 1179loPI    C218182   4.438  15.071   5.660 -0.0912  0.1328  0.2712
 1179loPI    C318183   4.182  14.778   5.568 -0.0297  0.0964  0.2153
 1179loPI   PO418184   4.524  14.706   6.073  0.1597  0.0276  0.2978
 1179loPI   GL118185   4.611  14.886   6.414  0.1800  0.2923  0.0633
 1179loPI   GL218186   4.439  15.091   6.442 -0.1439  0.1392  0.2781
 1179loPI   C1A18187   4.857  15.024   6.769  0.0210  0.1389  0.2076
 1179loPI   C2A18188   4.962  14.979   7.192  0.2978  0.2722 -0.1468
 1179loPI   C3A18189   4.968  15.001   7.604 -0.0419  0.4116 -0.0004
 1179loPI   C4A18190   4.818  15.034   7.944 -0.0818  0.0387  0.2029
 1179loPI   C5A18191   4.927  15.093   8.398  0.0816 -0.0156  0.0252
 1179loPI   C6A18192   4.793  15.054   8.800 -0.1678 -0.2881 -0.2678
 1179loPI   C1B18193   4.269  15.036   6.838 -0.0107  0.0865 -0.1906
 1179loPI   C2B18194   4.195  15.068   7.291  0.1964  0.0989 -0.0273
 1179loPI   C3B18195   4.237  15.054   7.723  0.0026 -0.4199 -0.0533
 1179loPI   C4B18196   4.334  15.114   8.087 -0.0885 -0.3219  0.0048
 1180loPI    C118197  13.479   2.623   5.637  0.1571 -0.0530  0.1140
 1180loPI    C218198  13.313   2.570   5.277  0.2384  0.1689  0.0418
 1180loPI    C318199  13.595   2.317   5.407  0.1222  0.0173  0.0019
 1180loPI   PO418200  13.295   2.632   5.762 -0.2897 -0.2060  0.1524
 1180loPI   GL118201  13.080   2.863   6.226 -0.2969 -0.2245 -0.1381
 1180loPI   GL218202  13.361   2.763   6.282 -0.1153  0.2822 -0.0393
 1180loPI   C1A18203  13.010   3.099   6.640 -0.0672 -0.1688  0.1723
 1180loPI   C2A18204  12.973   3.145   7.055 -0.5032 -0.0689 -0.3335
 1180loPI   C3A18205  13.053   3.168   7.414 -0.0265 -0.0649  0.0847
 1180loPI   C4A18206  13.006   3.199   7.930  0.0158 -0.3196  0.1260
 1180loPI   C5A18207  13.118   3.525   8.282  0.2541  0.2573 -0.0168
 1180loPI   C6A18208  13.299   3.882   8.489  0.0691  0.2021 -0.0240
 1180loPI   C1B18209  13.314   2.650   6.689  0.2125 -0.0496  0.0936
 1180loPI   C2B18210  13.293   2.671   7.085 -0.1824 -0.1469  0.1400
 1180loPI   C3B18211  13.261   2.710   7.492 -0.1174 -0.1277 -0.0666
 1180loPI   C4B18212  13.322   2.745   7.892 -0.2002 -0.3685  0.0997
 1181loPI    C118213   1.897  14.077   5.983 -0.0948  0.0165  0.1196
 1181loPI    C218214   2.185  14.066   5.705 -0.0901 -0.1375  0.1294
 1181loPI    C318215   1.828  14.224   5.617  0.0174  0.1154  0.1377
 1181loPI   PO418216   2.071  14.058   6.239 -0.2089 -0.3444  0.1424
 1181loPI   GL118217   1.935  13.860   6.539 -0.2562  0.2850  0.0875
 1181loPI   GL218218   2.227  13.984   6.710  0.0928  0.0503 -0.4091
 1181loPI   C1A18219   1.761  14.009   6.924  0.1508 -0.1261  0.0744
 1181loPI   C2A18220   1.734  14.135   7.313 -0.1232 -0.0007 -0.3136
 1181loPI   C3A18221   1.776  14.044   7.723 -0.2285  0.0331 -0.0192
 1181loPI   C4A18222   1.669  13.927   8.127  0.0264  0.1141  0.0614
 1181loPI   C5A18223   1.737  14.050   8.564  0.0942 -0.0228  0.2444
 1181loPI   C6A18224   1.895  14.082   8.977 -0.1689  0.2210 -0.3194
 1181loPI   C1B18225   2.284  13.989   7.066  0.1594  0.1244 -0.1082
 1181loPI   C2B18226   2.228  14.098   7.499 -0.2222  0.1295  0.0594
 1181loPI   C3B18227   2.230  14.101   7.986 -0.0144 -0.4326  0.0437
 1181loPI   C4B18228   2.187  14.011   8.313  0.1073 -0.2641 -0.3684
 1182loPI    C118229  10.782   9.553   5.591 -0.0860  0.0345 -0.1147
 1182loPI    C218230  10.690   9.786   5.280 -0.3126  0.0331 -0.0510
 1182loPI    C318231  10.628   9.392   5.259  0.1330 -0.0361 -0.1837
 1182loPI   PO418232  10.636   9.548   5.842  0.2486 -0.0644  0.4528
 1182loPI   GL118233  10.626   9.421   6.242  0.0269  0.1655  0.0778
 1182loPI   GL218234  10.363   9.545   6.369  0.0807  0.1843  0.0678
 1182loPI   C1A18235  10.553   9.098   6.567 -0.0621 -0.0216 -0.0731
 1182loPI   C2A18236  10.484   9.056   7.101  0.3521  0.2688  0.1349
 1182loPI   C3A18237  10.499   9.241   7.516  0.0458  0.2484 -0.0595
 1182loPI   C4A18238  10.388   9.061   7.863 -0.0210 -0.0117 -0.3227
 1182loPI   C5A18239  10.354   9.227   8.324  0.3678 -0.2237 -0.0735
 1182loPI   C6A18240  10.262   9.621   8.585 -0.1311  0.1843 -0.0999
 1182loPI   C1B18241  10.356   9.530   6.862 -0.1414 -0.1827  0.1514
 1182loPI   C2B18242  10.205   9.548   7.303  0.2667 -0.1651 -0.1437
 1182loPI   C3B18243  10.103   9.566   7.829  0.0311 -0.0963 -0.0635
 1182loPI   C4B18244   9.839   9.453   8.220 -0.1324  0.2920  0.0375
 1183loPI    C118245   2.591  14.824   6.130 -0.2929 -0.0404  0.1309
 1183loPI    C218246   2.649  14.463   5.969  0.2687  0.0337  0.1453
 1183loPI    C318247   2.723  14.791   5.754 -0.1263  0.1449  0.1713
 1183loPI   PO418248   2.650  14.747   6.404  0.0157 -0.2147  0.0129
 1183loPI   GL118249   2.859  14.811   6.864  0.1774  0.1731 -0.0978
 1183loPI   GL218250   2.954  14.488   6.761 -0.1867  0.0218  0.0093
 1183loPI   C1A18251   2.727  14.893   7.273 -0.0823 -0.1201  0.0510
 1183loPI   C2A18252   2.675  15.034   7.731 -0.3117 -0.3098  0.3515
 1183loPI   C3A18253   2.705  15.083   8.148 -0.1209 -0.0092 -0.0259
 1183loPI   C4A18254   2.697  14.830   8.524 -0.0224 -0.1185 -0.2139
 1183loPI   C5A18255   2.481  14.671   8.901 -0.2884  0.1675 -0.2558
 1183loPI   C6A18256   2.180  14.499   8.927 -0.2573 -0.0190 -0.3902
 1183loPI   C1B18257   3.038  14.482   7.255  0.0300  0.0765  0.1667
 1183loPI   C2B18258   2.992  14.540   7.624 -0.0096 -0.0268  0.0096
 1183loPI   C3B18259   3.018  14.667   8.013 -0.0628  0.1528  0.0282
 1183loPI   C4B18260   3.128  14.507   8.345 -0.2006 -0.3366  0.3557
 1184loPI    C118261   5.658  11.563   5.512 -0.0608  0.3962  0.0141
 1184loPI    C218262   5.322  11.379   5.397  0.0297  0.1787  0.0916
 1184loPI    C318263   5.595  11.487   5.125 -0.0052  0.1609  0.0495
 1184loPI   PO418264   5.726  11.439   5.736 -0.1286 -0.1971  0.3256
 1184loPI   GL118265   5.874  11.425   6.185  0.1077  0.2691  0.1054
 1184loPI   GL218266   6.101  11.214   6.280 -0.1431  0.1588  0.1928
 1184loPI   C1A18267   5.699  11.582   6.597 -0.3789 -0.2283 -0.1787
 1184loPI   C2A18268   5.551  11.497   7.014 -0.0700 -0.2777  0.4557
 1184loPI   C3A18269   5.565  11.555   7.455  0.0969  0.1253  0.1485
 1184loPI   C4A18270   5.612  11.500   7.874 -0.2983  0.3878 -0.0205
 1184loPI   C5A18271   5.603  11.434   8.371 -0.1774  0.1947  0.0746
 1184loPI   C6A18272   5.570  11.598   8.783 -0.1802  0.0951  0.0315
 1184loPI   C1B18273   5.990  11.167   6.730  0.1578 -0.0623  0.2339
 1184loPI   C2B18274   5.879  11.095   7.153 -0.1516 -0.0486  0.3888
 1184loPI   C3B18275   5.880  11.098   7.615  0.1720 -0.0627 -0.1271
 1184loPI   C4B18276   5.840  11.075   8.030 -0.3039 -0.3767  0.0456
 1185loPI    C118277  15.950  17.315   5.939  0.3241  0.1354  0.2398
 1185loPI    C218278  16.292  17.193   5.771  0.0837 -0.0300 -0.1426
 1185loPI    C318279  15.961  16.972   5.734 -0.1209  0.2419  0.0274
 1185loPI   PO418280  16.035  17.382   6.150 -0.1657  0.0543  0.1007
 1185loPI   GL118281  16.273  17.262   6.496  0.2588 -0.1775 -0.1204
 1185loPI   GL218282  16.373  17.542   6.655 -0.0701  0.0159  0.1872
 1185loPI   C1A18283  16.144  17.119   6.900  0.1241  0.2616  0.2709
 1185loPI   C2A18284  16.154  17.147   7.309  0.2291 -0.1506  0.3954
 1185loPI   C3A18285  16.213  17.112   7.782 -0.1304 -0.2080  0.1009
 1185loPI   C4A18286  16.301  17.137   8.196 -0.1515 -0.0633  0.1833
 1185loPI   C5A18287  16.378  17.223   8.649  0.2054 -0.0536  0.1241
 1185loPI   C6A18288  16.534  17.052   9.077 -0.0174  0.0111 -0.1332
 1185loPI   C1B18289  16.433  17.569   7.077 -0.0973 -0.1743 -0.2936
 1185loPI   C2B18290  16.348  17.597   7.512  0.0613  0.0042 -0.1000
 1185loPI   C3B18291  16.463  17.631   7.907 -0.0394 -0.2762  0.0909
 1185loPI   C4B18292  16.525  17.611   8.381 -0.0135 -0.0953 -0.0234
 1186loPI    C118293   5.462  13.077   5.805 -0.2006  0.0316 -0.0629
 1186loPI    C218294   5.594  12.788   6.048 -0.0843  0.0176 -0.1420
 1186loPI    C318295   5.663  12.766   5.655  0.0278  0.2113 -0.1342
 1186loPI   PO418296   5.490  13.329   5.970 -0.1025 -0.1199  0.0057
 1186loPI   GL118297   5.378  13.529   6.364  0.1042  0.0068 -0.0846
 1186loPI   GL218298   5.575  13.282   6.578 -0.1417 -0.0500 -0.0730
 1186loPI   C1A18299   5.024  13.412   6.646 -0.0243 -0.0428 -0.1051
 1186loPI   C2A18300   4.901  13.269   7.043  0.2407  0.0651  0.1540
 1186loPI   C3A18301   4.982  13.256   7.382  0.1128 -0.1680 -0.0563
 1186loPI   C4A18302   4.939  13.258   7.862 -0.4506 -0.0151  0.0600
 1186loPI   C5A18303   4.830  13.157   8.235 -0.3070  0.1527  0.0112
 1186loPI   C6A18304   4.674  12.809   8.485 -0.3239 -0.0895 -0.0279
 1186loPI   C1B18305   5.488  13.329   7.102  0.3384 -0.0553 -0.0721
 1186loPI   C2B18306   5.444  13.344   7.550  0.1252 -0.1667  0.3590
 1186loPI   C3B18307   5.442  13.362   8.000 -0.1060 -0.1980  0.1726
 1186loPI   C4B18308   5.438  13.464   8.432  0.0347  0.2019  0.1352
 1187loPI    C118309   1.083   0.412   5.393 -0.1300  0.0525 -0.0195
 1187loPI    C218310   0.722   0.261   5.306 -0.1380  0.0148  0.0778
 1187loPI    C318311   0.909   0.499   5.044 -0.0871 -0.2326 -0.1144
 1187loPI   PO418312   1.045   0.383   5.724 -0.1143  0.1112  0.4111
 1187loPI   GL118313   1.059   0.519   6.198  0.2303 -0.2107 -0.0888
 1187loPI   GL218314   1.241   0.348   6.346  0.1424 -0.2411 -0.1044
 1187loPI   C1A18315   0.919   0.658   6.592 -0.0681  0.0763 -0.1128
 1187loPI   C2A18316   0.892   0.605   7.021  0.1253 -0.0565  0.1345
 1187loPI   C3A18317   0.797   0.638   7.439 -0.0892  0.0655 -0.1946
 1187loPI   C4A18318   0.894   0.725   7.868  0.2284 -0.0381 -0.0852
 1187loPI   C5A18319   0.871   0.664   8.247  0.2065  0.0121 -0.0209
 1187loPI   C6A18320   0.903   0.580   8.741  0.0880 -0.1574  0.0411
 1187loPI   C1B18321   1.177   0.279   6.854  0.0217  0.2582  0.0845
 1187loPI   C2B18322   1.122   0.152   7.278 -0.0081 -0.2092 -0.2077
 1187loPI   C3B18323   1.128   0.287   7.634 -0.1618  0.2551  0.0044
 1187loPI   C4B18324   1.063   0.246   8.062 -0.1500  0.0199 -0.0901
 1188loPI    C118325   8.585  14.048   6.060  0.0021 -0.1555  0.1067
 1188loPI    C218326   8.559  14.186   5.686  0.0461  0.1408  0.2107
 1188loPI    C318327   8.607  13.795   5.751  0.1177  0.0962 -0.0949
 1188loPI   PO418328   8.796  14.138   6.282  0.1027  0.0381  0.1566
 1188loPI   GL118329   8.935  14.357   6.599  0.0288  0.0298  0.0482
 1188loPI   GL218330   8.951  13.947   6.702  0.0610  0.0712 -0.0461
 1188loPI   C1A18331   9.110  14.552   6.859  0.0502 -0.1267 -0.1812
 1188loPI   C2A18332   9.197  14.626   7.283  0.0295 -0.3741  0.1478
 1188loPI   C3A18333   9.276  14.626   7.733 -0.1204 -0.1820  0.1256
 1188loPI   C4A18334   9.403  14.600   8.177  0.1289 -0.0350  0.3648
 1188loPI   C5A18335   9.360  14.671   8.527 -0.0133  0.2436  0.2251
 1188loPI   C6A18336   9.213  14.692   8.909  0.0600 -0.2776  0.0011
 1188loPI   C1B18337   8.932  14.208   7.167 -0.1009 -0.1412 -0.3404
 1188loPI   C2B18338   8.883  14.164   7.596 -0.0060 -0.0781  0.0824
 1188loPI   C3B18339   9.105  14.168   7.906  0.1685 -0.2462 -0.0930
 1188loPI   C4B18340   9.326  14.035   8.323  0.1401  0.2525  0.2033
 1189loPI    C118341  15.556   2.266   6.117 -0.1811 -0.0488  0.0153
 1189loPI    C218342  15.430   1.935   5.930  0.0922 -0.1257 -0.0363
 1189loPI    C318343  15.737   2.144   5.782  0.0965 -0.0006  0.1455
 1189loPI   PO418344  15.497   2.151   6.447 -0.1713  0.0933 -0.1503
 1189loPI   GL118345  15.307   1.880   6.818  0.1299  0.1159  0.3265
 1189loPI   GL218346  15.014   1.951   6.525 -0.0993  0.1703  0.2524
 1189loPI   C1A18347  15.268   1.944   7.166  0.1011  0.1287  0.1876
 1189loPI   C2A18348  15.278   1.937   7.599 -0.1833 -0.0157  0.1311
 1189loPI   C3A18349  15.431   1.817   7.945 -0.2194 -0.0107 -0.0966
 1189loPI   C4A18350  15.325   1.827   8.398  0.0775  0.0414 -0.2431
 1189loPI   C5A18351  15.041   1.795   8.704  0.3305  0.3046  0.2123
 1189loPI   C6A18352  14.617   1.726   8.882  0.1972 -0.1277 -0.1728
 1189loPI   C1B18353  14.847   2.030   6.937 -0.0107 -0.2816 -0.2527
 1189loPI   C2B18354  14.772   1.956   7.416  0.1480 -0.1991  0.1750
 1189loPI   C3B18355  14.841   1.840   7.808  0.1972 -0.1542 -0.1838
 1189loPI   C4B18356  14.831   1.847   8.240 -0.1323 -0.3548 -0.0153
 1190loPI    C118357   2.014   2.620   5.845 -0.2104 -0.0361  0.1585
 1190loPI    C218358   1.682   2.588   5.624 -0.1046  0.1247 -0.0270
 1190loPI    C318359   1.979   2.829   5.506  0.2527 -0.3271 -0.0802
 1190loPI   PO418360   2.085   2.395   5.984  0.0865  0.0347  0.0322
 1190loPI   GL118361   2.040   2.480   6.387  0.0693 -0.0234 -0.1393
 1190loPI   GL218362   2.348   2.493   6.382 -0.0574 -0.2137 -0.1104
 1190loPI   C1A18363   1.751   2.491   6.649 -0.0816 -0.1138 -0.1062
 1190loPI   C2A18364   1.834   2.546   7.099  0.1803 -0.1209 -0.0282
 1190loPI   C3A18365   1.760   2.536   7.498 -0.0536 -0.1172 -0.0651
 1190loPI   C4A18366   1.834   2.567   7.948  0.0965 -0.0223  0.2909
 1190loPI   C5A18367   1.829   2.556   8.407 -0.1368 -0.0732  0.0432
 1190loPI   C6A18368   1.641   2.286   8.618  0.3074 -0.0280 -0.2947
 1190loPI   C1B18369   2.315   2.468   6.818  0.3238 -0.1807  0.2142
 1190loPI   C2B18370   2.252   2.420   7.251 -0.0701  0.1563 -0.0157
 1190loPI   C3B18371   2.311   2.534   7.584  0.1863 -0.1119  0.0863
 1190loPI   C4B18372   2.301   2.521   8.053  0.3057 -0.2076 -0.3463
 1191loPI    C118373  16.567   0.105   6.140 -0.0480  0.0886  0.0037
 1191loPI    C218374  16.775   0.211   5.816 -0.1547  0.0226 -0.0874
 1191loPI    C318375  16.392   0.320   5.852 -0.1322  0.0630  0.0352
 1191loPI   PO418376  16.801   0.129   6.329  0.3092 -0.4248  0.2593
 1191loPI   GL118377  16.865   0.138   6.756  0.1339  0.0627 -0.2573
 1191loPI   GL218378  17.192   0.216   6.694  0.0932 -0.1031 -0.2826
 1191loPI   C1A18379  16.949   0.119   7.146 -0.0286  0.2667 -0.1778
 1191loPI   C2A18380  16.967   0.198   7.607  0.0757 -0.2680 -0.1078
 1191loPI   C3A18381  16.953   0.190   8.019 -0.2434  0.2246 -0.1228
 1191loPI   C4A18382  17.007   0.118   8.421 -0.2961 -0.4542  0.3704
 1191loPI   C5A18383  16.799   0.301   8.767  0.2870 -0.2987 -0.3022
 1191loPI   C6A18384  16.690   0.617   8.997  0.1875 -0.2375 -0.1253
 1191loPI   C1B18385  17.517   0.144   7.006  0.2373  0.2181  0.0923
 1191loPI   C2B18386  17.565   0.251   7.524 -0.0808  0.0741 -0.0530
 1191loPI   C3B18387  17.498   0.161   7.950 -0.0448 -0.1067  0.1098
 1191loPI   C4B18388  17.590   0.065   8.430 -0.1543 -0.0286  0.1004
 1192loPI    C118389   9.312  13.537   6.194 -0.2450  0.0993 -0.1332
 1192loPI    C218390   9.241  13.926   6.251 -0.0108  0.1110  0.0935
 1192loPI    C318391   9.439  13.805   5.925 -0.1325  0.1757 -0.0051
 1192loPI   PO418392   9.328  13.447   6.351 -0.0583 -0.0947  0.2902
 1192loPI   GL118393   9.096  13.472   6.647 -0.0794  0.1163 -0.2268
 1192loPI   GL218394   9.338  13.672   6.771  0.0091  0.0680 -0.1953
 1192loPI   C1A18395   8.735  13.567   7.008  0.2829  0.1406  0.0186
 1192loPI   C2A18396   8.736  13.722   7.347 -0.0351  0.3212  0.3250
 1192loPI   C3A18397   8.742  13.602   7.807 -0.1543  0.1417  0.0914
 1192loPI   C4A18398   8.469  13.683   8.152  0.1261  0.0379  0.2724
 1192loPI   C5A18399   8.396  13.717   8.589 -0.1730  0.0911  0.2156
 1192loPI   C6A18400   8.851  13.697   8.775  0.1437 -0.2627  0.0430
 1192loPI   C1B18401   9.247  13.669   7.189  0.1422 -0.0257  0.1620
 1192loPI   C2B18402   9.234  13.742   7.648 -0.1010 -0.1100 -0.0050
 1192loPI   C3B18403   9.250  13.593   8.033  0.1136 -0.2276  0.0228
 1192loPI   C4B18404   8.976  13.669   8.311 -0.0199 -0.0266  0.0926
 1193loPI    C118405   9.819   2.972   5.789 -0.0029  0.1889 -0.1208
 1193loPI    C218406   9.834   2.688   5.508 -0.1359 -0.0139  0.0739
 1193loPI    C318407   9.771   3.069   5.404 -0.0410 -0.0660 -0.1821
 1193loPI   PO418408  10.005   2.847   5.973 -0.0381  0.1994 -0.3382
 1193loPI   GL118409   9.987   2.749   6.439 -0.1152  0.0407  0.0190
 1193loPI   GL218410   9.696   2.592   6.611 -0.3713  0.5161  0.3076
 1193loPI   C1A18411  10.210   2.650   6.740 -0.2225  0.0411 -0.0550
 1193loPI   C2A18412  10.158   2.688   7.199 -0.0990 -0.0616  0.4338
 1193loPI   C3A18413  10.149   2.705   7.639  0.1205  0.0826 -0.2639
 1193loPI   C4A18414  10.071   2.615   7.982 -0.0109  0.1463  0.0185
 1193loPI   C5A18415  10.224   2.688   8.420 -0.0150  0.1286  0.0571
 1193loPI   C6A18416  10.358   2.497   8.799  0.0142 -0.3825 -0.2011
 1193loPI   C1B18417   9.694   2.685   6.960  0.1341  0.0943  0.1377
 1193loPI   C2B18418   9.626   2.620   7.405  0.1616 -0.2306  0.0054
 1193loPI   C3B18419   9.643   2.694   7.796  0.3194  0.1887  0.0929
 1193loPI   C4B18420   9.593   2.604   8.210  0.0845  0.1606  0.1772
 1194loPI    C118421  16.867   6.690   5.904 -0.1752  0.1426  0.1091
 1194loPI    C218422  16.808   6.999   5.656 -0.0492  0.1714  0.1146
 1194loPI    C318423  16.907   6.640   5.510  0.0095  0.1845  0.1218
 1194loPI   PO418424  16.960   6.728   6.123 -0.0677  0.1435 -0.1986
 1194loPI   GL118425  16.817   6.745   6.439 -0.2300 -0.0451 -0.3094
 1194loPI   GL218426  16.577   6.870   6.601  0.2629  0.1845 -0.0661
 1194loPI   C1A18427  16.860   6.562   6.798  0.0862  0.2099  0.0613
 1194loPI   C2A18428  16.854   6.527   7.253  0.2774 -0.1074  0.0005
 1194loPI   C3A18429  16.796   6.614   7.642  0.0970  0.0138  0.1183
 1194loPI   C4A18430  16.781   6.543   8.126 -0.0708 -0.1993 -0.1803
 1194loPI   C5A18431  16.678   6.632   8.625 -0.0754 -0.0220  0.0373
 1194loPI   C6A18432  16.882   6.857   9.057  0.0632  0.1224 -0.2537
 1194loPI   C1B18433  16.581   7.037   7.043 -0.2481 -0.0490  0.0417
 1194loPI   C2B18434  16.557   7.046   7.530  0.0799  0.3043  0.0773
 1194loPI   C3B18435  16.467   7.049   7.926 -0.1075  0.3704 -0.2088
 1194loPI   C4B18436  16.399   6.956   8.308 -0.4052 -0.1219 -0.0620
 1195loPI    C118437   5.663  15.100   6.125  0.0916 -0.2387 -0.1944
 1195loPI    C218438   5.343  14.918   5.969 -0.1291  0.0688 -0.1105
 1195loPI    C318439   5.510  15.227   5.778 -0.0333  0.0668 -0.0305
 1195loPI   PO418440   5.743  15.030   6.361 -0.2519 -0.2184 -0.0241
 1195loPI   GL118441   5.833  15.144   6.688  0.1272 -0.1411 -0.1826
 1195loPI   GL218442   6.158  15.141   6.722 -0.0142  0.0107  0.0290
 1195loPI   C1A18443   5.926  15.144   7.171  0.0634  0.0727 -0.0420
 1195loPI   C2A18444   5.855  15.170   7.605  0.1893  0.0775  0.0944
 1195loPI   C3A18445   5.814  15.135   8.044 -0.2408  0.1298 -0.1148
 1195loPI   C4A18446   5.920  15.041   8.419  0.0307 -0.1360  0.0857
 1195loPI   C5A18447   5.714  14.924   8.818 -0.1596 -0.0355  0.2807
 1195loPI   C6A18448   5.366  14.804   8.638  0.1055  0.1423 -0.2583
 1195loPI   C1B18449   6.400  15.107   7.080 -0.4692 -0.1787  0.1616
 1195loPI   C2B18450   6.368  15.126   7.590 -0.0750 -0.2748  0.1642
 1195loPI   C3B18451   6.469  15.152   8.041 -0.3716 -0.1969 -0.0077
 1195loPI   C4B18452   6.425  15.196   8.464 -0.0160 -0.1705  0.2115
 1196loPI    C118453  12.681  14.402   5.781 -0.1444  0.0556 -0.1580
 1196loPI    C218454  12.985  14.464   5.528 -0.1053 -0.0829 -0.1456
 1196loPI    C318455  12.975  14.132   5.752 -0.0131  0.1521  0.2160
 1196loPI   PO418456  12.689  14.601   5.924  0.2419  0.0180  0.0553
 1196loPI   GL118457  12.778  14.870   6.350  0.2366  0.2661  0.2207
 1196loPI   GL218458  12.594  15.112   6.504  0.1576  0.1038  0.0873
 1196loPI   C1A18459  12.845  14.704   6.867  0.1127  0.3710 -0.0549
 1196loPI   C2A18460  12.858  14.804   7.282  0.1286 -0.0955  0.2391
 1196loPI   C3A18461  12.906  14.723   7.695  0.0855 -0.1180 -0.2138
 1196loPI   C4A18462  12.973  14.665   8.057  0.1181 -0.0028  0.1115
 1196loPI   C5A18463  12.858  14.786   8.451 -0.1257 -0.2165 -0.3511
 1196loPI   C6A18464  13.128  15.011   8.792  0.2452  0.2509 -0.3991
 1196loPI   C1B18465  12.662  15.207   6.941  0.0785  0.4405 -0.2244
 1196loPI   C2B18466  12.530  15.163   7.374  0.1322 -0.2539 -0.0076
 1196loPI   C3B18467  12.604  15.205   7.756 -0.0676  0.1454 -0.1956
 1196loPI   C4B18468  12.683  15.178   8.113 -0.0384 -0.0712  0.1721
 1197loPI    C118469  16.655  14.758   6.142  0.0980  0.1951 -0.0164
 1197loPI    C218470  16.605  14.410   5.951  0.1493  0.1169  0.1112
 1197loPI    C318471  16.359  14.716   5.877 -0.0358 -0.0174  0.1623
 1197loPI   PO418472  16.648  14.744   6.392  0.2809 -0.4257  0.1501
 1197loPI   GL118473  16.551  14.513   6.697 -0.1466 -0.1173 -0.0605
 1197loPI   GL218474  16.813  14.341   6.851  0.2067  0.1154  0.2665
 1197loPI   C1A18475  16.595  14.707   7.144 -0.0489  0.0737 -0.1762
 1197loPI   C2A18476  16.607  14.688   7.623  0.2418 -0.0616  0.2430
 1197loPI   C3A18477  16.518  14.894   8.017 -0.2027  0.1039  0.3323
 1197loPI   C4A18478  16.562  14.681   8.456 -0.0775  0.3924 -0.0909
 1197loPI   C5A18479  16.575  14.652   8.959  0.3290  0.0941 -0.0664
 1197loPI   C6A18480  16.575  14.650   9.407  0.1282 -0.1591 -0.1186
 1197loPI   C1B18481  16.780  14.253   7.342 -0.2492 -0.0047  0.0440
 1197loPI   C2B18482  16.859  14.210   7.815 -0.2006  0.0115  0.0938
 1197loPI   C3B18483  16.679  14.227   8.232  0.1598 -0.2208 -0.1483
 1197loPI   C4B18484  16.672  14.215   8.742 -0.0413  0.1321 -0.0589
 1198loPI    C118485   6.145   5.766   5.711  0.0212  0.0394  0.1044
 1198loPI    C218486   6.143   6.158   5.636  0.0001  0.0610  0.2161
 1198loPI    C318487   6.433   5.928   5.486 -0.1935  0.0561 -0.1625
 1198loPI   PO418488   6.114   5.732   5.977  0.2397  0.1702  0.0887
 1198loPI   GL118489   6.397   5.774   6.336  0.4044 -0.0771  0.1904
 1198loPI   GL218490   6.209   5.941   6.445 -0.3393  0.0318  0.2519
 1198loPI   C1A18491   6.702   5.811   6.738 -0.1283 -0.2914 -0.1476
 1198loPI   C2A18492   6.655   5.821   7.106  0.2208  0.0036  0.1095
 1198loPI   C3A18493   6.704   5.825   7.527 -0.2240 -0.2248 -0.2193
 1198loPI   C4A18494   6.597   5.867   7.999 -0.1934  0.1580 -0.1277
 1198loPI   C5A18495   6.665   5.714   8.375  0.0048  0.0608 -0.0183
 1198loPI   C6A18496   6.793   5.583   8.847  0.0012 -0.1054  0.3751
 1198loPI   C1B18497   6.187   5.883   6.840  0.0266  0.2007 -0.1879
 1198loPI   C2B18498   6.209   5.731   7.263 -0.0739 -0.2902  0.1674
 1198loPI   C3B18499   6.195   5.794   7.739  0.0646 -0.1075  0.2382
 1198loPI   C4B18500   6.073   5.760   8.167 -0.1046 -0.0413 -0.0914
 1199loPI    C118501  12.537  10.018   5.745 -0.3315  0.1858  0.2842
 1199loPI    C218502  12.431  10.342   5.535 -0.0898  0.1073  0.0365
 1199loPI    C318503  12.460   9.986   5.354  0.0185  0.0184  0.2256
 1199loPI   PO418504  12.433  10.021   5.932  0.0194  0.2898 -0.1042
 1199loPI   GL118505  12.250  10.093   6.363 -0.1436 -0.1060  0.0162
 1199loPI   GL218506  12.582   9.958   6.372 -0.1009  0.0249 -0.0750
 1199loPI   C1A18507  12.066  10.016   6.800 -0.1792 -0.2060 -0.0400
 1199loPI   C2A18508  11.963   9.971   7.228 -0.0836  0.0757  0.2464
 1199loPI   C3A18509  12.017  10.129   7.602 -0.0385  0.1377  0.0543
 1199loPI   C4A18510  11.892  10.076   7.951 -0.3905 -0.2613 -0.1624
 1199loPI   C5A18511  12.057  10.278   8.418  0.1303 -0.1148  0.0904
 1199loPI   C6A18512  12.122  10.571   8.738  0.2077  0.0041 -0.0333
 1199loPI   C1B18513  12.555  10.083   6.841 -0.2246  0.0161 -0.0941
 1199loPI   C2B18514  12.463  10.040   7.273 -0.3117  0.0877 -0.0251
 1199loPI   C3B18515  12.478  10.127   7.726  0.0120 -0.0501 -0.0727
 1199loPI   C4B18516  12.509   9.997   8.136 -0.0612 -0.1979  0.0295
 1200loPI    C118517   1.108  15.732   5.781 -0.1069  0.0332 -0.3841
 1200loPI    C218518   0.832  16.020   5.805 -0.0209  0.1018 -0.1999
 1200loPI    C318519   1.101  16.025   5.509 -0.0266  0.2045 -0.2036
 1200loPI   PO418520   1.087  15.588   6.019 -0.3303  0.0396  0.0110
 1200loPI   GL118521   1.226  15.694   6.503 -0.0378  0.0747  0.0859
 1200loPI   GL218522   0.906  15.533   6.563  0.0457  0.1253  0.2248
 1200loPI   C1A18523   1.158  15.810   6.926  0.0912 -0.2955  0.0559
 1200loPI   C2A18524   1.194  15.894   7.316  0.2122 -0.1985  0.5187
 1200loPI   C3A18525   1.183  15.723   7.710 -0.1754 -0.0955 -0.0992
 1200loPI   C4A18526   1.097  15.778   8.154 -0.2938 -0.0359  0.3054
 1200loPI   C5A18527   0.934  15.718   8.518  0.2107 -0.1732  0.0275
 1200loPI   C6A18528   0.708  16.007   8.804  0.4214  0.2677 -0.0616
 1200loPI   C1B18529   0.888  15.413   6.913  0.0909 -0.2033 -0.1805
 1200loPI   C2B18530   0.942  15.401   7.339  0.0737  0.2897  0.0217
 1200loPI   C3B18531   0.864  15.334   7.809 -0.2069  0.2146 -0.0154
 1200loPI   C4B18532   0.901  15.281   8.224 -0.0066  0.3741  0.2882
 1201loPI    C118533   1.329   6.791   5.585 -0.3350  0.0884  0.1361
 1201loPI    C218534   1.046   6.516   5.518 -0.1458 -0.1214  0.1856
 1201loPI    C318535   1.257   6.665   5.212 -0.4677  0.2125  0.1189
 1201loPI   PO418536   1.284   6.961   5.782 -0.1140  0.0015 -0.4013
 1201loPI   GL118537   1.304   7.004   6.238  0.0849 -0.0727  0.2978
 1201loPI   GL218538   1.130   7.119   6.436  0.0790 -0.1422  0.1810
 1201loPI   C1A18539   1.547   6.644   6.581 -0.0160 -0.2796  0.0689
 1201loPI   C2A18540   1.587   6.513   7.062  0.2125  0.1150 -0.0093
 1201loPI   C3A18541   1.488   6.571   7.468 -0.1099 -0.1018 -0.4053
 1201loPI   C4A18542   1.372   6.679   8.039 -0.0964  0.1803 -0.1809
 1201loPI   C5A18543   1.444   6.894   8.456  0.0407 -0.0148 -0.1618
 1201loPI   C6A18544   1.535   6.976   8.959 -0.2438 -0.2821  0.1110
 1201loPI   C1B18545   1.154   7.027   6.899  0.2630  0.0465 -0.0776
 1201loPI   C2B18546   1.116   7.003   7.335 -0.1044 -0.0703 -0.0360
 1201loPI   C3B18547   1.118   7.045   7.708  0.0358 -0.1684  0.1006
 1201loPI   C4B18548   1.104   7.119   8.102  0.1372 -0.1231  0.0510
 1202loPI    C118549   5.967  17.013   5.886  0.2442 -0.0200  0.2483
 1202loPI    C218550   5.827  17.368   5.767 -0.0006 -0.1328  0.1932
 1202loPI    C318551   6.169  17.226   5.614 -0.0339 -0.0354  0.0253
 1202loPI   PO418552   5.986  16.993   6.137 -0.0471 -0.2625 -0.2649
 1202loPI   GL118553   6.145  17.151   6.527 -0.0470  0.1679  0.0848
 1202loPI   GL218554   5.865  16.931   6.652  0.0178 -0.1541 -0.3135
 1202loPI   C1A18555   6.115  17.247   6.935  0.0480  0.2581  0.3301
 1202loPI   C2A18556   6.112  17.400   7.342  0.2516  0.1846 -0.3590
 1202loPI   C3A18557   6.067  17.226   7.890 -0.1155  0.0416 -0.1168
 1202loPI   C4A18558   6.154  17.260   8.353  0.2271  0.2051  0.1419
 1202loPI   C5A18559   6.463  17.486   8.706 -0.0552 -0.0868 -0.1290
 1202loPI   C6A18560   6.844  17.392   8.783 -0.0699  0.0388  0.1963
 1202loPI   C1B18561   5.837  16.818   7.065 -0.0572  0.0449  0.2224
 1202loPI   C2B18562   5.903  16.905   7.531 -0.0192  0.1218 -0.0798
 1202loPI   C3B18563   5.823  16.817   7.925  0.0392  0.0863  0.2745
 1202loPI   C4B18564   5.689  16.931   8.349 -0.0186 -0.2110 -0.0068
 1203loPI    C118565  16.029  11.387   6.081 -0.1075 -0.1305 -0.0661
 1203loPI    C218566  16.053  11.545   5.714  0.0780 -0.1522 -0.0643
 1203loPI    C318567  16.054  11.147   5.761  0.2001 -0.1480 -0.0310
 1203loPI   PO418568  15.888  11.514   6.209  0.1771 -0.3125  0.2298
 1203loPI   GL118569  15.701  11.414   6.580 -0.3549  0.0384 -0.0525
 1203loPI   GL218570  15.403  11.365   6.597 -0.3958  0.0428 -0.1144
 1203loPI   C1A18571  15.727  11.165   6.942 -0.1092  0.0163 -0.0845
 1203loPI   C2A18572  15.671  10.987   7.370 -0.1103 -0.0788  0.4858
 1203loPI   C3A18573  15.645  11.021   7.738 -0.0782  0.0796 -0.1322
 1203loPI   C4A18574  15.535  11.049   8.116  0.0356  0.1015 -0.3448
 1203loPI   C5A18575  15.408  11.202   8.439  0.1395 -0.1169  0.1274
 1203loPI   C6A18576  15.262  11.391   8.825 -0.0272 -0.2645  0.0332
 1203loPI   C1B18577  15.447  11.518   7.117  0.2738  0.2692  0.1026
 1203loPI   C2B18578  15.393  11.434   7.649 -0.0345  0.3307  0.0335
 1203loPI   C3B18579  15.259  11.568   8.042 -0.0933 -0.0551  0.0822
 1203loPI   C4B18580  15.069  11.613   8.464  0.1116 -0.1339  0.1552
 1204loPI    C118581  14.042  16.914   6.106  0.0329  0.0530  0.1352
 1204loPI    C218582  14.195  16.546   6.066 -0.0643  0.0339 -0.0690
 1204loPI    C318583  14.038  16.734   5.749 -0.2228  0.1597  0.0820
 1204loPI   PO418584  14.186  17.021   6.228 -0.0120 -0.0719 -0.3622
 1204loPI   GL118585  14.152  16.973   6.686  0.2416  0.1478  0.2945
 1204loPI   GL218586  14.463  16.951   6.658 -0.3987  0.0566 -0.0511
 1204loPI   C1A18587  14.075  16.913   7.087  0.0384  0.0616 -0.1352
 1204loPI   C2A18588  14.141  17.026   7.540  0.2437 -0.2252 -0.2561
 1204loPI   C3A18589  14.102  17.137   7.889  0.1631 -0.0844 -0.2083
 1204loPI   C4A18590  14.161  17.097   8.321 -0.3022  0.2699  0.2135
 1204loPI   C5A18591  14.311  17.125   8.758  0.0259  0.0850 -0.1337
 1204loPI   C6A18592  14.686  17.328   8.748 -0.0778  0.2363 -0.2991
 1204loPI   C1B18593  14.559  17.025   7.049 -0.3045 -0.0562  0.1269
 1204loPI   C2B18594  14.672  17.106   7.444  0.0128 -0.0414 -0.1238
 1204loPI   C3B18595  14.629  17.162   7.915 -0.0666  0.1478 -0.0036
 1204loPI   C4B18596  14.693  17.027   8.279  0.0760  0.0735  0.1360
 1205loPI    C118597  13.713  15.310   5.934  0.0705 -0.3594  0.2122
 1205loPI    C218598  13.542  15.366   5.577 -0.2101 -0.3039  0.3526
 1205loPI    C318599  13.725  15.670   5.760 -0.1175 -0.3177  0.2839
 1205loPI   PO418600  13.528  15.179   6.100 -0.1142  0.3335 -0.0978
 1205loPI   GL118601  13.249  14.917   6.302 -0.0412 -0.1545 -0.0640
 1205loPI   GL218602  13.236  14.642   6.462  0.1206 -0.0817  0.2026
 1205loPI   C1A18603  13.158  15.127   6.686  0.0882  0.0839 -0.1196
 1205loPI   C2A18604  13.142  15.195   7.122  0.1091 -0.0762 -0.1685
 1205loPI   C3A18605  13.056  15.220   7.527  0.1361  0.0178 -0.2969
 1205loPI   C4A18606  13.207  15.183   8.023 -0.1564 -0.3449  0.1363
 1205loPI   C5A18607  13.385  14.995   8.381 -0.1468 -0.0399 -0.0638
 1205loPI   C6A18608  13.327  14.636   8.515  0.2065 -0.1381  0.0433
 1205loPI   C1B18609  13.397  14.725   6.883  0.5224 -0.0003  0.4992
 1205loPI   C2B18610  13.326  14.698   7.301  0.3105  0.0881 -0.0121
 1205loPI   C3B18611  13.379  14.773   7.635 -0.0204  0.0515 -0.1048
 1205loPI   C4B18612  13.535  14.661   7.983 -0.1904 -0.3805  0.0032
 1206loPI    C118613   8.717   2.606   5.782  0.1800  0.0513  0.0316
 1206loPI    C218614   8.948   2.801   5.520 -0.0053 -0.1049 -0.2538
 1206loPI    C318615   8.982   2.405   5.561  0.1922 -0.0524  0.1394
 1206loPI   PO418616   8.472   2.742   5.817 -0.1123  0.2170  0.0429
 1206loPI   GL118617   8.247   2.902   6.254 -0.0137  0.1153 -0.0357
 1206loPI   GL218618   8.510   2.763   6.346  0.0830  0.2892  0.1210
 1206loPI   C1A18619   8.289   3.096   6.669  0.1252  0.0969  0.0386
 1206loPI   C2A18620   8.414   3.113   7.102 -0.3288 -0.1929  0.1143
 1206loPI   C3A18621   8.382   3.099   7.588  0.0872 -0.0033  0.0722
 1206loPI   C4A18622   8.411   3.112   8.015  0.1655 -0.3512  0.0920
 1206loPI   C5A18623   8.348   2.956   8.445  0.1276  0.2647 -0.1950
 1206loPI   C6A18624   8.315   3.098   8.890  0.0154  0.0031 -0.0025
 1206loPI   C1B18625   8.665   2.689   6.684  0.0721 -0.2410  0.2521
 1206loPI   C2B18626   8.665   2.690   7.185 -0.1132 -0.2212  0.4531
 1206loPI   C3B18627   8.670   2.743   7.706  0.1120  0.2651  0.1100
 1206loPI   C4B18628   8.642   2.645   8.118 -0.1504  0.0066 -0.3515
 1207loPI    C118629   7.627   5.677   5.495 -0.0498  0.1418 -0.0596
 1207loPI    C218630   7.585   5.873   5.148  0.0107 -0.0665 -0.1865
 1207loPI    C318631   7.658   5.480   5.148  0.0162 -0.0672  0.0637
 1207loPI   PO418632   7.522   5.836   5.734  0.2885 -0.2512  0.2232
 1207loPI   GL118633   7.608   5.746   6.229 -0.2180  0.0808  0.0038
 1207loPI   GL218634   7.533   5.458   6.404  0.0545  0.3246 -0.1522
 1207loPI   C1A18635   7.696   5.832   6.634  0.0034 -0.0609  0.2764
 1207loPI   C2A18636   7.739   5.753   7.056 -0.1625  0.1398  0.0514
 1207loPI   C3A18637   7.701   5.808   7.485 -0.1680 -0.0574 -0.1339
 1207loPI   C4A18638   7.673   5.839   7.921 -0.1640 -0.0600  0.3325
 1207loPI   C5A18639   7.699   5.842   8.312  0.1642 -0.0739  0.2234
 1207loPI   C6A18640   7.710   5.618   8.709 -0.2525  0.1438  0.1598
 1207loPI   C1B18641   7.524   5.339   6.860 -0.1194  0.0545  0.1647
 1207loPI   C2B18642   7.524   5.362   7.299 -0.2269  0.2873  0.2168
 1207loPI   C3B18643   7.414   5.348   7.721 -0.3485  0.1620 -0.1654
 1207loPI   C4B18644   7.460   5.368   8.107  0.1034  0.2333 -0.1887
 1208loPI    C118645  10.587  16.130   5.837 -0.0877 -0.2871 -0.1025
 1208loPI    C218646  10.843  16.377   5.654 -0.1333 -0.0427  0.1557
 1208loPI    C318647  10.596  16.149   5.438  0.1731 -0.1469 -0.0923
 1208loPI   PO418648  10.540  16.317   6.092 -0.0794 -0.0926  0.0328
 1208loPI   GL118649  10.638  16.369   6.474  0.3196  0.1571  0.1096
 1208loPI   GL218650  10.505  16.647   6.508  0.1010 -0.1016  0.0255
 1208loPI   C1A18651  10.756  16.438   6.961 -0.0848 -0.0192  0.1736
 1208loPI   C2A18652  10.815  16.438   7.370  0.2182 -0.1153 -0.0759
 1208loPI   C3A18653  10.810  16.514   7.829  0.2623  0.0934  0.3007
 1208loPI   C4A18654  10.991  16.485   8.254  0.1571 -0.1867 -0.0488
 1208loPI   C5A18655  10.804  16.528   8.577 -0.2773 -0.0977  0.1417
 1208loPI   C6A18656  10.756  16.755   8.982 -0.2334 -0.0322  0.0397
 1208loPI   C1B18657  10.406  16.815   6.892  0.2468 -0.4443  0.4634
 1208loPI   C2B18658  10.398  16.925   7.360 -0.2934  0.1967 -0.1100
 1208loPI   C3B18659  10.495  16.954   7.842 -0.0053 -0.1718 -0.1574
 1208loPI   C4B18660  10.675  16.935   8.323  0.0686  0.0455  0.2356
 1209loPI    C118661  16.424  15.609   6.027  0.0005 -0.1154  0.0210
 1209loPI    C218662  16.423  15.234   5.890  0.1392 -0.1202  0.0307
 1209loPI    C318663  16.291  15.532   5.658  0.4532 -0.1165 -0.1479
 1209loPI   PO418664  16.277  15.543   6.369 -0.0152  0.0395 -0.2238
 1209loPI   GL118665  16.449  15.425   6.746 -0.2678 -0.3375  0.1927
 1209loPI   GL218666  16.379  15.012   6.725 -0.0133  0.0024 -0.0971
 1209loPI   C1A18667  16.400  15.582   7.253 -0.3111  0.0392  0.2171
 1209loPI   C2A18668  16.457  15.711   7.697  0.0649  0.4909 -0.0242
 1209loPI   C3A18669  16.440  15.803   8.116  0.1068  0.0514  0.2466
 1209loPI   C4A18670  16.496  15.784   8.598  0.0341 -0.1095  0.0148
 1209loPI   C5A18671  16.479  15.927   8.979 -0.0240  0.1361 -0.2372
 1209loPI   C6A18672  16.368  15.706   9.347  0.0573 -0.2039  0.5127
 1209loPI   C1B18673  16.298  15.130   7.169 -0.0198  0.0679  0.0705
 1209loPI   C2B18674  16.269  15.256   7.697 -0.3167  0.0059  0.2372
 1209loPI   C3B18675  16.255  15.318   8.121 -0.3877  0.0762 -0.0857
 1209loPI   C4B18676  16.274  15.171   8.582 -0.2838 -0.0636  0.0525
 1210loPI    C118677   6.867   3.062   5.597 -0.0673  0.3892  0.0884
 1210loPI    C218678   7.184   2.881   5.435 -0.2056  0.0523  0.1849
 1210loPI    C318679   6.918   3.066   5.200 -0.0206  0.2045  0.0919
 1210loPI   PO418680   6.948   3.058   5.852 -0.0224 -0.1965  0.0439
 1210loPI   GL118681   7.014   3.005   6.364 -0.1583 -0.0784 -0.0467
 1210loPI   GL218682   7.300   3.131   6.256 -0.1574  0.0380 -0.0346
 1210loPI   C1A18683   6.903   3.130   6.741  0.0782 -0.2454  0.0948
 1210loPI   C2A18684   6.616   3.172   7.142 -0.0539  0.1236 -0.2342
 1210loPI   C3A18685   6.705   3.160   7.612  0.1503  0.0088 -0.2493
 1210loPI   C4A18686   6.784   2.944   7.936 -0.0672 -0.1564 -0.2183
 1210loPI   C5A18687   7.121   2.969   8.280 -0.1748  0.1768 -0.1531
 1210loPI   C6A18688   7.357   2.666   8.517  0.0395  0.0961 -0.3598
 1210loPI   C1B18689   7.374   3.083   6.683  0.1263  0.0029  0.0187
 1210loPI   C2B18690   7.321   3.049   7.071 -0.4181 -0.0468 -0.0509
 1210loPI   C3B18691   7.507   3.111   7.381  0.1127 -0.0992 -0.1033
 1210loPI   C4B18692   7.185   3.103   7.707 -0.0100 -0.1219 -0.1484
 1211loPI    C118693   4.671  11.622   5.912  0.0415  0.1841  0.1008
 1211loPI    C218694   4.885  11.617   5.573 -0.0461  0.0580  0.0465
 1211loPI    C318695   4.493  11.539   5.563 -0.1012  0.3113  0.1426
 1211loPI   PO418696   4.942  11.581   6.079  0.1469 -0.0886  0.0659
 1211loPI   GL118697   5.153  11.648   6.434 -0.1790 -0.1320 -0.0371
 1211loPI   GL218698   4.969  11.926   6.443 -0.3091  0.1617 -0.2103
 1211loPI   C1A18699   5.061  11.345   6.716  0.1435  0.0305  0.1540
 1211loPI   C2A18700   5.048  11.530   7.164  0.2586 -0.0390 -0.1772
 1211loPI   C3A18701   5.076  11.522   7.624 -0.0183 -0.0263  0.0029
 1211loPI   C4A18702   5.115  11.495   8.014  0.1809 -0.1250  0.0556
 1211loPI   C5A18703   4.956  11.853   8.294 -0.1715 -0.0345 -0.2010
 1211loPI   C6A18704   4.814  12.274   8.420  0.2346 -0.2738 -0.0362
 1211loPI   C1B18705   4.878  11.875   6.767 -0.0126  0.0440 -0.1229
 1211loPI   C2B18706   4.794  11.906   7.165  0.0011  0.2998  0.0828
 1211loPI   C3B18707   4.693  11.934   7.490  0.1949  0.3753  0.0853
 1211loPI   C4B18708   4.777  11.893   7.819  0.2340  0.0406 -0.2463
 1212loPI    C118709  11.934   4.353   5.719  0.0678 -0.2089 -0.1535
 1212loPI    C218710  12.291   4.239   5.578  0.0822  0.0249 -0.3109
 1212loPI    C318711  11.957   4.137   5.383  0.0514 -0.3079 -0.0914
 1212loPI   PO418712  11.893   4.316   5.950 -0.1308 -0.2000  0.2197
 1212loPI   GL118713  11.939   4.205   6.266 -0.1430  0.0726  0.1903
 1212loPI   GL218714  11.856   4.514   6.383 -0.0580  0.0133 -0.0660
 1212loPI   C1A18715  12.032   4.005   6.654 -0.1819  0.0817 -0.0777
 1212loPI   C2A18716  12.060   4.081   7.081  0.0443  0.1322  0.1074
 1212loPI   C3A18717  12.001   4.110   7.501 -0.3930  0.2634  0.1544
 1212loPI   C4A18718  11.862   4.079   7.878 -0.0836  0.2143 -0.1470
 1212loPI   C5A18719  11.968   4.046   8.332  0.3073 -0.0179 -0.2752
 1212loPI   C6A18720  12.127   3.817   8.647 -0.0234  0.1995 -0.1791
 1212loPI   C1B18721  11.710   4.596   6.783 -0.0013  0.0903  0.1924
 1212loPI   C2B18722  11.701   4.468   7.235 -0.2577 -0.1643  0.2847
 1212loPI   C3B18723  11.687   4.503   7.672  0.1447 -0.0833 -0.2331
 1212loPI   C4B18724  11.686   4.460   8.170  0.1655 -0.0026  0.2097
 1213loPI    C118725   1.822   6.474   6.159  0.0344 -0.1392  0.1045
 1213loPI    C218726   1.770   6.167   5.908 -0.0820 -0.0602  0.0313
 1213loPI    C318727   1.494   6.456   5.931  0.1292  0.1519 -0.0598
 1213loPI   PO418728   2.090   6.552   6.136 -0.0045  0.0927  0.4368
 1213loPI   GL118729   2.302   6.471   6.541 -0.0570 -0.2605 -0.2180
 1213loPI   GL218730   2.574   6.508   6.625 -0.2272 -0.1219  0.0543
 1213loPI   C1A18731   2.063   6.479   6.906  0.1383  0.2546 -0.1547
 1213loPI   C2A18732   2.069   6.475   7.427  0.0478  0.2348 -0.1338
 1213loPI   C3A18733   1.875   6.619   7.840 -0.3485  0.1206 -0.1400
 1213loPI   C4A18734   1.844   6.675   8.248 -0.1033 -0.0849  0.0312
 1213loPI   C5A18735   1.817   6.682   8.725  0.3388 -0.0268  0.2320
 1213loPI   C6A18736   2.211   6.453   8.826 -0.2683  0.2882  0.2174
 1213loPI   C1B18737   2.487   6.580   7.111  0.2431 -0.1701 -0.1188
 1213loPI   C2B18738   2.562   6.579   7.522  0.0691 -0.0726 -0.1538
 1213loPI   C3B18739   2.372   6.552   7.880 -0.0146  0.0729 -0.0696
 1213loPI   C4B18740   2.366   6.545   8.303 -0.0039 -0.0101 -0.1433
 1214POPI    C118741  12.431  13.052   5.932 -0.0538  0.0724  0.0419
 1214POPI    C218742  12.324  13.383   5.734 -0.2253  0.0061  0.0215
 1214POPI    C318743  12.253  13.023   5.575 -0.2984 -0.0463  0.1707
 1214POPI   PO418744  12.349  13.059   6.113 -0.0716 -0.1640  0.0001
 1214POPI   GL118745  12.327  12.984   6.518 -0.2258 -0.1648  0.2155
 1214POPI   GL218746  12.550  12.798   6.585 -0.1599 -0.2183  0.0140
 1214POPI   C1A18747  11.983  12.868   6.855 -0.0020  0.1287 -0.0431
 1214POPI   D2A18748  11.803  12.781   7.304 -0.0038 -0.0741  0.1018
 1214POPI   C3A18749  11.873  12.855   7.749  0.1787  0.2575 -0.1615
 1214POPI   C4A18750  11.775  12.883   8.141 -0.1749 -0.2349  0.3887
 1214POPI   C1B18751  12.374  12.923   7.049 -0.0628  0.1893  0.2381
 1214POPI   C2B18752  12.343  12.837   7.548  0.0698 -0.1375 -0.0609
 1214POPI   C3B18753  12.302  12.893   7.982  0.0254 -0.1125 -0.1389
 1214POPI   C4B18754  12.273  12.844   8.441 -0.2368  0.0468 -0.0971
 1215POPI    C118755   3.009  17.265   5.899 -0.1014  0.0614  0.1425
 1215POPI    C218756   3.070  17.179   5.514 -0.2145  0.3714  0.0521
 1215POPI    C318757   2.704  17.144   5.670 -0.1272  0.0331  0.1915
 1215POPI   PO418758   3.220  17.121   6.052  0.3469  0.2079 -0.0158
 1215POPI   GL118759   3.382  17.046   6.497 -0.1205  0.3383 -0.2477
 1215POPI   GL218760   3.370  17.281   6.551  0.1390 -0.2360  0.1272
 1215POPI   C1A18761   3.618  16.767   6.837  0.0064  0.0197 -0.1583
 1215POPI   D2A18762   3.724  16.850   7.335 -0.1325  0.0866 -0.1170
 1215POPI   C3A18763   3.655  16.864   7.797 -0.1627 -0.0260 -0.0539
 1215POPI   C4A18764   3.673  16.874   8.240 -0.0411 -0.1677 -0.0048
 1215POPI   C1B18765   3.415  17.195   6.975  0.0907  0.0725 -0.0158
 1215POPI   C2B18766   3.381  17.202   7.469  0.0466 -0.0856 -0.2960
 1215POPI   C3B18767   3.396  17.304   7.932  0.0687 -0.3105 -0.0150
 1215POPI   C4B18768   3.429  17.267   8.407 -0.1125 -0.3494 -0.1392
 1216POPI    C118769   2.034  12.359   6.133  0.0809 -0.0910  0.0831
 1216POPI    C218770   1.789  12.352   5.817  0.1429 -0.2001  0.0369
 1216POPI    C318771   2.060  12.643   5.853  0.0820 -0.1424  0.0308
 1216POPI   PO418772   1.997  12.339   6.370  0.3847 -0.1512  0.0435
 1216POPI   GL118773   1.908  12.145   6.750 -0.2880  0.0136 -0.0076
 1216POPI   GL218774   1.783  11.853   6.818 -0.2007  0.0943 -0.0699
 1216POPI   C1A18775   1.844  12.341   7.108  0.1688 -0.3752 -0.2197
 1216POPI   D2A18776   1.902  12.264   7.574 -0.1190  0.0663  0.5343
 1216POPI   C3A18777   1.824  12.188   8.063  0.1794  0.1629  0.1276
 1216POPI   C4A18778   1.753  12.000   8.451  0.3734  0.1274  0.3394
 1216POPI   C1B18779   1.631  11.896   7.287 -0.0092  0.0223 -0.1483
 1216POPI   C2B18780   1.635  11.823   7.614 -0.1436 -0.6171  0.0051
 1216POPI   C3B18781   1.591  11.716   8.027 -0.0980 -0.2428  0.0787
 1216POPI   C4B18782   1.504  11.563   8.343  0.3271 -0.0779  0.0123
 1217POPI    C118783  14.187  15.682   5.839  0.0296 -0.0745 -0.1039
 1217POPI    C218784  14.070  15.353   5.645 -0.0449  0.0097 -0.2035
 1217POPI    C318785  14.306  15.619   5.462  0.0618 -0.0154 -0.1038
 1217POPI   PO418786  14.164  15.651   6.050  0.1828  0.3182  0.1108
 1217POPI   GL118787  14.177  15.811   6.415  0.3322 -0.0002  0.0600
 1217POPI   GL218788  14.014  15.486   6.516 -0.1032  0.0056 -0.0449
 1217POPI   C1A18789  14.200  16.010   6.851 -0.0418 -0.1399  0.0369
 1217POPI   D2A18790  14.119  16.082   7.237 -0.0039  0.1140  0.0560
 1217POPI   C3A18791  14.169  16.091   7.661  0.0745 -0.0912 -0.1236
 1217POPI   C4A18792  14.227  16.161   8.086  0.0031 -0.2277 -0.1989
 1217POPI   C1B18793  13.850  15.664   6.900 -0.1208 -0.1345 -0.0830
 1217POPI   C2B18794  13.833  15.652   7.307  0.2830  0.0171 -0.0768
 1217POPI   C3B18795  13.893  15.675   7.698  0.0480 -0.1279  0.0196
 1217POPI   C4B18796  13.932  15.696   8.128 -0.0616 -0.1454 -0.0064
 1218POPI    C118797   8.381   9.355   5.754 -0.0262  0.1140  0.1628
 1218POPI    C218798   8.350   9.749   5.692 -0.3078  0.0905  0.1387
 1218POPI    C318799   8.186   9.493   5.433  0.1491 -0.0536 -0.0183
 1218POPI   PO418800   8.299   9.305   6.037 -0.0334 -0.0847  0.2411
 1218POPI   GL118801   8.300   9.388   6.483  0.0921 -0.0642 -0.2996
 1218POPI   GL218802   8.324   9.717   6.628  0.0594  0.3453  0.1208
 1218POPI   C1A18803   8.065   9.352   6.883  0.2803  0.0742 -0.1074
 1218POPI   D2A18804   8.085   9.469   7.263 -0.4146  0.2864 -0.2327
 1218POPI   C3A18805   8.070   9.376   7.697 -0.1050 -0.0024  0.2177
 1218POPI   C4A18806   7.997   9.494   8.090 -0.2315  0.0170  0.0701
 1218POPI   C1B18807   8.404   9.853   7.023  0.1808  0.2168 -0.0642
 1218POPI   C2B18808   8.310   9.871   7.497 -0.0076 -0.1520  0.0681
 1218POPI   C3B18809   8.301   9.893   7.952  0.1407 -0.0846  0.0655
 1218POPI   C4B18810   8.204   9.856   8.447  0.1767  0.1312 -0.1938
 1219POPI    C118811   9.963  14.213   6.060 -0.0731  0.1491 -0.0380
 1219POPI    C218812   9.856  14.160   5.678  0.0987  0.0676 -0.0755
 1219POPI    C318813  10.003  14.512   5.798  0.0054  0.1065 -0.0747
 1219POPI   PO418814  10.227  14.075   6.222  0.0005  0.0154  0.1713
 1219POPI   GL118815  10.225  14.109   6.603  0.0756 -0.0801 -0.2861
 1219POPI   GL218816  10.512  13.950   6.647 -0.2129  0.2055  0.1786
 1219POPI   C1A18817   9.989  14.114   6.921 -0.0205 -0.0135  0.0629
 1219POPI   D2A18818  10.103  14.122   7.330  0.1639  0.2591  0.1369
 1219POPI   C3A18819  10.057  14.265   7.758 -0.2514  0.2194 -0.2124
 1219POPI   C4A18820   9.864  14.384   8.157 -0.0383 -0.3010 -0.3738
 1219POPI   C1B18821  10.499  14.101   7.001 -0.0161 -0.1061  0.0194
 1219POPI   C2B18822  10.604  14.107   7.318  0.1913 -0.0592  0.2616
 1219POPI   C3B18823  10.635  14.341   7.735 -0.2402 -0.2077  0.0060
 1219POPI   C4B18824  10.477  14.207   8.156 -0.4419  0.5045  0.2708
 1220POPI    C118825   2.999  14.042   6.124  0.0114  0.5239 -0.0974
 1220POPI    C218826   2.641  13.931   5.985  0.1780 -0.1825  0.0041
 1220POPI    C318827   2.973  13.826   5.788  0.3413  0.3898 -0.0410
 1220POPI   PO418828   2.951  14.044   6.350 -0.0695 -0.0842  0.1608
 1220POPI   GL118829   2.837  13.978   6.712  0.2437  0.3528  0.1558
 1220POPI   GL218830   2.689  13.651   6.775  0.2011  0.1150 -0.2240
 1220POPI   C1A18831   2.790  14.035   7.106 -0.2488 -0.3143 -0.0598
 1220POPI   D2A18832   2.871  14.095   7.547 -0.3792  0.0566  0.1248
 1220POPI   C3A18833   2.779  14.112   7.998  0.0149  0.1312 -0.2722
 1220POPI   C4A18834   2.733  13.975   8.334  0.2114 -0.2906  0.0754
 1220POPI   C1B18835   2.617  13.577   7.196 -0.0285  0.0774  0.0346
 1220POPI   C2B18836   2.593  13.661   7.558 -0.0882 -0.0300 -0.0196
 1220POPI   C3B18837   2.476  13.679   7.997 -0.0519  0.3505 -0.1850
 1220POPI   C4B18838   2.475  13.610   8.483  0.2439  0.0198 -0.0109
 1221POPI    C118839   4.397  13.063   5.758 -0.0050  0.1541  0.1960
 1221POPI    C218840   4.078  13.301   5.716  0.0512  0.2140  0.1050
 1221POPI    C318841   4.279  13.177   5.393 -0.1202 -0.1540  0.1343
 1221POPI   PO418842   4.219  12.783   5.928 -0.0431  0.0253 -0.1800
 1221POPI   GL118843   4.069  12.760   6.401  0.2539 -0.2739  0.2409
 1221POPI   GL218844   4.209  12.464   6.326 -0.0941 -0.1007  0.1435
 1221POPI   C1A18845   4.235  12.700   6.800 -0.1224 -0.3986  0.0300
 1221POPI   D2A18846   4.203  12.736   7.244 -0.1418 -0.0479  0.0660
 1221POPI   C3A18847   4.194  12.840   7.765  0.2294 -0.1004 -0.2249
 1221POPI   C4A18848   4.241  12.712   8.246 -0.2461 -0.0950  0.3299
 1221POPI   C1B18849   4.413  12.269   6.638  0.0583 -0.0856  0.0200
 1221POPI   C2B18850   4.550  12.352   7.091 -0.0358 -0.0389 -0.1813
 1221POPI   C3B18851   4.471  12.405   7.566  0.0288 -0.1764 -0.2349
 1221POPI   C4B18852   4.465  12.380   8.002  0.1666  0.1333  0.0824
 1222POPI    C118853  10.152   9.802   5.872 -0.2823 -0.0008  0.0429
 1222POPI    C218854  10.424   9.990   5.647 -0.0236 -0.3885  0.0213
 1222POPI    C318855  10.048   9.951   5.516 -0.0941  0.1372  0.0439
 1222POPI   PO418856  10.115  10.027   6.155 -0.0862  0.0263 -0.0035
 1222POPI   GL118857  10.110   9.937   6.628 -0.0177  0.1125  0.2968
 1222POPI   GL218858  10.419  10.039   6.553 -0.0252  0.1871 -0.2697
 1222POPI   C1A18859  10.024   9.984   7.060 -0.1666  0.1943  0.2980
 1222POPI   D2A18860   9.916   9.945   7.494 -0.0259  0.2232 -0.0843
 1222POPI   C3A18861   9.751   9.990   7.860  0.1042 -0.0296  0.1395
 1222POPI   C4A18862   9.787  10.096   8.279 -0.2096  0.0918 -0.0244
 1222POPI   C1B18863  10.553  10.062   6.965 -0.1016 -0.0548  0.2271
 1222POPI   C2B18864  10.382  10.076   7.417 -0.1329  0.0275  0.2198
 1222POPI   C3B18865  10.420  10.010   7.816 -0.1162 -0.0533 -0.0312
 1222POPI   C4B18866  10.268   9.899   8.170 -0.0588 -0.2680 -0.0269
 1223POPI    C118867  16.436  12.854   6.508 -0.3808 -0.1371  0.1989
 1223POPI    C218868  16.419  12.937   6.117  0.0312 -0.4294  0.1118
 1223POPI    C318869  16.211  13.158   6.378 -0.0710 -0.0895 -0.2481
 1223POPI   PO418870  16.669  12.687   6.542  0.3194 -0.0137 -0.3062
 1223POPI   GL118871  16.895  12.594   6.937 -0.0129  0.1649  0.3353
 1223POPI   GL218872  17.021  12.845   6.845  0.0248 -0.1338  0.1642
 1223POPI   C1A18873  16.934  12.528   7.420  0.1079  0.3924 -0.1366
 1223POPI   D2A18874  16.910  12.417   7.732 -0.2804 -0.1609  0.1646
 1223POPI   C3A18875  16.757  12.486   8.117 -0.5933  0.1405 -0.0037
 1223POPI   C4A18876  16.794  12.361   8.581 -0.0163  0.0288  0.0014
 1223POPI   C1B18877  17.131  12.951   7.267  0.1425 -0.1204  0.2686
 1223POPI   C2B18878  17.241  12.906   7.694  0.0476  0.0372  0.0969
 1223POPI   C3B18879  17.073  12.881   8.030  0.0411 -0.1018 -0.0063
 1223POPI   C4B18880  17.045  12.856   8.408  0.2369 -0.2041  0.1203
 1224POPI    C118881  11.378   5.844   5.974  0.0758 -0.0704 -0.1073
 1224POPI    C218882  11.397   5.793   5.578 -0.1931  0.1793 -0.1562
 1224POPI    C318883  11.458   6.155   5.736 -0.0199  0.0675  0.0382
 1224POPI   PO418884  11.462   5.576   6.106  0.1435  0.0746 -0.1898
 1224POPI   GL118885  11.299   5.370   6.427  0.2238  0.0371  0.0260
 1224POPI   GL218886  11.542   5.508   6.589 -0.2135 -0.2093  0.3224
 1224POPI   C1A18887  11.172   5.492   6.867  0.0885 -0.0624 -0.0085
 1224POPI   D2A18888  11.057   5.448   7.268 -0.1437  0.0225 -0.2032
 1224POPI   C3A18889  11.134   5.461   7.721 -0.0083 -0.1353 -0.0527
 1224POPI   C4A18890  11.044   5.350   8.106 -0.0363 -0.0025  0.1121
 1224POPI   C1B18891  11.662   5.535   7.057  0.0423  0.0133  0.1498
 1224POPI   C2B18892  11.626   5.467   7.536  0.0672  0.0365 -0.2442
 1224POPI   C3B18893  11.597   5.412   7.964  0.2558  0.0650  0.0498
 1224POPI   C4B18894  11.588   5.388   8.419 -0.0918  0.0687 -0.0167
 1225POPI    C118895  16.271  16.716   6.027  0.0884 -0.1056  0.0635
 1225POPI    C218896  16.465  16.725   5.677 -0.0426  0.1343 -0.0053
 1225POPI    C318897  16.336  16.377   5.825  0.0615  0.0250 -0.1683
 1225POPI   PO418898  16.397  16.877   6.217  0.2275 -0.0979 -0.1880
 1225POPI   GL118899  16.743  16.821   6.480 -0.1830 -0.0246  0.0260
 1225POPI   GL218900  16.892  17.074   6.505 -0.1510 -0.0695 -0.0495
 1225POPI   C1A18901  16.869  16.609   6.901 -0.1708  0.1421  0.0027
 1225POPI   D2A18902  17.012  16.781   7.315  0.0418 -0.0506  0.0456
 1225POPI   C3A18903  16.968  16.707   7.711 -0.0259  0.0128 -0.2693
 1225POPI   C4A18904  17.017  16.673   8.226 -0.0856  0.2719 -0.0573
 1225POPI   C1B18905  16.645  17.073   6.890  0.2637 -0.0396  0.1772
 1225POPI   C2B18906  16.724  17.163   7.368  0.0052 -0.1024 -0.1383
 1225POPI   C3B18907  16.735  17.171   7.841  0.2061 -0.3057 -0.0608
 1225POPI   C4B18908  16.799  17.108   8.320  0.2026  0.1414 -0.0157
 1226POPI    C118909  15.420  16.154   5.960  0.2224 -0.1383  0.2009
 1226POPI    C218910  15.565  15.838   5.762  0.0581 -0.0932  0.0056
 1226POPI    C318911  15.586  16.203   5.600 -0.0286 -0.0476  0.0952
 1226POPI   PO418912  15.501  16.070   6.249  0.1511 -0.0084  0.1569
 1226POPI   GL118913  15.518  16.168   6.692 -0.3940  0.0204  0.0885
 1226POPI   GL218914  15.593  16.315   6.963  0.1925  0.0489  0.0116
 1226POPI   C1A18915  15.166  16.122   7.125  0.0589  0.1957  0.0070
 1226POPI   D2A18916  15.145  16.225   7.566  0.1655  0.2812  0.0646
 1226POPI   C3A18917  15.289  16.160   7.999  0.3906 -0.1244  0.0017
 1226POPI   C4A18918  15.268  16.054   8.427 -0.1342  0.0418  0.1708
 1226POPI   C1B18919  15.650  16.152   7.426  0.1059  0.1744  0.1825
 1226POPI   C2B18920  15.735  16.191   7.845  0.1812  0.0360 -0.3108
 1226POPI   C3B18921  15.732  16.297   8.275  0.0216  0.0874 -0.1715
 1226POPI   C4B18922  15.704  16.089   8.630  0.0079 -0.0910 -0.1020
 1227POPI    C118923  11.187  11.853   5.624 -0.3172 -0.0571 -0.1373
 1227POPI    C218924  11.164  11.944   5.235  0.1327  0.0057 -0.1544
 1227POPI    C318925  11.165  11.561   5.351 -0.0293 -0.0127 -0.2114
 1227POPI   PO418926  11.019  12.070   5.770  0.1268 -0.2075  0.1694
 1227POPI   GL118927  11.063  12.082   6.198 -0.1865  0.0720  0.3724
 1227POPI   GL218928  11.286  11.864   6.192  0.1106 -0.0843  0.1468
 1227POPI   C1A18929  10.993  11.907   6.646  0.1353  0.0351  0.1628
 1227POPI   D2A18930  10.872  11.757   6.978  0.0393  0.3555 -0.2448
 1227POPI   C3A18931  10.889  11.839   7.419  0.1676  0.0567  0.0219
 1227POPI   C4A18932  10.857  11.805   7.879  0.3300 -0.3987  0.1640
 1227POPI   C1B18933  11.466  11.897   6.633 -0.2710  0.0720 -0.0212
 1227POPI   C2B18934  11.547  11.830   7.044  0.1780  0.0076 -0.0145
 1227POPI   C3B18935  11.396  11.934   7.462  0.0892  0.1932  0.2270
 1227POPI   C4B18936  11.357  11.929   8.016 -0.0200  0.0502  0.2332
 1228POPI    C118937  15.755   6.026   5.942 -0.3848  0.1097 -0.1023
 1228POPI    C218938  15.897   6.286   5.673  0.1163  0.0465  0.0906
 1228POPI    C318939  15.831   5.906   5.568  0.2559  0.0356  0.0414
 1228POPI   PO418940  15.517   6.187   6.099 -0.2063  0.2594 -0.1573
 1228POPI   GL118941  15.197   6.091   6.493  0.1715 -0.2138  0.0846
 1228POPI   GL218942  14.815   6.225   6.463 -0.0966 -0.2352  0.2560
 1228POPI   C1A18943  15.424   5.967   6.909 -0.0232 -0.0353  0.0988
 1228POPI   D2A18944  15.518   6.132   7.429  0.1138 -0.0796  0.2554
 1228POPI   C3A18945  15.480   6.002   7.858  0.0148 -0.2713 -0.0508
 1228POPI   C4A18946  15.388   6.062   8.326 -0.2125  0.0096 -0.0638
 1228POPI   C1B18947  14.978   6.123   6.927 -0.0565 -0.2758  0.1862
 1228POPI   C2B18948  15.072   5.921   7.261  0.3379 -0.1895 -0.1704
 1228POPI   C3B18949  14.981   6.000   7.619  0.2884  0.0985 -0.0776
 1228POPI   C4B18950  14.971   5.997   8.084  0.0597  0.1355 -0.0169
 1229POPI    C118951   3.409   7.391   5.886  0.0387  0.3254 -0.3203
 1229POPI    C218952   3.401   7.128   5.585 -0.1279 -0.0607  0.0123
 1229POPI    C318953   3.087   7.366   5.651 -0.1859 -0.1392  0.0214
 1229POPI   PO418954   3.617   7.524   5.923  0.0399 -0.0562  0.0643
 1229POPI   GL118955   3.780   7.612   6.350  0.0983 -0.2029 -0.1810
 1229POPI   GL218956   3.791   7.806   6.496  0.1049 -0.0271  0.1516
 1229POPI   C1A18957   4.004   7.491   6.783 -0.1430  0.0801  0.1548
 1229POPI   D2A18958   3.947   7.466   7.199  0.2340 -0.3230 -0.1705
 1229POPI   C3A18959   3.934   7.527   7.552  0.0467 -0.1359 -0.0317
 1229POPI   C4A18960   3.980   7.514   8.014  0.0520 -0.0964 -0.1339
 1229POPI   C1B18961   3.748   7.880   6.983  0.2067  0.0038  0.1794
 1229POPI   C2B18962   3.700   7.883   7.296  0.1079  0.0594  0.0668
 1229POPI   C3B18963   3.730   7.899   7.852  0.0136 -0.0367  0.0176
 1229POPI   C4B18964   3.747   7.909   8.249  0.0694 -0.0132  0.0168
 1230POPI    C118965   6.210  13.661   6.104  0.0093 -0.1330  0.0027
 1230POPI    C218966   5.827  13.651   6.222 -0.0437 -0.1646 -0.1694
 1230POPI    C318967   5.916  13.691   5.834  0.1286 -0.0982 -0.1240
 1230POPI   PO418968   6.320  13.514   6.278  0.3526 -0.3735 -0.0916
 1230POPI   GL118969   6.076  13.439   6.642 -0.0662  0.1447  0.1044
 1230POPI   GL218970   6.049  13.754   6.634  0.0357  0.3126  0.1824
 1230POPI   C1A18971   5.967  13.323   6.987  0.2621 -0.0430 -0.2785
 1230POPI   D2A18972   5.988  13.362   7.456  0.0405 -0.2035 -0.7518
 1230POPI   C3A18973   5.972  13.415   7.973 -0.2632  0.0200 -0.0592
 1230POPI   C4A18974   5.869  13.273   8.386 -0.2711  0.3706  0.0018
 1230POPI   C1B18975   5.899  14.121   6.925 -0.1607  0.0267  0.5212
 1230POPI   C2B18976   5.866  14.218   7.316  0.0644 -0.2566 -0.0307
 1230POPI   C3B18977   5.896  14.274   7.687  0.1018  0.3070  0.0293
 1230POPI   C4B18978   5.934  14.251   8.099  0.1848 -0.0944 -0.2969
 1231POPI    C118979  10.858  10.445   5.823 -0.0124 -0.2467 -0.1121
 1231POPI    C218980  10.865  10.671   5.493 -0.0069 -0.2914 -0.1425
 1231POPI    C318981  10.795  10.278   5.466  0.2700 -0.3445 -0.1192
 1231POPI   PO418982  10.994  10.490   5.946 -0.2179 -0.0623  0.1030
 1231POPI   GL118983  11.166  10.516   6.332 -0.0062  0.0228 -0.0038
 1231POPI   GL218984  10.807  10.394   6.409  0.0339  0.0437  0.2025
 1231POPI   C1A18985  11.280  10.501   6.752  0.0088 -0.1660 -0.0607
 1231POPI   D2A18986  11.159  10.443   7.196 -0.2622  0.2987  0.3686
 1231POPI   C3A18987  11.108  10.537   7.565 -0.1365  0.0273 -0.2983
 1231POPI   C4A18988  11.180  10.524   7.952  0.2758 -0.0121  0.2602
 1231POPI   C1B18989  10.783  10.450   6.836 -0.4178 -0.0232  0.1007
 1231POPI   C2B18990  10.676  10.511   7.214 -0.1489 -0.1121  0.1640
 1231POPI   C3B18991  10.619  10.481   7.686 -0.3957  0.1451 -0.0777
 1231POPI   C4B18992  10.632  10.466   8.174  0.1014 -0.0143  0.1694
 1232POPI    C118993  13.120  10.965   5.965 -0.1492  0.1442  0.0815
 1232POPI    C218994  13.086  11.360   5.912 -0.3300  0.0963 -0.1820
 1232POPI    C318995  13.096  11.116   5.595 -0.1095 -0.1040 -0.0245
 1232POPI   PO418996  13.176  10.974   6.223 -0.1114  0.2080  0.0813
 1232POPI   GL118997  12.939  11.107   6.561  0.0703 -0.0842  0.0137
 1232POPI   GL218998  12.641  10.998   6.700  0.0546  0.3116 -0.0245
 1232POPI   C1A18999  13.003  10.973   7.043 -0.0577 -0.0573  0.2552
 1232POPI   D2A19000  12.915  10.996   7.435 -0.1665 -0.2877 -0.0343
 1232POPI   C3A19001  12.997  11.044   7.835  0.1093 -0.1785 -0.0383
 1232POPI   C4A19002  12.831  11.080   8.202  0.1259 -0.1090  0.2573
 1232POPI   C1B19003  12.507  11.002   7.140  0.0100  0.0987  0.0507
 1232POPI   C2B19004  12.384  11.037   7.556 -0.0123 -0.1616 -0.3098
 1232POPI   C3B19005  12.345  11.050   7.983  0.2963  0.1402  0.0030
 1232POPI   C4B19006  12.276  11.029   8.378  0.1523  0.0076  0.2433
 1233POPI    C119007   7.254   7.248   5.692  0.0775 -0.0963  0.0377
 1233POPI    C219008   7.389   7.339   5.327  0.2745  0.0108  0.1356
 1233POPI    C319009   7.596   7.088   5.560  0.1834 -0.0064  0.1986
 1233POPI   PO419010   7.126   7.416   5.884  0.0133  0.0672 -0.0571
 1233POPI   GL119011   7.154   7.447   6.306 -0.1745 -0.0958  0.1676
 1233POPI   GL219012   6.809   7.417   6.275  0.3269 -0.0787  0.1735
 1233POPI   C1A19013   7.090   7.577   6.695 -0.1433 -0.0296 -0.2129
 1233POPI   D2A19014   7.261   7.551   7.097 -0.2685 -0.1729  0.0079
 1233POPI   C3A19015   7.212   7.632   7.522  0.0988 -0.1033  0.0197
 1233POPI   C4A19016   7.133   7.707   7.890  0.1098 -0.0590  0.0161
 1233POPI   C1B19017   6.899   7.104   6.665  0.0233  0.2238 -0.1460
 1233POPI   C2B19018   6.960   7.115   7.108  0.1332  0.2612 -0.2402
 1233POPI   C3B19019   6.990   7.109   7.517  0.0156 -0.0146 -0.0563
 1233POPI   C4B19020   6.898   7.240   7.819  0.0832  0.1342 -0.0143
 1234POPI    C119021  14.432   0.104   5.896 -0.1329 -0.1338  0.0839
 1234POPI    C219022  14.299   0.199   5.531  0.1221  0.0824  0.0440
 1234POPI    C319023  14.555  -0.105   5.578  0.0089 -0.0116  0.0577
 1234POPI   PO419024  14.281   0.054   6.046  0.1096  0.3365  0.0588
 1234POPI   GL119025  14.272   0.066   6.429  0.2310 -0.0620  0.3721
 1234POPI   GL219026  13.967   0.016   6.536 -0.0101 -0.0701 -0.1857
 1234POPI   C1A19027  14.425   0.067   6.906 -0.3685  0.1354  0.0828
 1234POPI   D2A19028  14.402   0.114   7.347 -0.1077  0.0680  0.2198
 1234POPI   C3A19029  14.374   0.144   7.763 -0.0077 -0.0562  0.0491
 1234POPI   C4A19030  14.407   0.176   8.288 -0.4396  0.0723  0.0659
 1234POPI   C1B19031  13.893   0.008   6.865 -0.0688 -0.1323 -0.0201
 1234POPI   C2B19032  13.851  -0.067   7.279 -0.2169  0.0952  0.0131
 1234POPI   C3B19033  13.813   0.058   7.589 -0.0166 -0.1603 -0.2668
 1234POPI   C4B19034  13.923   0.132   8.041  0.0907  0.0549 -0.0894
 1235POPI    C119035   0.639   1.602   5.738  0.0466  0.0200  0.1864
 1235POPI    C219036   0.450   1.937   5.627  0.0928  0.0475  0.1906
 1235POPI    C319037   0.848   1.935   5.666  0.0940 -0.0117  0.1770
 1235POPI   PO419038   0.605   1.600   5.963  0.2131 -0.2429  0.2930
 1235POPI   GL119039   0.433   1.587   6.392  0.0034 -0.1960  0.2548
 1235POPI   GL219040   0.368   1.440   6.638  0.1971  0.0147  0.0374
 1235POPI   C1A19041   0.497   1.908   6.665 -0.0747  0.3098  0.2444
 1235POPI   D2A19042   0.651   1.984   7.003 -0.0481 -0.2674 -0.3229
 1235POPI   C3A19043   0.521   2.004   7.448  0.2998  0.1040 -0.0886
 1235POPI   C4A19044   0.538   2.027   7.871 -0.1424 -0.1868  0.0768
 1235POPI   C1B19045   0.320   1.571   7.114  0.0115  0.3622 -0.0298
 1235POPI   C2B19046   0.252   1.635   7.582 -0.2765  0.4359  0.4041
 1235POPI   C3B19047   0.347   1.592   7.915  0.1169  0.1887 -0.1699
 1235POPI   C4B19048   0.458   1.570   8.400  0.2232 -0.1683  0.0685
 1236POPI    C119049   4.458   0.107   5.787  0.0106  0.0455 -0.0702
 1236POPI    C219050   4.334  -0.234   5.619 -0.0441  0.0083  0.0445
 1236POPI    C319051   4.683  -0.071   5.508  0.0635 -0.1741  0.1098
 1236POPI   PO419052   4.384   0.109   5.991 -0.0595  0.2730 -0.0801
 1236POPI   GL119053   4.587   0.101   6.412  0.0819 -0.0018  0.4223
 1236POPI   GL219054   4.444   0.396   6.500  0.1461  0.0581  0.1597
 1236POPI   C1A19055   4.770   0.222   6.818 -0.1429 -0.1686  0.1809
 1236POPI   D2A19056   4.708   0.337   7.229  0.3535  0.1081 -0.0432
 1236POPI   C3A19057   4.717   0.278   7.651  0.1165 -0.4364 -0.2521
 1236POPI   C4A19058   4.696   0.415   8.059 -0.2030  0.0647 -0.0181
 1236POPI   C1B19059   4.283   0.310   6.960 -0.1572 -0.3529 -0.0044
 1236POPI   C2B19060   4.217   0.302   7.388  0.0084 -0.1145  0.0051
 1236POPI   C3B19061   4.199   0.349   7.744  0.0740 -0.0393  0.0879
 1236POPI   C4B19062   4.230   0.453   8.176  0.0605 -0.0835 -0.4146
 1237POPI    C119063   0.271   7.287   5.803 -0.1246 -0.2715 -0.0987
 1237POPI    C219064   0.591   7.336   5.569 -0.0360  0.2454  0.1166
 1237POPI    C319065   0.232   7.270   5.405  0.1400 -0.1336 -0.1322
 1237POPI   PO419066   0.297   7.160   5.952  0.0729 -0.0560 -0.2704
 1237POPI   GL119067   0.521   7.118   6.303  0.2658  0.0969 -0.1555
 1237POPI   GL219068   0.341   6.884   6.508 -0.0226 -0.1207  0.3263
 1237POPI   C1A19069   0.725   7.110   6.720  0.3330 -0.0772 -0.0050
 1237POPI   D2A19070   0.648   7.008   7.157  0.0889  0.1226 -0.2251
 1237POPI   C3A19071   0.600   7.020   7.640 -0.2379  0.3139  0.2509
 1237POPI   C4A19072   0.543   7.134   8.017 -0.2253  0.2030 -0.0440
 1237POPI   C1B19073   0.173   7.052   6.862  0.1070 -0.5039  0.2074
 1237POPI   C2B19074   0.123   7.040   7.361  0.0616 -0.0618 -0.1114
 1237POPI   C3B19075   0.099   7.064   7.816 -0.0064 -0.0662 -0.0196
 1237POPI   C4B19076   0.143   7.013   8.325  0.1001 -0.0976 -0.1634
 1238POPI    C119077   2.875   9.043   6.235 -0.1954 -0.3173 -0.2622
 1238POPI    C219078   2.955   9.284   5.926 -0.0448  0.0806  0.0778
 1238POPI    C319079   2.685   9.393   6.200  0.1600 -0.0486  0.3357
 1238POPI   PO419080   3.045   8.972   6.396 -0.0427 -0.1147  0.0609
 1238POPI   GL119081   3.123   8.830   6.756  0.3467  0.0692  0.0875
 1238POPI   GL219082   2.832   8.549   6.630  0.0214 -0.1672 -0.1764
 1238POPI   C1A19083   3.114   8.696   7.106  0.3296  0.1252  0.0362
 1238POPI   D2A19084   3.270   8.742   7.436  0.2917 -0.1414 -0.1278
 1238POPI   C3A19085   3.148   8.746   7.814 -0.1880 -0.0676 -0.0761
 1238POPI   C4A19086   3.038   8.695   8.193  0.0304 -0.2648  0.0032
 1238POPI   C1B19087   2.890   8.241   6.913  0.0198 -0.2111 -0.1734
 1238POPI   C2B19088   2.931   8.327   7.396 -0.0838  0.0484  0.0075
 1238POPI   C3B19089   2.838   8.321   7.717  0.3943 -0.1127  0.0105
 1238POPI   C4B19090   2.818   8.259   8.163 -0.0425  0.2920  0.0935
 1239POPI    C119091   9.733  13.438   5.949 -0.0000 -0.1926  0.0318
 1239POPI    C219092   9.835  13.218   5.631  0.1835 -0.0299 -0.0244
 1239POPI    C319093   9.454  13.228   5.755  0.1845 -0.4347  0.0246
 1239POPI   PO419094   9.826  13.420   6.117  0.0366  0.1531  0.1366
 1239POPI   GL119095   9.848  13.465   6.611  0.0545 -0.4272 -0.1160
 1239POPI   GL219096  10.153  13.660   6.428 -0.2752  0.3026 -0.0150
 1239POPI   C1A19097   9.777  13.694   6.919 -0.1128  0.2874 -0.0953
 1239POPI   D2A19098   9.703  13.793   7.360 -0.0958 -0.0905  0.2084
 1239POPI   C3A19099   9.889  13.727   7.652 -0.2560 -0.2200  0.1876
 1239POPI   C4A19100   9.842  13.511   7.969 -0.2330 -0.0432 -0.5855
 1239POPI   C1B19101  10.275  13.592   6.842  0.3700 -0.1403  0.3662
 1239POPI   C2B19102  10.334  13.606   7.344  0.4118  0.2568 -0.1043
 1239POPI   C3B19103  10.299  13.850   7.799 -0.1430  0.0654  0.0592
 1239POPI   C4B19104  10.230  13.656   8.249  0.0878  0.2155 -0.0172
 1240POPI    C119105  13.572   3.639   5.462  0.2692  0.1712  0.0641
 1240POPI    C219106  13.897   3.737   5.252  0.1991 -0.1775 -0.2170
 1240POPI    C319107  13.536   3.865   5.134  0.1593 -0.3763 -0.3151
 1240POPI   PO419108  13.583   3.607   5.687 -0.3701  0.1144  0.1199
 1240POPI   GL119109  13.672   3.586   6.238  0.2168 -0.0319 -0.0138
 1240POPI   GL219110  13.536   3.214   6.363  0.1628  0.3268 -0.2929
 1240POPI   C1A19111  13.838   3.662   6.637 -0.0612  0.0085 -0.1668
 1240POPI   D2A19112  13.880   3.616   7.125 -0.0639 -0.1442  0.0609
 1240POPI   C3A19113  13.801   3.740   7.572  0.1381  0.0774  0.1393
 1240POPI   C4A19114  13.800   3.621   7.979  0.0698  0.0957 -0.0278
 1240POPI   C1B19115  13.508   3.194   6.798 -0.2217  0.2354  0.1148
 1240POPI   C2B19116  13.529   3.124   7.148  0.1093 -0.2113  0.0915
 1240POPI   C3B19117  13.490   3.164   7.568 -0.0588 -0.0369 -0.1845
 1240POPI   C4B19118  13.479   3.188   8.050 -0.1129 -0.0861  0.0402
 1241POPI    C119119  13.693  10.787   5.997  0.2721 -0.0285 -0.0209
 1241POPI    C219120  13.929  11.087   5.875  0.0392  0.1906  0.0583
 1241POPI    C319121  13.565  11.040   5.714 -0.0237  0.1019  0.2234
 1241POPI   PO419122  13.670  10.842   6.307 -0.3187  0.0490 -0.0245
 1241POPI   GL119123  13.407  11.057   6.681  0.1990 -0.2580  0.0717
 1241POPI   GL219124  13.449  10.638   6.695  0.1371 -0.1165 -0.1318
 1241POPI   C1A19125  13.557  10.975   7.096 -0.2171  0.0834 -0.0149
 1241POPI   D2A19126  13.421  11.099   7.535 -0.0848 -0.0090  0.2721
 1241POPI   C3A19127  13.486  11.041   7.879  0.0207  0.2474  0.1359
 1241POPI   C4A19128  13.350  10.977   8.349 -0.0847  0.1128  0.1170
 1241POPI   C1B19129  13.295  10.547   7.099  0.1572  0.0449 -0.2174
 1241POPI   C2B19130  13.201  10.532   7.553 -0.0615 -0.0887  0.0696
 1241POPI   C3B19131  13.240  10.492   7.980  0.1835 -0.2272  0.1495
 1241POPI   C4B19132  13.358  10.471   8.406 -0.0090 -0.0808  0.2333
 1242POPI    C119133  15.826  13.543   6.204 -0.1356 -0.0996 -0.1976
 1242POPI    C219134  16.163  13.491   5.994  0.0521 -0.1035  0.0978
 1242POPI    C319135  15.942  13.820   5.940  0.2535  0.0341  0.1026
 1242POPI   PO419136  15.847  13.516   6.449  0.0343 -0.2464  0.1464
 1242POPI   GL119137  15.766  13.762   6.728  0.0770  0.1721  0.3757
 1242POPI   GL219138  15.575  13.803   7.025  0.0225  0.1760  0.3603
 1242POPI   C1A19139  16.045  13.895   7.174 -0.0984  0.0957  0.0955
 1242POPI   D2A19140  16.022  13.806   7.673  0.1676 -0.0309 -0.2423
 1242POPI   C3A19141  16.013  13.854   8.145  0.0805 -0.1670 -0.1224
 1242POPI   C4A19142  16.010  13.812   8.559  0.1259 -0.0699  0.0697
 1242POPI   C1B19143  15.491  13.794   7.501  0.0762  0.5176  0.0037
 1242POPI   C2B19144  15.470  13.799   7.902 -0.5076  0.1105 -0.2494
 1242POPI   C3B19145  15.463  13.754   8.362 -0.1052 -0.2275  0.0875
 1242POPI   C4B19146  15.263  13.951   8.779  0.2152 -0.1658 -0.0121
 1243POPI    C119147   6.353  15.453   5.850  0.3548  0.0512 -0.3435
 1243POPI    C219148   6.007  15.271   5.767  0.0938  0.3960 -0.0400
 1243POPI    C319149   6.228  15.422   5.471  0.0333  0.0943 -0.2441
 1243POPI   PO419150   6.254  15.579   6.084 -0.1664 -0.1810 -0.1675
 1243POPI   GL119151   6.326  15.554   6.499 -0.0264 -0.0278 -0.0011
 1243POPI   GL219152   6.604  15.394   6.628  0.0468 -0.1682  0.1732
 1243POPI   C1A19153   6.115  15.569   6.983  0.0324 -0.1431 -0.1158
 1243POPI   D2A19154   6.075  15.619   7.469 -0.3033 -0.0939 -0.1960
 1243POPI   C3A19155   6.157  15.544   7.813  0.0582 -0.1499  0.2947
 1243POPI   C4A19156   6.086  15.507   8.224  0.1295 -0.1635 -0.2429
 1243POPI   C1B19157   6.627  15.568   6.995  0.1364 -0.0219  0.1386
 1243POPI   C2B19158   6.556  15.578   7.366  0.0957 -0.2246 -0.2135
 1243POPI   C3B19159   6.706  15.507   7.767  0.1701 -0.1400  0.3786
 1243POPI   C4B19160   6.644  15.581   8.207 -0.1103  0.1173  0.0784
 1244POPI    C119161  10.989  14.625   5.851  0.1263 -0.0872  0.1821
 1244POPI    C219162  11.225  14.304   5.814 -0.0363 -0.1736 -0.1486
 1244POPI    C319163  11.202  14.571   5.517 -0.1673 -0.0367 -0.0172
 1244POPI   PO419164  10.997  14.559   6.194  0.3164 -0.1833  0.2412
 1244POPI   GL119165  11.259  14.630   6.469  0.0743  0.2804 -0.1041
 1244POPI   GL219166  10.954  14.845   6.586 -0.0411  0.1257 -0.3677
 1244POPI   C1A19167  11.280  14.594   6.961 -0.1302  0.0214 -0.0362
 1244POPI   D2A19168  11.286  14.633   7.418 -0.0391  0.1339  0.1847
 1244POPI   C3A19169  11.397  14.756   7.810 -0.0378  0.1722 -0.2962
 1244POPI   C4A19170  11.387  14.624   8.193  0.2611  0.1632 -0.2396
 1244POPI   C1B19171  11.047  14.991   7.133 -0.2100 -0.1087 -0.0734
 1244POPI   C2B19172  11.149  15.146   7.573 -0.0068  0.0200 -0.1275
 1244POPI   C3B19173  11.126  15.161   8.000  0.1790 -0.3246  0.0178
 1244POPI   C4B19174  11.157  14.984   8.410  0.3174  0.2350  0.0709
 1245POPI    C119175   9.813  12.084   5.603  0.4402 -0.0764 -0.0744
 1245POPI    C219176   9.825  12.430   5.402  0.1490 -0.1087 -0.1525
 1245POPI    C319177   9.725  12.092   5.213 -0.4980 -0.0801  0.1133
 1245POPI   PO419178  10.019  12.088   5.774 -0.1126  0.3561  0.2233
 1245POPI   GL119179  10.024  11.978   6.183  0.1296 -0.1596  0.0682
 1245POPI   GL219180  10.451  11.849   6.390  0.0974 -0.1609  0.0549
 1245POPI   C1A19181  10.062  12.264   6.583 -0.1812 -0.0817  0.1620
 1245POPI   D2A19182  10.196  12.239   7.060 -0.0398 -0.1422 -0.0358
 1245POPI   C3A19183  10.127  12.200   7.450 -0.0009 -0.3478  0.1032
 1245POPI   C4A19184  10.045  12.268   7.875  0.2866 -0.2144 -0.2058
 1245POPI   C1B19185  10.363  11.843   6.754  0.2879 -0.0586 -0.1410
 1245POPI   C2B19186  10.389  11.793   7.143  0.0858 -0.1260 -0.2428
 1245POPI   C3B19187  10.353  11.784   7.584  0.1419 -0.2352  0.2240
 1245POPI   C4B19188  10.358  11.897   7.966  0.4280 -0.0401  0.2935
 1246POPI    C119189   8.165  11.543   5.992  0.3602 -0.1936 -0.1170
 1246POPI    C219190   7.940  11.235   5.869  0.2157 -0.1322 -0.0099
 1246POPI    C319191   8.016  11.539   5.621  0.0352 -0.0715  0.0076
 1246POPI   PO419192   8.343  11.474   6.091 -0.2258 -0.1576 -0.1444
 1246POPI   GL119193   8.388  11.621   6.487 -0.1195 -0.3133  0.1031
 1246POPI   GL219194   8.709  11.749   6.609  0.4374 -0.2675  0.0309
 1246POPI   C1A19195   8.416  11.688   7.002  0.2339 -0.0679 -0.1223
 1246POPI   D2A19196   8.336  11.741   7.531 -0.0042  0.0586  0.0791
 1246POPI   C3A19197   8.255  11.765   8.059  0.0738  0.3027  0.0066
 1246POPI   C4A19198   7.992  11.673   8.371  0.1118  0.0375 -0.0202
 1246POPI   C1B19199   8.904  11.711   6.925 -0.2903  0.5961  0.2557
 1246POPI   C2B19200   8.862  11.661   7.296  0.0042 -0.1298 -0.0354
 1246POPI   C3B19201   8.798  11.696   7.732 -0.2469  0.3600  0.1661
 1246POPI   C4B19202   8.749  11.830   8.103 -0.0047  0.1112  0.2140
 1247DPPI    C119203  12.949   9.276   5.938 -0.0522 -0.0337 -0.1178
 1247DPPI    C219204  12.616   9.074   5.845 -0.1045  0.0759 -0.1707
 1247DPPI    C319205  12.804   9.289   5.565 -0.0334  0.0783 -0.1216
 1247DPPI   PO419206  12.964   9.269   6.133  0.3226  0.0396  0.0829
 1247DPPI   GL119207  13.101   9.105   6.536 -0.1032 -0.1254 -0.0052
 1247DPPI   GL219208  12.838   8.906   6.633  0.0309  0.2536  0.0099
 1247DPPI   C1A19209  13.035   9.285   6.927 -0.3481 -0.1315  0.0696
 1247DPPI   C2A19210  13.132   9.240   7.309 -0.1987 -0.0910  0.3416
 1247DPPI   C3A19211  13.111   9.195   7.825 -0.0478  0.3209 -0.0534
 1247DPPI   C4A19212  13.053   9.143   8.326  0.0274 -0.0007  0.3806
 1247DPPI   C1B19213  12.832   8.855   7.006  0.1348 -0.1945 -0.1240
 1247DPPI   C2B19214  12.913   8.805   7.506  0.0151  0.0736 -0.0527
 1247DPPI   C3B19215  12.827   8.727   7.905  0.1062  0.2814 -0.1191
 1247DPPI   C4B19216  12.799   8.703   8.344  0.1137 -0.2074  0.0154
 1248DPPI    C119217  11.781  15.993   5.712  0.1091  0.1624  0.0781
 1248DPPI    C219218  11.567  15.954   5.376  0.0175  0.0746  0.1456
 1248DPPI    C319219  11.743  16.303   5.463 -0.1170  0.1544  0.1003
 1248DPPI   PO419220  11.669  15.811   5.872 -0.1791 -0.3730  0.2413
 1248DPPI   GL119221  11.667  15.822   6.271  0.0432  0.1282  0.0507
 1248DPPI   GL219222  11.589  15.499   6.350 -0.0147  0.0098 -0.0374
 1248DPPI   C1A19223  11.489  15.928   6.573  0.0012  0.2040 -0.2175
 1248DPPI   C2A19224  11.598  16.001   6.998  0.1642  0.1546 -0.1463
 1248DPPI   C3A19225  11.652  16.030   7.385  0.0614 -0.0851  0.1250
 1248DPPI   C4A19226  11.676  16.090   7.780  0.0428  0.0759 -0.4744
 1248DPPI   C1B19227  11.736  15.431   6.667 -0.2412 -0.2212 -0.5788
 1248DPPI   C2B19228  11.769  15.573   7.116  0.1498  0.1215  0.2423
 1248DPPI   C3B19229  11.840  15.645   7.560 -0.2530 -0.0468  0.2714
 1248DPPI   C4B19230  11.819  15.663   7.984  0.2733 -0.0812  0.0799
 1249DPPI    C119231   9.450  10.874   5.714  0.0546  0.2182  0.4906
 1249DPPI    C219232   9.653  11.215   5.659 -0.0212  0.1907 -0.0092
 1249DPPI    C319233   9.262  11.199   5.575 -0.0611  0.0294  0.1970
 1249DPPI   PO419234   9.559  10.789   5.931  0.0430  0.0838  0.0638
 1249DPPI   GL119235   9.603  10.807   6.332 -0.1775  0.0751 -0.1737
 1249DPPI   GL219236   9.766  10.448   6.235 -0.2882 -0.0567 -0.0358
 1249DPPI   C1A19237   9.429  10.855   6.866  0.0218 -0.0341  0.0169
 1249DPPI   C2A19238   9.432  10.870   7.273 -0.1816 -0.1394  0.0262
 1249DPPI   C3A19239   9.438  10.848   7.657 -0.1563  0.1989  0.1452
 1249DPPI   C4A19240   9.240  10.849   8.045 -0.0054 -0.1375  0.0710
 1249DPPI   C1B19241   9.757  10.418   6.721 -0.0496 -0.2569  0.1558
 1249DPPI   C2B19242   9.699  10.485   7.170 -0.4620 -0.0845  0.0043
 1249DPPI   C3B19243   9.674  10.448   7.558  0.0609 -0.0917  0.1228
 1249DPPI   C4B19244   9.675  10.486   8.021  0.3095 -0.0700 -0.0383
 1250DPPI    C119245  12.427   8.608   5.808  0.0826 -0.0285 -0.0305
 1250DPPI    C219246  12.155   8.334   5.705 -0.0894  0.0358  0.2421
 1250DPPI    C319247  12.179   8.677   5.502 -0.1937  0.0183  0.1994
 1250DPPI   PO419248  12.384   8.664   6.154  0.1646 -0.0469  0.0113
 1250DPPI   GL119249  12.451   8.522   6.622 -0.2235  0.0760 -0.0152
 1250DPPI   GL219250  12.300   8.789   6.618  0.5189 -0.1169 -0.3046
 1250DPPI   C1A19251  12.723   8.311   6.913  0.0625 -0.0699  0.0294
 1250DPPI   C2A19252  12.714   8.255   7.277  0.0180  0.2586 -0.0154
 1250DPPI   C3A19253  12.671   8.271   7.716 -0.1762 -0.0246 -0.1273
 1250DPPI   C4A19254  12.614   8.280   8.132 -0.0650  0.0180 -0.1389
 1250DPPI   C1B19255  12.313   8.718   7.099  0.2312  0.1821 -0.2359
 1250DPPI   C2B19256  12.445   8.681   7.509 -0.2011  0.3765  0.0573
 1250DPPI   C3B19257  12.305   8.794   7.895 -0.2767  0.3304  0.0390
 1250DPPI   C4B19258  12.326   8.705   8.226  0.0759  0.0457  0.0717
 1251DPPI    C119259   1.431  10.519   6.075 -0.2780  0.3420  0.1165
 1251DPPI    C219260   1.256  10.274   5.811 -0.0690 -0.0547  0.3363
 1251DPPI    C319261   1.162  10.663   5.816 -0.2753 -0.0916 -0.1377
 1251DPPI   PO419262   1.456  10.298   6.244  0.0038 -0.0455 -0.0139
 1251DPPI   GL119263   1.772  10.379   6.587 -0.1270  0.2189  0.2234
 1251DPPI   GL219264   1.772  10.618   6.562 -0.0596  0.1143 -0.0155
 1251DPPI   C1A19265   1.953  10.284   7.017  0.1084  0.1126 -0.1557
 1251DPPI   C2A19266   1.933  10.444   7.466  0.0515 -0.0757  0.1649
 1251DPPI   C3A19267   1.981  10.425   7.900 -0.1902  0.2682 -0.5213
 1251DPPI   C4A19268   1.773  10.127   8.106 -0.1960  0.0438 -0.0840
 1251DPPI   C1B19269   2.118  10.735   6.860 -0.1217  0.1033 -0.2261
 1251DPPI   C2B19270   2.167  10.812   7.226  0.0066  0.0956 -0.1520
 1251DPPI   C3B19271   2.328  10.906   7.704  0.0784 -0.1545  0.1150
 1251DPPI   C4B19272   2.179  10.821   8.071  0.0523 -0.3249 -0.0502
 1252DPPI    C119273  14.507  10.399   5.934  0.1073  0.2249  0.0421
 1252DPPI    C219274  14.338  10.716   5.757 -0.0412  0.1419  0.0336
 1252DPPI    C319275  14.687  10.575   5.623 -0.0269  0.2369 -0.0297
 1252DPPI   PO419276  14.564  10.388   6.135  0.1612 -0.3754 -0.2435
 1252DPPI   GL119277  14.451  10.123   6.455  0.3480 -0.0095 -0.2970
 1252DPPI   GL219278  14.474  10.480   6.657  0.2625  0.0960 -0.1062
 1252DPPI   C1A19279  14.611  10.087   6.901  0.0932  0.0734  0.1294
 1252DPPI   C2A19280  14.592  10.082   7.277 -0.1421  0.0352  0.2094
 1252DPPI   C3A19281  14.598  10.112   7.638  0.0847 -0.1592  0.1325
 1252DPPI   C4A19282  14.550  10.118   8.135  0.1459 -0.1232 -0.2524
 1252DPPI   C1B19283  14.333  10.502   7.150  0.0153  0.0188 -0.1255
 1252DPPI   C2B19284  14.308  10.511   7.646 -0.1272 -0.0921  0.0436
 1252DPPI   C3B19285  14.307  10.702   7.986  0.3933 -0.0611  0.0312
 1252DPPI   C4B19286  14.313  10.661   8.351 -0.2517 -0.4445  0.3919
 1253DPPI    C119287  10.006  12.712   5.766  0.0547 -0.2913  0.1555
 1253DPPI    C219288  10.373  12.867   5.731 -0.0636 -0.0527 -0.0534
 1253DPPI    C319289  10.302  12.492   5.612  0.0804 -0.0504 -0.1485
 1253DPPI   PO419290   9.931  12.917   6.049 -0.4206  0.1808 -0.1855
 1253DPPI   GL119291  10.144  13.170   6.373  0.0578 -0.2648 -0.2635
 1253DPPI   GL219292  10.381  12.962   6.276 -0.0989  0.0267  0.2638
 1253DPPI   C1A19293  10.077  13.129   6.804  0.1252  0.3341 -0.0309
 1253DPPI   C2A19294  10.078  13.026   7.274  0.0236 -0.2373  0.0615
 1253DPPI   C3A19295  10.080  13.090   7.736  0.0424 -0.1878 -0.2519
 1253DPPI   C4A19296  10.000  13.059   8.174  0.0469  0.0203  0.1964
 1253DPPI   C1B19297  10.356  12.657   6.613  0.2104 -0.0552 -0.0063
 1253DPPI   C2B19298  10.417  12.696   7.036  0.1298  0.0028  0.0441
 1253DPPI   C3B19299  10.353  12.677   7.485 -0.0701 -0.2085  0.1002
 1253DPPI   C4B19300  10.347  12.728   7.895  0.2793  0.0064  0.0053
 1254DPPI    C119301  10.718  17.037   6.128  0.1602  0.1337 -0.1155
 1254DPPI    C219302  10.525  16.795   5.874  0.0127 -0.1295  0.2398
 1254DPPI    C319303  10.835  17.012   5.746 -0.3650  0.1225 -0.2839
 1254DPPI   PO419304  10.597  17.132   6.335  0.2186 -0.1918  0.1226
 1254DPPI   GL119305  10.725  17.307   6.712  0.4996  0.0798  0.1760
 1254DPPI   GL219306  10.388  17.372   6.672  0.0973  0.1644 -0.3323
 1254DPPI   C1A19307  10.761  17.389   7.194  0.1800 -0.1098  0.0987
 1254DPPI   C2A19308  10.650  17.344   7.588  0.2288  0.1552  0.1060
 1254DPPI   C3A19309  10.823  17.326   7.926  0.3268 -0.4005  0.1284
 1254DPPI   C4A19310  10.905  17.357   8.372 -0.3058 -0.1355 -0.3097
 1254DPPI   C1B19311  10.129  17.281   6.941 -0.2613  0.2208  0.2959
 1254DPPI   C2B19312  10.100  17.329   7.355 -0.1247  0.0376 -0.2675
 1254DPPI   C3B19313  10.207  17.345   7.762  0.2651 -0.3124 -0.0453
 1254DPPI   C4B19314  10.365  17.378   8.100 -0.1110 -0.0765 -0.1912
 1255DPPI    C119315  13.383  11.843   5.798  0.2128  0.1646  0.0024
 1255DPPI    C219316  13.387  11.528   5.551 -0.0170  0.1931 -0.0406
 1255DPPI    C319317  13.599  11.856   5.461  0.1672  0.0787 -0.0305
 1255DPPI   PO419318  13.442  11.761   6.128 -0.0252 -0.0063  0.3793
 1255DPPI   GL119319  13.509  11.899   6.466 -0.1191 -0.0556  0.2078
 1255DPPI   GL219320  13.681  11.609   6.507 -0.2512 -0.0284  0.0039
 1255DPPI   C1A19321  13.507  11.960   6.915 -0.0189  0.5069 -0.3933
 1255DPPI   C2A19322  13.463  11.977   7.368  0.1783 -0.0013 -0.0933
 1255DPPI   C3A19323  13.406  12.050   7.828 -0.0848  0.0260 -0.2437
 1255DPPI   C4A19324  13.355  11.945   8.207  0.0751  0.0028 -0.1420
 1255DPPI   C1B19325  13.796  11.386   6.764 -0.2013 -0.1024  0.2656
 1255DPPI   C2B19326  13.727  11.403   7.205 -0.1368 -0.0881  0.0314
 1255DPPI   C3B19327  13.783  11.475   7.565 -0.1915  0.1983  0.0708
 1255DPPI   C4B19328  13.663  11.572   8.035 -0.1224  0.2935  0.2173
 1256DPPI    C119329   8.173  10.179   5.807  0.0360  0.4609 -0.2232
 1256DPPI    C219330   7.891  10.043   5.557  0.2120 -0.1280 -0.1180
 1256DPPI    C319331   8.223  10.213   5.411 -0.0123  0.2053 -0.2529
 1256DPPI   PO419332   7.957  10.198   6.021 -0.1417  0.2518  0.1785
 1256DPPI   GL119333   7.952  10.094   6.481 -0.3819 -0.0508 -0.1760
 1256DPPI   GL219334   7.697  10.183   6.573 -0.1327 -0.0999  0.0323
 1256DPPI   C1A19335   8.273  10.268   6.719  0.1069  0.0388 -0.2485
 1256DPPI   C2A19336   8.129  10.277   7.128  0.0198 -0.0840  0.1027
 1256DPPI   C3A19337   8.025  10.424   7.526 -0.0887  0.2308  0.1022
 1256DPPI   C4A19338   7.995  10.387   7.977 -0.0811 -0.4163 -0.0703
 1256DPPI   C1B19339   7.607  10.302   7.021 -0.2240  0.0949 -0.3103
 1256DPPI   C2B19340   7.516  10.345   7.420  0.0322 -0.0106 -0.0525
 1256DPPI   C3B19341   7.477  10.319   7.885 -0.1127  0.0296  0.2927
 1256DPPI   C4B19342   7.491  10.512   8.225 -0.1022  0.4576 -0.1454
 1257DPPI    C119343   9.865  15.965   5.986 -0.0385  0.0245  0.1191
 1257DPPI    C219344  10.025  16.331   5.962 -0.0524  0.0214 -0.0238
 1257DPPI    C319345   9.878  16.154   5.634 -0.1418 -0.0690  0.0645
 1257DPPI   PO419346   9.845  15.966   6.253  0.1780  0.0018 -0.2382
 1257DPPI   GL119347   9.915  15.630   6.520  0.2899  0.0393  0.0592
 1257DPPI   GL219348  10.048  15.877   6.680  0.1872  0.2646 -0.2144
 1257DPPI   C1A19349   9.712  15.443   6.832  0.0279  0.1008 -0.0283
 1257DPPI   C2A19350   9.754  15.462   7.197  0.2617  0.0459  0.1055
 1257DPPI   C3A19351   9.670  15.593   7.506 -0.0934 -0.1049 -0.1671
 1257DPPI   C4A19352   9.738  15.656   8.002  0.0567 -0.1180  0.1842
 1257DPPI   C1B19353  10.011  15.861   7.110  0.0922 -0.1403  0.2328
 1257DPPI   C2B19354   9.986  16.051   7.589 -0.1467  0.1057  0.3785
 1257DPPI   C3B19355  10.057  16.098   8.006 -0.0810  0.1292 -0.2223
 1257DPPI   C4B19356   9.919  16.067   8.410  0.2278 -0.0220  0.0528
 1258DPPI    C119357  14.930  16.063   5.870  0.0228  0.2283  0.0102
 1258DPPI    C219358  14.701  15.760   5.745  0.1680  0.1979 -0.1883
 1258DPPI    C319359  15.086  15.776   5.639  0.2228  0.3246  0.0234
 1258DPPI   PO419360  14.911  16.108   6.106  0.2399 -0.0815  0.0372
 1258DPPI   GL119361  14.633  16.164   6.463 -0.1021 -0.1935  0.0352
 1258DPPI   GL219362  14.327  16.408   6.545 -0.3450  0.1426 -0.5015
 1258DPPI   C1A19363  14.751  16.062   6.891 -0.2408  0.0382  0.1488
 1258DPPI   C2A19364  14.596  16.149   7.288  0.3407 -0.1172 -0.1675
 1258DPPI   C3A19365  14.684  16.164   7.752  0.0923 -0.1024  0.4037
 1258DPPI   C4A19366  14.767  16.117   8.219 -0.0725  0.1403  0.4055
 1258DPPI   C1B19367  14.412  16.511   6.987  0.1431 -0.1285  0.1693
 1258DPPI   C2B19368  14.395  16.651   7.417  0.1565  0.0197  0.1468
 1258DPPI   C3B19369  14.462  16.725   7.819  0.1194 -0.0842 -0.3231
 1258DPPI   C4B19370  14.481  16.592   8.305 -0.0180 -0.1418  0.0021
 1259DPPI    C119371   4.701   7.151   5.847  0.1149  0.0458  0.2265
 1259DPPI    C219372   4.374   7.003   5.672  0.1202  0.1767  0.1040
 1259DPPI    C319373   4.696   7.091   5.452  0.1994  0.1509  0.2089
 1259DPPI   PO419374   4.668   7.228   6.046  0.1658  0.3062 -0.1569
 1259DPPI   GL119375   4.362   7.098   6.240 -0.2187 -0.2417  0.1233
 1259DPPI   GL219376   4.328   7.345   6.414 -0.1948  0.0295  0.0392
 1259DPPI   C1A19377   4.361   6.931   6.685  0.2043 -0.0980 -0.0609
 1259DPPI   C2A19378   4.297   7.039   7.115 -0.2329 -0.1197  0.1665
 1259DPPI   C3A19379   4.340   7.060   7.538 -0.1713  0.2007 -0.0202
 1259DPPI   C4A19380   4.296   7.146   8.039  0.0463  0.2020  0.0757
 1259DPPI   C1B19381   4.508   7.428   6.818  0.0135 -0.0678  0.3255
 1259DPPI   C2B19382   4.609   7.614   7.256  0.0462 -0.2341 -0.0398
 1259DPPI   C3B19383   4.517   7.555   7.770  0.3533  0.1387  0.2012
 1259DPPI   C4B19384   4.508   7.511   8.243  0.1412 -0.2687 -0.0429
 1260DPPI    C119385   8.032  13.717   5.944 -0.2149  0.0884  0.2084
 1260DPPI    C219386   8.118  13.947   5.628 -0.1551 -0.0303  0.1378
 1260DPPI    C319387   7.943  13.591   5.575 -0.0814 -0.0811  0.2330
 1260DPPI   PO419388   8.190  13.738   6.167 -0.2270  0.1894  0.1281
 1260DPPI   GL119389   8.115  13.880   6.504  0.3353 -0.0655  0.2940
 1260DPPI   GL219390   8.480  13.823   6.565  0.1350 -0.0726  0.1837
 1260DPPI   C1A19391   7.917  13.997   6.942  0.1564 -0.0299  0.3769
 1260DPPI   C2A19392   7.816  14.083   7.379  0.2121 -0.1295 -0.2620
 1260DPPI   C3A19393   8.005  14.202   7.787 -0.0720 -0.1868  0.0075
 1260DPPI   C4A19394   8.168  14.160   8.307  0.4137 -0.1080 -0.1947
 1260DPPI   C1B19395   8.518  13.992   6.949 -0.0677 -0.1437  0.0034
 1260DPPI   C2B19396   8.303  14.173   7.309  0.0673  0.1062 -0.0002
 1260DPPI   C3B19397   8.423  13.997   7.797 -0.0444 -0.1949  0.1447
 1260DPPI   C4B19398   8.720  14.136   8.188  0.2832 -0.1756 -0.0952
 1261DPPI    C119399  10.744  11.284   5.914  0.1524 -0.0549  0.2037
 1261DPPI    C219400  10.789  11.278   5.517 -0.0079  0.2312  0.1785
 1261DPPI    C319401  10.998  11.025   5.746 -0.0376 -0.0499 -0.0984
 1261DPPI   PO419402  10.740  11.639   5.975  0.0329  0.0532  0.1285
 1261DPPI   GL119403  11.027  11.483   6.360  0.0577 -0.0136 -0.2120
 1261DPPI   GL219404  10.770  11.356   6.400  0.2637  0.2441  0.1093
 1261DPPI   C1A19405  11.200  11.413   6.817  0.0953  0.2092 -0.1532
 1261DPPI   C2A19406  11.208  11.444   7.221  0.1309 -0.1899  0.0190
 1261DPPI   C3A19407  11.221  11.396   7.650 -0.2456  0.0523  0.1421
 1261DPPI   C4A19408  11.134  11.405   8.069  0.0593 -0.0868  0.1066
 1261DPPI   C1B19409  10.636  11.386   6.829 -0.1289 -0.1771  0.1120
 1261DPPI   C2B19410  10.666  11.376   7.330 -0.1513 -0.0374 -0.0059
 1261DPPI   C3B19411  10.562  11.385   7.791 -0.0817  0.0879  0.0583
 1261DPPI   C4B19412  10.476  11.471   8.215 -0.1444  0.2279 -0.3777
 1262DPPI    C119413   8.874   3.574   5.894  0.0310 -0.0432 -0.0394
 1262DPPI    C219414   8.948   3.350   5.570  0.0887  0.0974 -0.1243
 1262DPPI    C319415   8.673   3.641   5.555  0.0672  0.0822 -0.0365
 1262DPPI   PO419416   9.082   3.587   5.981 -0.2682  0.0842 -0.2482
 1262DPPI   GL119417   9.134   3.337   6.311  0.0707  0.0291 -0.2802
 1262DPPI   GL219418   8.938   3.034   6.493  0.1098 -0.0431  0.0928
 1262DPPI   C1A19419   9.151   3.433   6.789  0.1773 -0.0874  0.0786
 1262DPPI   C2A19420   9.168   3.509   7.266 -0.2479 -0.2489  0.0553
 1262DPPI   C3A19421   9.193   3.548   7.652  0.1130 -0.1576  0.1685
 1262DPPI   C4A19422   9.205   3.569   8.120 -0.2102 -0.5330  0.3437
 1262DPPI   C1B19423   8.906   3.086   6.973 -0.0919  0.0014 -0.0056
 1262DPPI   C2B19424   8.917   3.135   7.421 -0.0374  0.0549 -0.2045
 1262DPPI   C3B19425   8.892   3.172   7.841 -0.1011  0.0534 -0.2193
 1262DPPI   C4B19426   8.859   3.122   8.218 -0.4717 -0.0479  0.1805
 1263DPPI    C119427  16.430  11.107   6.116  0.0392 -0.2014  0.1355
 1263DPPI    C219428  16.545  10.882   5.806  0.0620 -0.2576  0.1848
 1263DPPI    C319429  16.570  11.280   5.784  0.2735 -0.2689  0.1972
 1263DPPI   PO419430  16.200  10.952   6.263  0.1506  0.1067  0.1066
 1263DPPI   GL119431  16.102  10.978   6.682  0.2555 -0.3023 -0.1012
 1263DPPI   GL219432  15.951  10.736   6.664 -0.0923 -0.2634 -0.0436
 1263DPPI   C1A19433  16.217  11.083   7.144 -0.2628  0.1866 -0.0123
 1263DPPI   C2A19434  16.132  11.105   7.606 -0.0166 -0.3332 -0.1511
 1263DPPI   C3A19435  16.064  11.028   8.098 -0.0621 -0.2970  0.2470
 1263DPPI   C4A19436  15.984  11.123   8.531  0.2858  0.2972 -0.1880
 1263DPPI   C1B19437  15.896  10.703   7.095 -0.5115  0.1522  0.4131
 1263DPPI   C2B19438  15.974  10.592   7.519 -0.0095 -0.4397  0.3177
 1263DPPI   C3B19439  15.826  10.600   7.947  0.0217 -0.1527  0.2507
 1263DPPI   C4B19440  15.762  10.658   8.398  0.2437 -0.0729 -0.0701
 1264DPPI    C119441  11.039  15.165   5.630 -0.0695 -0.1646  0.1349
 1264DPPI    C219442  10.667  15.018   5.634 -0.0214 -0.2933 -0.0183
 1264DPPI    C319443  10.914  14.928   5.333  0.0270  0.0614 -0.0885
 1264DPPI   PO419444  11.117  15.180   5.866  0.0445 -0.0674 -0.0212
 1264DPPI   GL119445  11.225  15.067   6.254  0.0315  0.1670 -0.4105
 1264DPPI   GL219446  11.628  15.001   6.376 -0.2800 -0.2612 -0.1370
 1264DPPI   C1A19447  11.207  15.252   6.659  0.1617  0.0394  0.3306
 1264DPPI   C2A19448  11.244  15.579   6.957  0.1188  0.3475  0.2660
 1264DPPI   C3A19449  11.231  15.623   7.365 -0.1483  0.1873  0.1265
 1264DPPI   C4A19450  11.312  15.613   7.800 -0.0936 -0.1121 -0.3630
 1264DPPI   C1B19451  11.571  15.001   6.837  0.0020  0.2687 -0.2389
 1264DPPI   C2B19452  11.593  15.150   7.300 -0.0446 -0.0994 -0.0925
 1264DPPI   C3B19453  11.620  15.225   7.806 -0.0816  0.0478  0.0261
 1264DPPI   C4B19454  11.648  15.045   8.166 -0.1588 -0.0459 -0.0787
 1265DPPI    C119455   9.377  11.518   6.059  0.0078 -0.0111  0.0553
 1265DPPI    C219456   9.692  11.701   5.893  0.0331 -0.0551  0.0545
 1265DPPI    C319457   9.361  11.636   5.677  0.0196  0.0001  0.0583
 1265DPPI   PO419458   9.488  11.356   6.244  0.0706 -0.1635  0.1528
 1265DPPI   GL119459   9.668  11.341   6.558 -0.1037  0.0571 -0.3100
 1265DPPI   GL219460   9.863  11.545   6.458 -0.2087  0.0826  0.0572
 1265DPPI   C1A19461   9.641  11.337   7.116  0.0699  0.1027 -0.0131
 1265DPPI   C2A19462   9.618  11.333   7.630  0.3009  0.3583  0.0043
 1265DPPI   C3A19463   9.511  11.286   8.046 -0.0284  0.0233  0.2620
 1265DPPI   C4A19464   9.459  11.106   8.395 -0.1177  0.3214 -0.1313
 1265DPPI   C1B19465   9.848  11.797   6.698 -0.1720 -0.1279  0.0434
 1265DPPI   C2B19466   9.915  11.760   7.118  0.3101 -0.2120 -0.1945
 1265DPPI   C3B19467   9.866  11.734   7.582  0.1653  0.0241  0.1243
 1265DPPI   C4B19468   9.794  11.798   7.973  0.0583 -0.2301 -0.0172
 1266DPPI    C119469   4.387  15.792   5.922 -0.0781 -0.0088 -0.2057
 1266DPPI    C219470   4.318  15.412   6.027 -0.2433  0.0723 -0.0149
 1266DPPI    C319471   4.617  15.499   5.776 -0.0119 -0.1531  0.1780
 1266DPPI   PO419472   4.425  15.889   6.194  0.1283 -0.0726 -0.1414
 1266DPPI   GL119473   4.123  15.865   6.482  0.1494 -0.1821  0.1648
 1266DPPI   GL219474   4.065  15.537   6.519  0.0065  0.4259  0.2472
 1266DPPI   C1A19475   4.268  15.918   6.868 -0.1241 -0.0746 -0.3570
 1266DPPI   C2A19476   4.345  16.011   7.333  0.1921  0.2393 -0.0979
 1266DPPI   C3A19477   4.334  15.974   7.859 -0.0685  0.1246  0.0511
 1266DPPI   C4A19478   4.278  16.084   8.263 -0.0747 -0.0011  0.2419
 1266DPPI   C1B19479   4.012  15.494   6.939 -0.0672  0.2219 -0.0628
 1266DPPI   C2B19480   4.011  15.542   7.364 -0.1964  0.2347  0.0936
 1266DPPI   C3B19481   4.013  15.485   7.823  0.1641 -0.1047  0.0687
 1266DPPI   C4B19482   4.103  15.587   8.249  0.0416 -0.0161 -0.0850
 1267PYPI    C119483  13.799   3.216   5.805 -0.0752  0.0114  0.0081
 1267PYPI    C219484  13.983   2.915   5.616  0.0487  0.0261  0.1036
 1267PYPI    C319485  13.908   3.257   5.423  0.3331  0.1056  0.1294
 1267PYPI   PO419486  13.981   3.181   6.092 -0.0270 -0.1851  0.0998
 1267PYPI   GL119487  13.955   3.021   6.455  0.3735 -0.0967  0.0434
 1267PYPI   GL219488  13.862   2.761   6.508  0.5973  0.1210 -0.0315
 1267PYPI   C1A19489  14.014   3.203   6.872 -0.0068 -0.1496 -0.1095
 1267PYPI   C2A19490  13.969   3.179   7.324  0.3156 -0.2195 -0.0042
 1267PYPI   D3A19491  14.018   3.263   7.760 -0.0949  0.0914  0.1787
 1267PYPI   C4A19492  13.941   3.211   8.278  0.3960 -0.1295  0.1077
 1267PYPI   C1B19493  13.784   2.768   6.952  0.1917  0.2032  0.0758
 1267PYPI   C2B19494  13.738   2.665   7.374 -0.0944 -0.1167 -0.2836
 1267PYPI   C3B19495  13.819   2.835   7.834  0.1202  0.0684 -0.1123
 1267PYPI   C4B19496  13.866   2.712   8.281 -0.0849 -0.3154 -0.1831
 1268PYPI    C119497   8.901  16.333   5.910 -0.1382 -0.1120 -0.1447
 1268PYPI    C219498   8.650  16.628   5.809 -0.0505  0.0794  0.1833
 1268PYPI    C319499   8.844  16.425   5.525  0.1649  0.5799 -0.0393
 1268PYPI   PO419500   8.856  16.265   6.125 -0.0227 -0.0026 -0.0011
 1268PYPI   GL119501   9.003  16.209   6.566  0.1064 -0.3432 -0.3424
 1268PYPI   GL219502   8.647  16.288   6.582  0.0205  0.0728  0.0113
 1268PYPI   C1A19503   9.199  16.320   6.945 -0.2020 -0.0488  0.2422
 1268PYPI   C2A19504   9.221  16.368   7.347  0.4551  0.3427 -0.3487
 1268PYPI   D3A19505   9.104  16.360   7.775 -0.0728  0.0520  0.0444
 1268PYPI   C4A19506   9.191  16.464   8.158 -0.0100 -0.0299  0.0774
 1268PYPI   C1B19507   8.691  16.322   7.029  0.2219 -0.1191 -0.1498
 1268PYPI   C2B19508   8.683  16.414   7.468 -0.2254  0.0824 -0.1549
 1268PYPI   C3B19509   8.617  16.341   7.913 -0.1284  0.0618 -0.0949
 1268PYPI   C4B19510   8.573  16.557   8.246 -0.0214  0.2172 -0.1362
 1269PYPI    C119511  13.452   1.249   5.960  0.1022 -0.0167  0.0743
 1269PYPI    C219512  13.757   1.454   5.803  0.1392 -0.0580  0.0922
 1269PYPI    C319513  13.435   1.374   5.580  0.0829  0.1032  0.1143
 1269PYPI   PO419514  13.354   1.331   6.180  0.0399  0.0534 -0.1163
 1269PYPI   GL119515  13.326   1.460   6.516 -0.0855 -0.2525  0.0546
 1269PYPI   GL219516  13.447   1.733   6.691 -0.0903  0.1831 -0.0307
 1269PYPI   C1A19517  13.100   1.323   6.933 -0.0213 -0.1703  0.1005
 1269PYPI   C2A19518  13.093   1.373   7.375  0.2318  0.1083  0.1227
 1269PYPI   D3A19519  12.984   1.377   7.873 -0.2392 -0.2539  0.1488
 1269PYPI   C4A19520  12.985   1.448   8.325 -0.2707 -0.2068  0.1100
 1269PYPI   C1B19521  13.329   1.791   7.231 -0.2750 -0.1395  0.2367
 1269PYPI   C2B19522  13.298   1.787   7.637 -0.2128  0.3489  0.1320
 1269PYPI   C3B19523  13.304   1.917   8.052 -0.2953 -0.4524  0.0102
 1269PYPI   C4B19524  13.312   2.205   8.474  0.3045  0.1616  0.2553
 1270PYPI    C119525   0.074   4.919   5.804 -0.3269  0.0373  0.1212
 1270PYPI    C219526  -0.232   5.162   5.720 -0.2387  0.1404  0.0957
 1270PYPI    C319527   0.100   5.175   5.498 -0.1402  0.1672  0.2430
 1270PYPI   PO419528   0.143   4.878   6.085 -0.0923  0.1128 -0.1641
 1270PYPI   GL119529   0.056   4.742   6.510  0.0366 -0.0133 -0.0811
 1270PYPI   GL219530  -0.241   4.765   6.408 -0.1501  0.1299 -0.0346
 1270PYPI   C1A19531  -0.015   4.735   6.860 -0.1325  0.1249  0.1788
 1270PYPI   C2A19532  -0.094   4.819   7.236 -0.1883  0.2033 -0.0591
 1270PYPI   D3A19533  -0.163   4.816   7.632 -0.4963 -0.2497 -0.0835
 1270PYPI   C4A19534  -0.008   4.742   7.918 -0.0821  0.1152  0.1210
 1270PYPI   C1B19535  -0.596   4.858   6.705 -0.2169 -0.0502  0.1218
 1270PYPI   C2B19536  -0.615   4.702   7.061 -0.0203 -0.0560  0.0688
 1270PYPI   C3B19537  -0.657   4.823   7.403  0.1073 -0.3172  0.1087
 1270PYPI   C4B19538  -0.621   4.615   7.807  0.0638 -0.1430 -0.0525
 1271PYPI    C119539   7.502  15.114   5.892 -0.0685 -0.1738  0.1502
 1271PYPI    C219540   7.700  15.327   5.617  0.1489 -0.1116  0.3517
 1271PYPI    C319541   7.350  15.158   5.525  0.1523  0.0247  0.0797
 1271PYPI   PO419542   7.737  15.170   6.140  0.1483 -0.0316  0.0577
 1271PYPI   GL119543   7.601  15.282   6.542 -0.4215  0.2920  0.1037
 1271PYPI   GL219544   7.429  15.075   6.716  0.2066 -0.0952 -0.1499
 1271PYPI   C1A19545   7.776  15.415   6.945  0.0819  0.0394 -0.0461
 1271PYPI   C2A19546   7.641  15.499   7.323 -0.1437 -0.1616 -0.0717
 1271PYPI   D3A19547   7.728  15.525   7.751 -0.3798  0.3640 -0.0280
 1271PYPI   C4A19548   7.705  15.450   8.208 -0.3638 -0.3513  0.0963
 1271PYPI   C1B19549   7.396  15.093   7.191 -0.1067  0.1498 -0.0344
 1271PYPI   C2B19550   7.440  15.135   7.656  0.3877 -0.0250  0.2246
 1271PYPI   C3B19551   7.452  15.041   8.089  0.2012  0.3929 -0.3077
 1271PYPI   C4B19552   7.369  15.089   8.488  0.1817 -0.1253 -0.2303
 1272PYPI    C119553   2.565   0.144   6.218 -0.2159 -0.0206  0.0872
 1272PYPI    C219554   2.305  -0.063   5.994 -0.0897  0.1511 -0.2242
 1272PYPI    C319555   2.478   0.266   5.847  0.1499  0.1539  0.0554
 1272PYPI   PO419556   2.717  -0.035   6.302 -0.1249 -0.0648  0.0815
 1272PYPI   GL119557   2.912  -0.050   6.620 -0.3820 -0.1512 -0.1126
 1272PYPI   GL219558   2.875  -0.378   6.590  0.2006 -0.3008  0.1055
 1272PYPI   C1A19559   2.918  -0.197   7.104 -0.0179 -0.1033 -0.0994
 1272PYPI   C2A19560   2.825  -0.234   7.600  0.0336  0.0422  0.2560
 1272PYPI   D3A19561   2.887  -0.114   7.933 -0.4876 -0.2079  0.0269
 1272PYPI   C4A19562   2.933  -0.264   8.310 -0.2880  0.1164 -0.1990
 1272PYPI   C1B19563   3.096  -0.648   6.803 -0.0546  0.1485  0.2096
 1272PYPI   C2B19564   3.269  -0.692   7.263  0.0708  0.1805  0.2841
 1272PYPI   C3B19565   3.182  -0.686   7.696 -0.1638 -0.0719  0.1464
 1272PYPI   C4B19566   3.219  -0.630   8.103  0.1948 -0.2156 -0.0422
 1273PYPI    C119567   7.694  14.048   5.933 -0.0246 -0.0534  0.0907
 1273PYPI    C219568   7.507  13.876   5.624 -0.0994  0.0678  0.0675
 1273PYPI    C319569   7.606  14.263   5.607 -0.0047  0.0477  0.1514
 1273PYPI   PO419570   7.571  14.014   6.144 -0.2362  0.0810  0.0756
 1273PYPI   GL119571   7.599  13.691   6.524 -0.0034 -0.2842 -0.1675
 1273PYPI   GL219572   7.411  13.969   6.715 -0.3494 -0.2377 -0.2247
 1273PYPI   C1A19573   7.589  13.598   6.982  0.1330 -0.1016  0.0863
 1273PYPI   C2A19574   7.639  13.586   7.372 -0.0081 -0.0008 -0.0109
 1273PYPI   D3A19575   7.557  13.525   7.851  0.0826  0.3137 -0.0175
 1273PYPI   C4A19576   7.267  13.033   7.926  0.1966  0.3109  0.0126
 1273PYPI   C1B19577   7.297  14.043   7.173  0.1357  0.1620 -0.1128
 1273PYPI   C2B19578   7.314  13.918   7.536 -0.0284 -0.1325  0.0201
 1273PYPI   C3B19579   7.439  14.071   7.844 -0.1044  0.1797  0.4738
 1273PYPI   C4B19580   7.580  13.990   8.177 -0.0964 -0.1609 -0.0408
 1274PYPI    C119581   0.550   3.052   5.991 -0.1393 -0.1249 -0.2015
 1274PYPI    C219582   0.872   3.253   5.866 -0.0490 -0.1007  0.0642
 1274PYPI    C319583   0.615   3.102   5.600 -0.0172  0.2005 -0.1425
 1274PYPI   PO419584   0.652   3.109   6.294  0.1722  0.0453  0.0011
 1274PYPI   GL119585   0.805   2.891   6.540 -0.1656 -0.1465 -0.1900
 1274PYPI   GL219586   1.118   3.015   6.794  0.1194 -0.0113  0.1185
 1274PYPI   C1A19587   0.585   2.950   6.941  0.0379  0.2731 -0.2094
 1274PYPI   C2A19588   0.576   2.846   7.409 -0.0376 -0.3472 -0.2310
 1274PYPI   D3A19589   0.619   3.033   7.861  0.0539  0.2188 -0.0435
 1274PYPI   C4A19590   0.391   2.966   8.148  0.1009  0.0190  0.1923
 1274PYPI   C1B19591   1.060   2.917   7.247 -0.0032  0.0345 -0.1301
 1274PYPI   C2B19592   1.045   2.956   7.620 -0.0972 -0.3168  0.0244
 1274PYPI   C3B19593   1.091   2.919   8.082  0.1575  0.2790  0.1091
 1274PYPI   C4B19594   0.986   3.021   8.498  0.3648  0.2258 -0.0287
 1275PYPI    C119595  12.307   1.203   5.699 -0.0345 -0.1454  0.0948
 1275PYPI    C219596  12.607   1.325   5.463 -0.2193 -0.0016 -0.0694
 1275PYPI    C319597  12.602   0.950   5.603  0.1053  0.0337  0.0459
 1275PYPI   PO419598  12.321   1.276   5.929 -0.0096 -0.0495  0.0731
 1275PYPI   GL119599  12.370   1.295   6.359 -0.2332 -0.0912 -0.0275
 1275PYPI   GL219600  12.028   1.300   6.383  0.0440 -0.0020  0.0201
 1275PYPI   C1A19601  12.626   1.393   6.687  0.1327  0.2927 -0.0760
 1275PYPI   C2A19602  12.613   1.385   7.093  0.1440 -0.0974  0.0854
 1275PYPI   D3A19603  12.558   1.341   7.506 -0.3139 -0.0082  0.1126
 1275PYPI   C4A19604  12.353   1.313   7.917  0.1794 -0.0529  0.1586
 1275PYPI   C1B19605  12.115   1.365   6.845  0.1335 -0.0809  0.1535
 1275PYPI   C2B19606  12.108   1.336   7.241  0.2909  0.0535  0.0727
 1275PYPI   C3B19607  11.947   1.325   7.598  0.1944 -0.0169 -0.2841
 1275PYPI   C4B19608  11.914   1.435   8.064  0.2038  0.3562  0.0882
 1276PYPI    C119609   9.839   6.723   5.886 -0.1128 -0.0816 -0.0346
 1276PYPI    C219610   9.473   6.724   6.046 -0.0587  0.2976  0.0963
 1276PYPI    C319611   9.518   6.760   5.650 -0.1592  0.3991  0.0935
 1276PYPI   PO419612   9.993   6.899   6.036  0.1335  0.3691  0.0008
 1276PYPI   GL119613  10.078   7.236   6.367 -0.0075  0.2577  0.0321
 1276PYPI   GL219614   9.898   7.502   6.248 -0.3536 -0.4586  0.3375
 1276PYPI   C1A19615   9.957   7.210   6.858 -0.0357  0.2315  0.0623
 1276PYPI   C2A19616   9.915   7.156   7.343  0.2508  0.0150  0.1274
 1276PYPI   D3A19617   9.940   7.301   7.736 -0.2937 -0.0459  0.1264
 1276PYPI   C4A19618   9.951   7.341   8.171 -0.3217 -0.0672 -0.1850
 1276PYPI   C1B19619   9.732   7.560   6.625 -0.0891 -0.3195 -0.2604
 1276PYPI   C2B19620   9.661   7.561   7.088  0.1350  0.1448  0.1708
 1276PYPI   C3B19621   9.690   7.661   7.446  0.3316 -0.1276  0.3061
 1276PYPI   C4B19622   9.686   7.684   7.922  0.2105 -0.0382 -0.1967
 1277PYPI    C119623  14.576   7.841   6.058  0.2384  0.2501 -0.1240
 1277PYPI    C219624  14.447   7.761   5.688  0.0427 -0.0870  0.0124
 1277PYPI    C319625  14.834   7.839   5.753  0.0596  0.0832 -0.2767
 1277PYPI   PO419626  14.513   8.061   6.093 -0.1212  0.2704  0.1209
 1277PYPI   GL119627  14.606   8.308   6.473 -0.1254 -0.1985 -0.3368
 1277PYPI   GL219628  14.474   7.988   6.573  0.1399 -0.1482 -0.1685
 1277PYPI   C1A19629  14.548   8.391   6.871 -0.4604  0.0050  0.1653
 1277PYPI   C2A19630  14.633   8.300   7.323  0.0854 -0.1369 -0.3159
 1277PYPI   D3A19631  14.608   8.290   7.694  0.0614  0.1654 -0.1980
 1277PYPI   C4A19632  14.572   8.237   8.148 -0.0791 -0.4058 -0.1608
 1277PYPI   C1B19633  14.373   7.761   6.886  0.2709 -0.0212 -0.0569
 1277PYPI   C2B19634  14.359   7.785   7.344 -0.0173  0.0022 -0.0576
 1277PYPI   C3B19635  14.330   7.795   7.722  0.2259  0.1884 -0.0658
 1277PYPI   C4B19636  14.357   7.750   8.164  0.0810 -0.0220  0.0497
 1278PYPI    C119637   3.488   9.154   5.873 -0.1346  0.1165 -0.2313
 1278PYPI    C219638   3.218   8.860   5.888  0.1501 -0.1424 -0.0475
 1278PYPI    C319639   3.546   8.818   5.664  0.1373  0.0864 -0.1119
 1278PYPI   PO419640   3.448   9.248   6.211  0.1545  0.0492 -0.0712
 1278PYPI   GL119641   3.631   9.098   6.628 -0.1921  0.0085 -0.0028
 1278PYPI   GL219642   3.311   9.299   6.666  0.3916 -0.2473 -0.1001
 1278PYPI   C1A19643   3.479   9.110   7.089 -0.2754  0.1569  0.0781
 1278PYPI   C2A19644   3.418   9.191   7.412 -0.1007  0.0266  0.1033
 1278PYPI   D3A19645   3.385   9.257   7.855  0.3241 -0.4229 -0.1184
 1278PYPI   C4A19646   3.277   9.164   8.166 -0.1753 -0.4456  0.3722
 1278PYPI   C1B19647   3.230   9.558   7.068 -0.1510 -0.1954 -0.3355
 1278PYPI   C2B19648   3.197   9.649   7.471  0.1447  0.0601  0.0825
 1278PYPI   C3B19649   3.042   9.655   7.894 -0.1742  0.1416  0.0230
 1278PYPI   C4B19650   2.975   9.601   8.305 -0.1891  0.1701  0.0070
 1279PYPI    C119651  14.551   2.897   6.314 -0.2232  0.1901  0.0957
 1279PYPI    C219652  14.478   3.106   5.981  0.0998 -0.1477 -0.1965
 1279PYPI    C319653  14.274   2.770   6.055 -0.2133  0.1057  0.1262
 1279PYPI   PO419654  14.509   3.058   6.488 -0.3017  0.0341 -0.0887
 1279PYPI   GL119655  14.680   2.963   6.837 -0.3088 -0.2137 -0.2884
 1279PYPI   GL219656  15.002   2.945   6.655  0.0503 -0.1699 -0.3065
 1279PYPI   C1A19657  14.795   2.856   7.232  0.2397 -0.0822  0.3458
 1279PYPI   C2A19658  14.896   2.875   7.599  0.2042 -0.0158  0.0556
 1279PYPI   D3A19659  14.821   2.900   8.014  0.0942 -0.1028  0.1233
 1279PYPI   C4A19660  14.881   2.742   8.432 -0.0231  0.3629  0.3763
 1279PYPI   C1B19661  15.298   2.915   7.050 -0.1696 -0.0402  0.0687
 1279PYPI   C2B19662  15.392   2.882   7.457  0.0436  0.2139  0.1135
 1279PYPI   C3B19663  15.332   2.739   7.825  0.0197  0.0959 -0.0491
 1279PYPI   C4B19664  15.336   2.751   8.239  0.2397 -0.1110 -0.3305
 1280ERGO   ROH19665   1.460  11.276   7.207 -0.0318  0.3150  0.0570
 1280ERGO    R119666   1.377  11.327   7.473 -0.1091  0.0979  0.0764
 1280ERGO    R219667   1.186  11.174   7.601 -0.1116 -0.0358 -0.0875
 1280ERGO    R319668   1.380  11.147   7.789 -0.1563 -0.1410 -0.0559
 1280ERGO    R419669   1.129  11.094   7.932 -0.2329  0.1668 -0.0574
 1280ERGO    R519670   1.283  11.238   7.988 -0.0941  0.0459 -0.1065
 1280ERGO    C119671   1.279  11.022   8.302 -0.3454  0.1861 -0.0101
 1280ERGO    C219672   1.282  10.843   8.441 -0.1005 -0.0906  0.4872
 1281ERGO   ROH19673   8.595   8.558   6.328 -0.3302  0.1003 -0.0133
 1281ERGO    R119674   8.655   8.450   6.583 -0.4817 -0.1164 -0.0682
 1281ERGO    R219675   8.791   8.592   6.778 -0.1591 -0.4499 -0.0429
 1281ERGO    R319676   8.574   8.528   6.929 -0.2553 -0.0909 -0.0188
 1281ERGO    R419677   8.784   8.591   7.123 -0.2135 -0.1499 -0.0398
 1281ERGO    R519678   8.665   8.409   7.116 -0.4096 -0.0334  0.0970
 1281ERGO    C119679   8.577   8.531   7.467 -0.3354  0.3618 -0.0154
 1281ERGO    C219680   8.545   8.582   7.800 -0.0969  0.2708  0.2006
 1282ERGO   ROH19681   3.538   0.909   6.629 -0.1042 -0.0459  0.0166
 1282ERGO    R119682   3.417   0.865   6.881 -0.1061 -0.2875 -0.0237
 1282ERGO    R219683   3.470   0.642   7.035  0.3364 -0.1636  0.0163
 1282ERGO    R319684   3.530   0.826   7.225 -0.1406 -0.0006  0.0228
 1282ERGO    R419685   3.439   0.592   7.376  0.5341 -0.2926  0.0175
 1282ERGO    R519686   3.362   0.796   7.393 -0.0379 -0.4903  0.0518
 1282ERGO    C119687   3.477   0.737   7.752  0.2015 -0.2148  0.0244
 1282ERGO    C219688   3.408   0.706   8.082  0.2516  0.1047  0.0271
 1283ERGO   ROH19689   9.110  12.119   6.675  0.0476  0.2663 -0.1200
 1283ERGO    R119690   9.175  12.197   6.939  0.0184  0.3179 -0.1244
 1283ERGO    R219691   9.003  12.346   7.097 -0.1467  0.0777 -0.0456
 1283ERGO    R319692   9.040  12.141   7.272  0.1750  0.0865 -0.1017
 1283ERGO    R419693   8.985  12.373   7.441 -0.0193 -0.0339 -0.0320
 1283ERGO    R519694   9.156  12.239   7.456  0.1371  0.1716 -0.1369
 1283ERGO    C119695   9.009  12.197   7.806  0.3570 -0.0905 -0.0768
 1283ERGO    C219696   9.016  12.247   8.168 -0.0649 -0.2705 -0.3652
 1284ERGO   ROH19697  14.398   3.444   6.886  0.0899 -0.1736 -0.1431
 1284ERGO    R119698  14.465   3.294   7.116  0.1059 -0.0845 -0.0880
 1284ERGO    R219699  14.632   3.392   7.314  0.0739  0.0177 -0.1030
 1284ERGO    R319700  14.422   3.329   7.476  0.0710  0.0281 -0.1046
 1284ERGO    R419701  14.647   3.373   7.659  0.0297  0.1286 -0.0950
 1284ERGO    R519702  14.520   3.197   7.650  0.0701  0.1058 -0.0514
 1284ERGO    C119703  14.460   3.303   8.012  0.0011  0.2029 -0.0919
 1284ERGO    C219704  14.504   3.214   8.355 -0.0643  0.1119 -0.1144
 1285ERGO   ROH19705  17.374  15.196   6.695  0.1316 -0.2876 -0.0915
 1285ERGO    R119706  17.361  15.125   6.968  0.0916 -0.1153 -0.0462
 1285ERGO    R219707  17.526  15.236   7.160  0.1831 -0.1167 -0.1174
 1285ERGO    R319708  17.291  15.294   7.283  0.2263  0.1272 -0.1452
 1285ERGO    R419709  17.476  15.234   7.502  0.0846 -0.2560 -0.1327
 1285ERGO    R519710  17.281  15.142   7.468 -0.0308  0.0278 -0.2395
 1285ERGO    C119711  17.226  15.286   7.816  0.0679 -0.1081 -0.1677
 1285ERGO    C219712  17.168  15.230   8.102 -0.1024 -0.0122 -0.0800
 1286ERGO   ROH19713   5.994   7.505   6.607 -0.1504  0.1205  0.0874
 1286ERGO    R119714   6.076   7.437   6.870 -0.1158  0.0777  0.0648
 1286ERGO    R219715   6.181   7.623   7.045 -0.0715  0.0409  0.0691
 1286ERGO    R319716   5.982   7.534   7.208 -0.0509  0.0397  0.0953
 1286ERGO    R419717   6.187   7.641   7.390 -0.1882  0.4039  0.0577
 1286ERGO    R519718   6.098   7.441   7.396 -0.0245  0.3276  0.2311
 1286ERGO    C119719   6.004   7.567   7.744 -0.2368  0.6142  0.0758
 1286ERGO    C219720   6.130   7.617   8.116 -0.1072 -0.1699 -0.0975
 1287ERGO   ROH19721   5.683   3.575   6.657 -0.0294 -0.0202  0.0649
 1287ERGO    R119722   5.539   3.609   6.898  0.0077  0.0671  0.0762
 1287ERGO    R219723   5.498   3.402   7.078 -0.0812  0.0951  0.0955
 1287ERGO    R319724   5.608   3.578   7.254  0.0256  0.0527  0.0702
 1287ERGO    R419725   5.471   3.382   7.422 -0.0516  0.1421  0.1000
 1287ERGO    R519726   5.446   3.597   7.429  0.0591  0.1513  0.0859
 1287ERGO    C119727   5.559   3.534   7.787  0.0660  0.1297  0.0789
 1287ERGO    C219728   5.616   3.538   8.252 -0.0372 -0.0376  0.0812
 1288ERGO   ROH19729  16.272  13.472   6.819  0.0264 -0.0911 -0.0501
 1288ERGO    R119730  16.190  13.374   7.071  0.1461 -0.1687 -0.0401
 1288ERGO    R219731  16.370  13.291   7.264  0.2523  0.1010 -0.0183
 1288ERGO    R319732  16.236  13.469   7.419  0.0003 -0.0562 -0.0511
 1288ERGO    R419733  16.356  13.281   7.609  0.1698  0.0755 -0.0227
 1288ERGO    R519734  16.146  13.337   7.598  0.1045 -0.1679 -0.0797
 1288ERGO    C119735  16.222  13.442   7.956 -0.1146 -0.0870 -0.0560
 1288ERGO    C219736  16.241  13.427   8.296  0.1707  0.2226 -0.2503
 1289ERGO   ROH19737   4.114  11.331   6.483 -0.0560  0.1379 -0.0239
 1289ERGO    R119738   4.046  11.462   6.725 -0.0358  0.0847  0.0108
 1289ERGO    R219739   3.882  11.347   6.915 -0.0732  0.0694 -0.0301
 1289ERGO    R319740   4.091  11.399   7.081 -0.0680 -0.0295 -0.0047
 1289ERGO    R419741   3.856  11.390   7.257 -0.1416  0.3719 -0.0705
 1289ERGO    R519742   4.001  11.552   7.242  0.0451  0.2020 -0.1553
 1289ERGO    C119743   4.038  11.464   7.612 -0.1766  0.4552 -0.0701
 1289ERGO    C219744   3.884  11.550   7.972  0.2172 -0.2242 -0.0790
 1290ERGO   ROH19745  15.971  15.277   6.714 -0.0477  0.2266 -0.0294
 1290ERGO    R119746  15.808  15.282   6.945  0.0337  0.2759  0.0277
 1290ERGO    R219747  15.832  15.097   7.149 -0.1100  0.1203 -0.0925
 1290ERGO    R319748  15.858  15.319   7.303  0.1987  0.0017  0.0356
 1290ERGO    R419749  15.800  15.104   7.493 -0.1223 -0.0250 -0.0901
 1290ERGO    R519750  15.693  15.292   7.475  0.1471  0.1420  0.0080
 1290ERGO    C119751  15.805  15.316   7.838  0.1605 -0.2211  0.0316
 1290ERGO    C219752  15.773  15.221   8.132 -0.0433 -0.0166  0.1570
 1291ERGO   ROH19753  15.058   9.343   6.448 -0.0857 -0.0781  0.0313
 1291ERGO    R119754  15.133   9.186   6.671  0.0892  0.0560  0.0662
 1291ERGO    R219755  15.277   9.289   6.883 -0.1178  0.2911  0.0853
 1291ERGO    R319756  15.071   9.190   7.030 -0.0053 -0.0009  0.0536
 1291ERGO    R419757  15.270   9.277   7.228 -0.1306  0.2783  0.0855
 1291ERGO    R519758  15.179   9.079   7.214  0.1392  0.1387  0.0652
 1291ERGO    C119759  15.073   9.176   7.568 -0.0324 -0.0033  0.0559
 1291ERGO    C219760  15.074   9.165   7.919 -0.1576  0.0346 -0.1393
 1292ERGO   ROH19761  13.048  13.704   6.869 -0.1184  0.1832  0.0475
 1292ERGO    R119762  12.942  13.841   7.093 -0.2572  0.1146  0.0254
 1292ERGO    R219763  12.763  13.725   7.268 -0.1302 -0.0443  0.0542
 1292ERGO    R319764  12.946  13.800   7.455 -0.2001  0.1848  0.0326
 1292ERGO    R419765  12.713  13.713   7.610 -0.0390 -0.2079  0.0631
 1292ERGO    R519766  12.816  13.905   7.626 -0.3224 -0.0534  0.0881
 1292ERGO    C119767  12.855  13.778   7.984 -0.0514 -0.0880  0.0480
 1292ERGO    C219768  12.743  13.815   8.398  0.0725 -0.0060  0.0013
 1293ERGO   ROH19769  10.252   8.026   6.418 -0.0058 -0.1241  0.0477
 1293ERGO    R119770  10.085   8.134   6.620  0.0038 -0.0355  0.0090
 1293ERGO    R219771   9.975   7.979   6.821 -0.1306  0.0199 -0.0178
 1293ERGO    R319772  10.093   8.162   6.982 -0.0664 -0.0464  0.0107
 1293ERGO    R419773   9.912   8.015   7.159  0.0201 -0.1225  0.0268
 1293ERGO    R519774   9.920   8.231   7.132  0.0012 -0.1142  0.1171
 1293ERGO    C119775   9.986   8.208   7.507  0.1681 -0.2676  0.0794
 1293ERGO    C219776   9.980   8.091   7.858 -0.1313 -0.0598 -0.0204
 1294ERGO   ROH19777   5.596  17.371   6.504 -0.1674 -0.2406 -0.0229
 1294ERGO    R119778   5.514  17.390   6.775 -0.0767 -0.0919 -0.0051
 1294ERGO    R219779   5.530  17.177   6.951 -0.1691 -0.0413  0.0619
 1294ERGO    R319780   5.670  17.354   7.101 -0.0068 -0.0837 -0.0368
 1294ERGO    R419781   5.550  17.171   7.296 -0.0362  0.0248  0.0562
 1294ERGO    R519782   5.534  17.388   7.296  0.0867  0.0375  0.0116
 1294ERGO    C119783   5.694  17.333   7.638  0.1937  0.0235 -0.0397
 1294ERGO    C219784   5.569  17.224   7.899 -0.1304 -0.3169 -0.0355
 1295ERGO   ROH19785   4.221   5.825   6.708  0.0665 -0.0909 -0.0336
 1295ERGO    R119786   4.109   5.725   6.947 -0.1046  0.0900 -0.0355
 1295ERGO    R219787   4.263   5.626   7.154 -0.2646 -0.1732 -0.0347
 1295ERGO    R319788   4.124   5.808   7.301  0.0332  0.0624 -0.0348
 1295ERGO    R419789   4.224   5.616   7.498 -0.3036 -0.1199 -0.0377
 1295ERGO    R519790   4.017   5.679   7.472 -0.2001  0.2351 -0.0465
 1295ERGO    C119791   4.071   5.781   7.835 -0.0468  0.1324 -0.0396
 1295ERGO    C219792   4.119   5.683   8.183  0.0354  0.1725 -0.2048
 1296ERGO   ROH19793  15.082  14.660   6.699 -0.0816 -0.0609 -0.1198
 1296ERGO    R119794  15.086  14.781   6.954  0.0072 -0.0227 -0.1390
 1296ERGO    R219795  14.877  14.758   7.134  0.0222  0.0952 -0.1050
 1296ERGO    R319796  15.072  14.668   7.300  0.0081  0.0366 -0.1198
 1296ERGO    R419797  14.851  14.741   7.478 -0.0461 -0.1298 -0.1196
 1296ERGO    R519798  15.057  14.811   7.492 -0.0665 -0.0889 -0.0318
 1296ERGO    C119799  15.018  14.647   7.835 -0.0992 -0.3159 -0.1419
 1296ERGO    C219800  15.026  14.723   8.145 -0.0461 -0.2286  0.1973
 1297ERGO   ROH19801  12.251   6.998   6.518 -0.1845 -0.0079  0.1142
 1297ERGO    R119802  12.229   6.851   6.759  0.0986 -0.0970  0.0896
 1297ERGO    R219803  12.445   6.805   6.925  0.2165  0.1954  0.0262
 1297ERGO    R319804  12.283   6.915   7.113  0.0899 -0.0892  0.0891
 1297ERGO    R419805  12.490   6.774   7.266  0.3822  0.2429  0.0093
 1297ERGO    R519806  12.274   6.751   7.287  0.4234 -0.1216  0.0808
 1297ERGO    C119807  12.364   6.860   7.641  0.3600  0.0035  0.0585
 1297ERGO    C219808  12.320   6.910   7.931 -0.0262  0.0781 -0.0383
 1298ERGO   ROH19809   9.044   1.563   6.340  0.4993  0.0315 -0.1118
 1298ERGO    R119810   9.184   1.614   6.581  0.2886  0.0319  0.0137
 1298ERGO    R219811   9.129   1.832   6.742  0.2183  0.0929 -0.0896
 1298ERGO    R319812   9.101   1.642   6.934 -0.0440  0.1473 -0.0701
 1298ERGO    R419813   9.140   1.892   7.082  0.3073  0.1100 -0.0954
 1298ERGO    R519814   9.254   1.709   7.106  0.0530 -0.0494 -0.0792
 1298ERGO    C119815   9.120   1.749   7.460  0.1130  0.1710 -0.0804
 1298ERGO    C219816   9.114   1.792   7.787 -0.0794 -0.1259 -0.1964
 1299ERGO   ROH19817   7.619   3.628   6.205 -0.1906 -0.0768 -0.0085
 1299ERGO    R119818   7.587   3.491   6.451 -0.1322 -0.0141  0.0345
 1299ERGO    R219819   7.758   3.529   6.665  0.0062 -0.0666 -0.0629
 1299ERGO    R319820   7.528   3.583   6.798  0.1052  0.0852  0.0505
 1299ERGO    R419821   7.729   3.554   7.009  0.1651 -0.1590 -0.0417
 1299ERGO    R519822   7.540   3.448   6.996  0.0696  0.0077 -0.0017
 1299ERGO    C119823   7.496   3.620   7.333  0.3506 -0.0705  0.0771
 1299ERGO    C219824   7.538   3.672   7.662  0.0951  0.0610 -0.2383
 1300ERGO   ROH19825   7.101  13.528   6.762 -0.2086 -0.2134  0.0537
 1300ERGO    R119826   7.038  13.696   6.981 -0.2313 -0.0807 -0.0557
 1300ERGO    R219827   6.779  13.769   7.043 -0.2510 -0.2254  0.0037
 1300ERGO    R319828   6.844  13.670   7.287 -0.0672  0.0301  0.0611
 1300ERGO    R419829   6.666  13.896   7.344 -0.3633 -0.1528 -0.0679
 1300ERGO    R519830   6.865  13.864   7.426 -0.2952  0.1669 -0.0821
 1300ERGO    C119831   6.662  13.877   7.748 -0.2561  0.1291 -0.0557
 1300ERGO    C219832   6.622  13.810   8.105  0.0695 -0.3473  0.1070
 1301ERGO   ROH19833   2.484   4.274   6.648  0.0310  0.2899 -0.1130
 1301ERGO    R119834   2.356   4.356   6.887  0.1746  0.2741 -0.0318
 1301ERGO    R219835   2.274   4.177   7.081 -0.0036  0.2361 -0.1513
 1301ERGO    R319836   2.425   4.333   7.244  0.2127 -0.0607 -0.0549
 1301ERGO    R419837   2.260   4.174   7.426 -0.2688  0.2743 -0.1579
 1301ERGO    R519838   2.278   4.391   7.424  0.1849  0.2542 -0.1641
 1301ERGO    C119839   2.394   4.319   7.780 -0.2202  0.0180 -0.0712
 1301ERGO    C219840   2.383   4.284   8.056  0.2237  0.2743  0.1377
 1302ERGO   ROH19841   7.050   1.734   6.441  0.0827 -0.2210  0.0688
 1302ERGO    R119842   7.117   1.626   6.694  0.1990 -0.0612  0.1075
 1302ERGO    R219843   7.264   1.767   6.882 -0.1257  0.2472  0.1401
 1302ERGO    R319844   7.053   1.710   7.042 -0.0815 -0.1284  0.0749
 1302ERGO    R419845   7.277   1.741   7.226 -0.1774  0.2635  0.1433
 1302ERGO    R519846   7.143   1.571   7.214  0.1178  0.0209  0.0978
 1302ERGO    C119847   7.086   1.672   7.577 -0.1660 -0.0796  0.0839
 1302ERGO    C219848   7.000   1.675   7.965  0.0107  0.2614 -0.2148
 1303ERGO   ROH19849  12.227   8.025   6.665  0.0039 -0.0432  0.0250
 1303ERGO    R119850  12.147   8.206   6.867  0.0687  0.0140  0.0005
 1303ERGO    R219851  11.973   8.136   7.071 -0.0306  0.1303 -0.0392
 1303ERGO    R319852  12.174   8.227   7.230 -0.0095  0.0036  0.0063
 1303ERGO    R419853  11.961   8.153   7.416 -0.0446  0.0167 -0.0344
 1303ERGO    R519854  12.063   8.345   7.405  0.0236 -0.0180  0.0393
 1303ERGO    C119855  12.142   8.249   7.766 -0.0330 -0.1683  0.0112
 1303ERGO    C219856  12.008   8.306   7.985  0.1884  0.1144 -0.0918
 1304ERGO   ROH19857   8.064   8.486   6.380 -0.2135  0.0665  0.1182
 1304ERGO    R119858   8.177   8.477   6.639 -0.2415 -0.1477  0.1239
 1304ERGO    R219859   8.171   8.692   6.812  0.0746 -0.1650  0.1547
 1304ERGO    R319860   8.058   8.512   6.981 -0.2093 -0.0225  0.1243
 1304ERGO    R419861   8.176   8.714   7.157  0.2144 -0.2763  0.1611
 1304ERGO    R519862   8.210   8.499   7.166 -0.1695 -0.3539  0.0801
 1304ERGO    C119863   8.073   8.557   7.517  0.0295 -0.2072  0.1362
 1304ERGO    C219864   8.039   8.522   7.857  0.3534 -0.0611 -0.0984
 1305ERGO   ROH19865  15.735   5.610   6.758 -0.0527 -0.0194  0.0725
 1305ERGO    R119866  15.839   5.609   7.020  0.0648  0.2046  0.0281
 1305ERGO    R219867  15.764   5.795   7.211 -0.2493  0.0559  0.0545
 1305ERGO    R319868  15.707   5.573   7.358  0.2786 -0.0725  0.0861
 1305ERGO    R419869  15.770   5.780   7.556 -0.2549  0.1323  0.0584
 1305ERGO    R519870  15.861   5.583   7.541  0.2430  0.3430  0.1055
 1305ERGO    C119871  15.720   5.563   7.895  0.2376  0.0562  0.0904
 1305ERGO    C219872  15.681   5.571   8.221 -0.0480 -0.0225 -0.2572
 1306ERGO   ROH19873   0.223  11.097   6.724 -0.0696  0.2608 -0.0248
 1306ERGO    R119874   0.327  11.021   6.976 -0.0802  0.1818 -0.0451
 1306ERGO    R219875   0.377  11.202   7.178 -0.1943  0.1019  0.0494
 1306ERGO    R319876   0.218  11.036   7.323 -0.1444 -0.0376 -0.0523
 1306ERGO    R419877   0.309  11.239   7.515 -0.3541 -0.0041  0.0302
 1306ERGO    R519878   0.326  11.022   7.536 -0.2160 -0.0047 -0.0083
 1306ERGO    C119879   0.120  11.103   7.847 -0.4003 -0.1968 -0.0765
 1306ERGO    C219880   0.083  11.139   8.249 -0.1972 -0.0387 -0.2868
 1307ERGO   ROH19881   4.531  14.498   6.681  0.3175  0.3582 -0.0234
 1307ERGO    R119882   4.631  14.546   6.941  0.0925  0.2105  0.0941
 1307ERGO    R219883   4.545  14.759   7.097 -0.0706  0.1044  0.1608
 1307ERGO    R319884   4.493  14.563   7.278 -0.1965 -0.0223 -0.0104
 1307ERGO    R419885   4.578  14.791   7.439 -0.0819 -0.2205  0.1953
 1307ERGO    R519886   4.661  14.590   7.446 -0.2001 -0.2688  0.0299
 1307ERGO    C119887   4.549  14.626   7.808 -0.2067 -0.5285  0.0547
 1307ERGO    C219888   4.601  14.628   8.155  0.0739 -0.0078  0.1658
 1308ERGO   ROH19889   1.457   4.282   6.633 -0.0332 -0.1719  0.0333
 1308ERGO    R119890   1.333   4.363   6.874  0.0388 -0.0891  0.0422
 1308ERGO    R219891   1.225   4.182   7.054  0.0693 -0.0240  0.1212
 1308ERGO    R319892   1.389   4.310   7.230  0.1256  0.0110  0.0450
 1308ERGO    R419893   1.181   4.188   7.397  0.0450  0.2254  0.1159
 1308ERGO    R519894   1.241   4.398   7.396  0.1547  0.1997 -0.0220
 1308ERGO    C119895   1.309   4.312   7.762  0.0837  0.4035  0.0413
 1308ERGO    C219896   1.370   4.271   8.039  0.4171  0.1374  0.0242
 1309ERGO   ROH19897  12.510   7.670   6.696 -0.1009 -0.0488 -0.1336
 1309ERGO    R119898  12.464   7.817   6.933 -0.1448 -0.0846 -0.1203
 1309ERGO    R219899  12.263   7.753   7.111 -0.1050 -0.1807 -0.1125
 1309ERGO    R319900  12.467   7.750   7.291 -0.0915 -0.1082 -0.1242
 1309ERGO    R419901  12.227   7.794   7.453 -0.0935 -0.1143 -0.1186
 1309ERGO    R519902  12.407   7.916   7.452 -0.1117 -0.0818 -0.1557
 1309ERGO    C119903  12.398   7.814   7.820 -0.0741 -0.0076 -0.1331
 1309ERGO    C219904  12.233   7.873   8.116  0.3419 -0.3216  0.0291
 1310ERGO   ROH19905   1.268   9.462   6.558  0.0841 -0.1104  0.0618
 1310ERGO    R119906   1.341   9.330   6.797  0.4026  0.1752  0.1299
 1310ERGO    R219907   1.505   9.446   6.988 -0.0552  0.7732  0.1933
 1310ERGO    R319908   1.299   9.387   7.154  0.0280  0.1346  0.0954
 1310ERGO    R419909   1.532   9.408   7.330 -0.0828  0.6889  0.1860
 1310ERGO    R519910   1.394   9.240   7.317  0.3682  0.3098  0.0606
 1310ERGO    C119911   1.354   9.331   7.686 -0.0207  0.0401  0.0899
 1310ERGO    C219912   1.275   9.306   7.968  0.1019  0.1569  0.3164
 1311ERGO   ROH19913  12.170  12.416   6.401  0.1230 -0.1151  0.1448
 1311ERGO    R119914  12.228  12.313   6.658  0.1238 -0.0331  0.1780
 1311ERGO    R219915  12.303  12.475   6.870 -0.0425  0.0548  0.1732
 1311ERGO    R319916  12.094  12.353   6.995  0.0053 -0.0662  0.1350
 1311ERGO    R419917  12.241  12.488   7.210 -0.0185 -0.1220  0.1847
 1311ERGO    R519918  12.186  12.277   7.203  0.0449 -0.1350  0.0919
 1311ERGO    C119919  12.010  12.381   7.525  0.0404 -0.3386  0.1555
 1311ERGO    C219920  12.054  12.349   7.855  0.1003  0.2390 -0.0648
 1312ERGO   ROH19921  10.572  15.887   6.553 -0.0270 -0.0718 -0.0557
 1312ERGO    R119922  10.503  15.836   6.822  0.1489 -0.1513 -0.0248
 1312ERGO    R219923  10.693  15.797   7.020  0.2867  0.2348 -0.0761
 1312ERGO    R319924  10.557  15.997   7.144 -0.0486  0.0124 -0.0712
 1312ERGO    R419925  10.698  15.856   7.360  0.5783  0.5069 -0.1222
 1312ERGO    R519926  10.484  15.899   7.350  0.4438 -0.0179  0.1046
 1312ERGO    C119927  10.573  16.078   7.675  0.4333  0.4566 -0.1444
 1312ERGO    C219928  10.632  16.129   8.075  0.1512  0.0583  0.0144
 1313ERGO   ROH19929   0.116  16.260   6.572  0.0631 -0.2078  0.1640
 1313ERGO    R119930   0.229  16.181   6.820  0.2284  0.0183  0.1642
 1313ERGO    R219931   0.343  16.362   6.995  0.0886  0.2204  0.0551
 1313ERGO    R319932   0.168  16.251   7.172  0.2615  0.1017  0.1532
 1313ERGO    R419933   0.386  16.354   7.338  0.2048  0.3964  0.0450
 1313ERGO    R519934   0.308  16.151   7.339  0.4202  0.3129  0.1487
 1313ERGO    C119935   0.247  16.246   7.703  0.4348  0.3871  0.1312
 1313ERGO    C219936   0.350  16.223   8.024  0.0073  0.3473 -0.0366
 1314ERGO   ROH19937   7.002  11.213   6.490  0.0196  0.0799  0.0071
 1314ERGO    R119938   7.086  11.200   6.760 -0.0419  0.0906  0.0263
 1314ERGO    R219939   7.040  11.404   6.941 -0.2266  0.0284  0.0476
 1314ERGO    R319940   6.926  11.205   7.087 -0.1307 -0.0727 -0.0129
 1314ERGO    R419941   7.029  11.393   7.286 -0.2080 -0.0865  0.0455
 1314ERGO    R519942   7.071  11.179   7.276 -0.1098 -0.0671 -0.0260
 1314ERGO    C119943   6.917  11.200   7.625 -0.1072 -0.2485 -0.0126
 1314ERGO    C219944   6.802  11.223   8.030  0.1458 -0.0845  0.0133
 1315ERGO   ROH19945  14.221  15.064   6.682  0.0138  0.0326 -0.1815
 1315ERGO    R119946  14.193  15.242   6.900  0.0635 -0.0173 -0.1352
 1315ERGO    R219947  14.033  15.185   7.119  0.0298 -0.0201 -0.1644
 1315ERGO    R319948  14.262  15.235   7.257  0.0375 -0.1383 -0.1313
 1315ERGO    R419949  14.059  15.184   7.463 -0.0483  0.0745 -0.1569
 1315ERGO    R519950  14.188  15.359   7.449  0.0822 -0.0205 -0.1871
 1315ERGO    C119951  14.288  15.230   7.794 -0.0866  0.0188 -0.1214
 1315ERGO    C219952  14.245  15.191   8.105  0.3164 -0.2525  0.1600
 1316ERGO   ROH19953   4.786   3.233   6.510  0.1272  0.0022  0.0196
 1316ERGO    R119954   4.665   3.185   6.761  0.1151 -0.1500 -0.0133
 1316ERGO    R219955   4.726   2.964   6.916  0.4064 -0.0431  0.0375
 1316ERGO    R319956   4.777   3.152   7.106  0.0585  0.0685  0.0270
 1316ERGO    R419957   4.704   2.911   7.257  0.2726  0.0118  0.0370
 1316ERGO    R519958   4.615   3.109   7.277  0.0107 -0.0945 -0.0598
 1316ERGO    C119959   4.738   3.057   7.634 -0.1318  0.1485  0.0268
 1316ERGO    C219960   4.782   3.036   8.010  0.0487 -0.0639 -0.0649
 1317ERGO   ROH19961  16.300  12.582   6.958 -0.0457 -0.4390 -0.0717
 1317ERGO    R119962  16.248  12.495   7.222 -0.0840 -0.2439 -0.0138
 1317ERGO    R219963  16.448  12.416   7.395 -0.1101 -0.1167  0.0743
 1317ERGO    R319964  16.337  12.602   7.558 -0.1333  0.0044 -0.0775
 1317ERGO    R419965  16.384  12.371   7.732 -0.0545  0.1669  0.1252
 1317ERGO    R519966  16.196  12.476   7.705 -0.0843  0.0990  0.0541
 1317ERGO    C119967  16.243  12.520   8.081 -0.0442  0.4457  0.0124
 1317ERGO    C219968  16.253  12.383   8.395  0.1495 -0.1892  0.0183
 1318ERGO   ROH19969   0.876  14.406   6.508 -0.3808 -0.2287 -0.0618
 1318ERGO    R119970   0.939  14.481   6.773 -0.0748 -0.2426 -0.1267
 1318ERGO    R219971   0.747  14.561   6.955  0.1631  0.0292  0.0164
 1318ERGO    R319972   0.856  14.365   7.108  0.0547 -0.0695 -0.0335
 1318ERGO    R419973   0.788  14.577   7.298  0.2962 -0.0302  0.0038
 1318ERGO    R519974   0.982  14.481   7.274  0.2080 -0.1873 -0.0686
 1318ERGO    C119975   0.912  14.401   7.641  0.2719 -0.1575 -0.0503
 1318ERGO    C219976   0.924  14.405   7.925 -0.0698  0.2903  0.0179
 1319ERGO   ROH19977   4.616  15.492   6.762 -0.1002  0.1436 -0.1045
 1319ERGO    R119978   4.501  15.460   7.018 -0.1097  0.2001 -0.1019
 1319ERGO    R219979   4.621  15.311   7.218 -0.2047  0.0951 -0.1237
 1319ERGO    R319980   4.593  15.540   7.361 -0.0345  0.1016 -0.0983
 1319ERGO    R419981   4.616  15.328   7.563 -0.1068  0.0703 -0.1207
 1319ERGO    R519982   4.457  15.477   7.548 -0.0250  0.1654 -0.0688
 1319ERGO    C119983   4.588  15.554   7.898  0.1100  0.0619 -0.0950
 1319ERGO    C219984   4.605  15.467   8.249  0.0480 -0.2236  0.1073
 1320ERGO   ROH19985  15.562   6.736   6.398  0.2563 -0.1058 -0.0493
 1320ERGO    R119986  15.632   6.894   6.623  0.1524 -0.0561 -0.0502
 1320ERGO    R219987  15.443   7.007   6.791  0.0741 -0.0940 -0.1069
 1320ERGO    R319988  15.584   6.877   6.983  0.0693 -0.0295 -0.0606
 1320ERGO    R419989  15.404   7.054   7.131  0.0059 -0.0498 -0.1213
 1320ERGO    R519990  15.620   7.041   7.153  0.0020  0.0034 -0.0810
 1320ERGO    C119991  15.512   6.958   7.509 -0.0384  0.0365 -0.0863
 1320ERGO    C219992  15.473   7.009   7.891  0.1925 -0.0059  0.0177
 1321ERGO   ROH19993   9.521  13.117   6.752  0.1044 -0.0610  0.0719
 1321ERGO    R119994   9.622  13.104   7.015  0.1588  0.1879  0.0680
 1321ERGO    R219995   9.598  13.312   7.195 -0.3219  0.1536  0.0667
 1321ERGO    R319996   9.486  13.121   7.353  0.1287 -0.1168  0.0713
 1321ERGO    R419997   9.595  13.317   7.541 -0.2376  0.0800  0.0675
 1321ERGO    R519998   9.635  13.103   7.539  0.2188  0.1637  0.0231
 1321ERGO    C119999   9.488  13.141   7.890  0.2344 -0.2168  0.0723
 1321ERGO    C220000   9.523  13.145   8.111 -0.0499 -0.0649 -0.2589
 1322ERGO   ROH20001  15.690  11.873   6.933 -0.0893 -0.1783 -0.0356
 1322ERGO    R120002  15.733  11.976   7.193  0.0176 -0.1361 -0.0695
 1322ERGO    R220003  15.527  12.042   7.364  0.0864  0.0145 -0.0422
 1322ERGO    R320004  15.657  11.875   7.535  0.0339 -0.0112 -0.0278
 1322ERGO    R420005  15.532  12.076   7.708  0.0977  0.0507 -0.0466
 1322ERGO    R520006  15.743  12.020   7.705  0.0815 -0.0189 -0.0434
 1322ERGO    C120007  15.658  11.940   8.068  0.0549  0.0475 -0.0356
 1322ERGO    C220008  15.525  11.978   8.376  0.1046 -0.2282  0.1187
 1323ERGO   ROH20009  17.287  10.210   6.905 -0.1407 -0.1148 -0.0913
 1323ERGO    R120010  17.124  10.158   7.130 -0.0652 -0.0772 -0.0274
 1323ERGO    R220011  17.210  10.005   7.344  0.0336  0.0193  0.0044
 1323ERGO    R320012  17.139  10.224   7.488  0.0182  0.0532 -0.0548
 1323ERGO    R420013  17.181  10.015   7.688 -0.4350 -0.0175 -0.0271
 1323ERGO    R520014  17.003  10.138   7.665 -0.3021  0.1356 -0.2535
 1323ERGO    C120015  17.098  10.226   8.023 -0.7223 -0.0069 -0.1011
 1323ERGO    C220016  17.068  10.251   8.301 -0.0018  0.1059 -0.0812
 1324ERGO   ROH20017   3.485   2.566   6.641 -0.1189  0.0423 -0.1172
 1324ERGO    R120018   3.473   2.660   6.907  0.0221  0.0914 -0.1292
 1324ERGO    R220019   3.279   2.578   7.086  0.0247  0.2461 -0.0646
 1324ERGO    R320020   3.494   2.516   7.241  0.0280  0.1324 -0.1094
 1324ERGO    R420021   3.282   2.587   7.431 -0.0389 -0.1736 -0.0456
 1324ERGO    R520022   3.483   2.672   7.422 -0.0605 -0.0839  0.0850
 1324ERGO    C120023   3.486   2.535   7.778 -0.0728 -0.5248 -0.0765
 1324ERGO    C220024   3.396   2.484   8.130 -0.2171 -0.0625 -0.0656
 1325ERGO   ROH20025  11.241   4.756   6.424 -0.0078  0.1300  0.0381
 1325ERGO    R120026  11.110   4.687   6.665  0.0946 -0.1300  0.0238
 1325ERGO    R220027  11.195   4.479   6.827  0.4404 -0.0208 -0.0018
 1325ERGO    R320028  11.196   4.673   7.018  0.1100 -0.0386  0.0225
 1325ERGO    R420029  11.186   4.421   7.167  0.2182 -0.0545 -0.0124
 1325ERGO    R520030  11.049   4.589   7.188  0.0499 -0.1837 -0.1036
 1325ERGO    C120031  11.182   4.568   7.545 -0.2212 -0.0909  0.0043
 1325ERGO    C220032  11.228   4.553   7.858  0.0495  0.0214  0.4748
 1326ERGO   ROH20033   7.919  10.647   6.576 -0.1998 -0.2087  0.0624
 1326ERGO    R120034   7.899  10.797   6.815 -0.1658 -0.1356  0.0192
 1326ERGO    R220035   7.687  10.769   6.991 -0.0439 -0.2204  0.1514
 1326ERGO    R320036   7.886  10.727   7.172  0.0917 -0.0140  0.0555
 1326ERGO    R420037   7.661  10.830   7.330  0.0612 -0.2275  0.1615
 1326ERGO    R520038   7.864  10.908   7.327 -0.0142 -0.0233  0.0551
 1326ERGO    C120039   7.831  10.825   7.697  0.2497 -0.0382  0.0774
 1326ERGO    C220040   7.759  10.820   7.943  0.4169  0.2785  0.1570
 1327ERGO   ROH20041  10.963  16.803   6.560  0.1819  0.0005 -0.0618
 1327ERGO    R120042  11.009  16.931   6.808 -0.0099 -0.0181 -0.0151
 1327ERGO    R220043  10.830  16.917   7.019 -0.0460 -0.2635 -0.0606
 1327ERGO    R320044  11.048  16.828   7.155  0.0166 -0.0735 -0.0340
 1327ERGO    R420045  10.889  16.970   7.355  0.1534  0.2934 -0.1727
 1327ERGO    R520046  11.098  17.004   7.309  0.1352  0.1826 -0.3533
 1327ERGO    C120047  11.127  16.918   7.679  0.3283  0.7961 -0.2131
 1327ERGO    C220048  11.118  16.945   7.986 -0.1851  0.0428 -0.0443
 1328ERGO   ROH20049   2.657   1.364   6.546 -0.0454  0.1543 -0.0672
 1328ERGO    R120050   2.572   1.220   6.774  0.0171  0.1352 -0.0559
 1328ERGO    R220051   2.749   1.115   6.959  0.0592  0.3298  0.0161
 1328ERGO    R320052   2.598   1.256   7.136 -0.1094  0.2442 -0.0566
 1328ERGO    R420053   2.782   1.101   7.303 -0.0649  0.3863  0.0311
 1328ERGO    R520054   2.565   1.106   7.319 -0.0774  0.2378 -0.0551
 1328ERGO    C120055   2.661   1.226   7.669 -0.2955  0.3390 -0.0284
 1328ERGO    C220056   2.677   1.195   8.035  0.0270  0.1284  0.3793
 1329ERGO   ROH20057  10.470   3.072   6.565  0.0141 -0.0991  0.0819
 1329ERGO    R120058  10.529   3.179   6.820 -0.0549 -0.1235  0.1075
 1329ERGO    R220059  10.334   3.227   7.010 -0.1068 -0.1396  0.0566
 1329ERGO    R320060  10.494   3.073   7.166 -0.1506 -0.1554  0.0882
 1329ERGO    R420061  10.321   3.215   7.355 -0.0817 -0.0446  0.0624
 1329ERGO    R520062  10.539   3.209   7.358 -0.0853 -0.1218  0.0484
 1329ERGO    C120063  10.464   3.063   7.702 -0.1082 -0.0041  0.0954
 1329ERGO    C220064  10.333   3.070   8.026 -0.1832  0.1428  0.0249
 1330ERGO   ROH20065  15.526   2.404   6.874  0.1115  0.1464  0.1373
 1330ERGO    R120066  15.634   2.325   7.123  0.1948  0.2124  0.1212
 1330ERGO    R220067  15.681   2.505   7.328 -0.1051  0.2064  0.1927
 1330ERGO    R320068  15.528   2.332   7.471  0.1340 -0.0825  0.1121
 1330ERGO    R420069  15.693   2.469   7.672 -0.2178  0.2473  0.2022
 1330ERGO    R520070  15.674   2.253   7.645  0.2000  0.1962  0.1943
 1330ERGO    C120071  15.556   2.285   8.006 -0.0590  0.0000  0.1321
 1330ERGO    C220072  15.683   2.349   8.341  0.0494  0.0982 -0.0965
 1331ERGO   ROH20073   9.317   3.807   6.367 -0.1396  0.1089  0.0871
 1331ERGO    R120074   9.425   3.904   6.610  0.1051 -0.1238  0.0762
 1331ERGO    R220075   9.279   4.058   6.786  0.4363  0.1492  0.1264
 1331ERGO    R320076   9.353   3.867   6.964  0.1036 -0.0243  0.0853
 1331ERGO    R420077   9.318   4.108   7.126  0.3237 -0.0558  0.1706
 1331ERGO    R520078   9.494   3.981   7.120  0.1668 -0.2737  0.2115
 1331ERGO    C120079   9.409   3.957   7.491 -0.0544 -0.3380  0.1577
 1331ERGO    C220080   9.395   4.010   7.905 -0.0250  0.0174  0.2084
 1332ERGO   ROH20081  14.731  13.255   6.959 -0.1477 -0.2087 -0.0381
 1332ERGO    R120082  14.786  13.366   7.213 -0.1536 -0.0500 -0.1051
 1332ERGO    R220083  14.586  13.431   7.393 -0.1490 -0.0913 -0.0868
 1332ERGO    R320084  14.730  13.271   7.560 -0.0040  0.0822 -0.0433
 1332ERGO    R420085  14.568  13.439   7.738 -0.2373 -0.0803 -0.0915
 1332ERGO    R520086  14.784  13.413   7.745 -0.2048  0.1636 -0.0420
 1332ERGO    C120087  14.692  13.295   8.096 -0.1526  0.0891 -0.0534
 1332ERGO    C220088  14.673  13.450   8.436  0.2142 -0.2436 -0.0599
 1333ERGO   ROH20089  14.691  11.518   6.747 -0.2066  0.2057  0.0940
 1333ERGO    R120090  14.770  11.390   6.986  0.0954  0.1697 -0.0216
 1333ERGO    R220091  14.933  11.511   7.174 -0.2182  0.4064  0.0920
 1333ERGO    R320092  14.729  11.449   7.343 -0.0836 -0.2635  0.0395
 1333ERGO    R420093  14.950  11.530   7.518 -0.3794  0.5910  0.0928
 1333ERGO    R520094  14.837  11.344   7.530  0.2542  0.1627  0.1115
 1333ERGO    C120095  14.769  11.483   7.878 -0.3469  0.0697  0.0439
 1333ERGO    C220096  14.615  11.602   8.252  0.2699 -0.0088 -0.0802
 1334ERGO   ROH20097   6.380  13.050   6.513  0.2046 -0.0714  0.0210
 1334ERGO    R120098   6.323  12.947   6.770  0.2020 -0.1770 -0.0215
 1334ERGO    R220099   6.518  12.902   6.960  0.1679  0.0176  0.0631
 1334ERGO    R320100   6.359  13.058   7.115 -0.0855 -0.1853  0.0136
 1334ERGO    R420101   6.454  12.847   7.295  0.2779  0.0353  0.0874
 1334ERGO    R520102   6.246  12.903   7.259  0.1774 -0.3212  0.0774
 1334ERGO    C120103   6.267  12.962   7.635  0.1040 -0.1447  0.0550
 1334ERGO    C220104   6.195  13.006   8.017  0.3591  0.0973  0.1139
 1335ERGO   ROH20105   3.658   3.863   6.582  0.1564 -0.0658 -0.0007
 1335ERGO    R120106   3.755   3.934   6.838 -0.1509  0.0658  0.0857
 1335ERGO    R220107   3.594   4.049   7.032 -0.5034 -0.2219 -0.0172
 1335ERGO    R320108   3.683   3.841   7.182 -0.2647 -0.1084  0.0184
 1335ERGO    R420109   3.592   4.039   7.377 -0.2022 -0.0474 -0.0089
 1335ERGO    R520110   3.788   3.944   7.371 -0.1507  0.0458 -0.1237
 1335ERGO    C120111   3.675   3.838   7.720  0.1972  0.1607  0.0293
 1335ERGO    C220112   3.872   3.806   8.064  0.0447  0.3235  0.1520
 1336ERGO   ROH20113   7.000   2.578   6.630  0.1664  0.2432 -0.0544
 1336ERGO    R120114   7.107   2.663   6.877  0.2089  0.0154  0.0074
 1336ERGO    R220115   6.952   2.778   7.076  0.3008  0.1493  0.0016
 1336ERGO    R320116   7.059   2.580   7.228 -0.0000 -0.0479 -0.0342
 1336ERGO    R420117   6.986   2.789   7.420  0.3778  0.0697 -0.0031
 1336ERGO    R520118   7.181   2.696   7.399  0.2255 -0.2587 -0.0447
 1336ERGO    C120119   7.106   2.610   7.763  0.1402 -0.1618 -0.0392
 1336ERGO    C220120   6.999   2.499   8.125 -0.3708 -0.0016 -0.0592
 1337ERGO   ROH20121  16.359  16.013   6.763  0.1030  0.0516 -0.1837
 1337ERGO    R120122  16.566  16.016   6.957  0.0360 -0.1667 -0.1074
 1337ERGO    R220123  16.641  16.246   7.091  0.3312 -0.2120 -0.1942
 1337ERGO    R320124  16.594  16.093   7.311  0.0169 -0.0371 -0.1331
 1337ERGO    R420125  16.745  16.322   7.412  0.2713 -0.1776 -0.1818
 1337ERGO    R520126  16.793  16.112   7.441 -0.0189 -0.2315 -0.0441
 1337ERGO    C120127  16.761  16.223   7.805 -0.0587  0.0067 -0.1172
 1337ERGO    C220128  16.641  16.242   8.111 -0.0258  0.0598 -0.0366
 1338ERGO   ROH20129   6.076   3.356   6.422  0.0676  0.2814  0.1001
 1338ERGO    R120130   6.163   3.371   6.691  0.0402  0.0432  0.1249
 1338ERGO    R220131   6.131   3.599   6.845  0.2467 -0.0057  0.2470
 1338ERGO    R320132   6.008   3.426   7.016  0.0407  0.0209  0.1284
 1338ERGO    R420133   6.104   3.644   7.187  0.1326 -0.1207  0.2538
 1338ERGO    R520134   6.143   3.431   7.213 -0.0416 -0.1603  0.1896
 1338ERGO    C120135   5.974   3.508   7.546 -0.1272 -0.1627  0.1464
 1338ERGO    C220136   6.039   3.559   7.932 -0.0542  0.1226 -0.1729
 1339ERGO   ROH20137   5.440   2.630   6.593 -0.1688  0.3937  0.0610
 1339ERGO    R120138   5.533   2.522   6.838 -0.2642  0.1186 -0.0213
 1339ERGO    R220139   5.634   2.679   7.041  0.0803 -0.1436  0.0182
 1339ERGO    R320140   5.445   2.551   7.190 -0.0912  0.1068  0.0240
 1339ERGO    R420141   5.630   2.665   7.387  0.1199 -0.2070  0.0168
 1339ERGO    R520142   5.568   2.457   7.373 -0.1973 -0.1162 -0.0155
 1339ERGO    C120143   5.451   2.537   7.727 -0.0181 -0.0088  0.0215
 1339ERGO    C220144   5.468   2.602   8.105 -0.1862  0.0038  0.2060
 1340ERGO   ROH20145   6.879   7.946   6.360  0.0614  0.0605 -0.0476
 1340ERGO    R120146   6.903   8.049   6.623 -0.0873  0.0385 -0.0250
 1340ERGO    R220147   6.693   8.049   6.802 -0.0815 -0.3384 -0.0134
 1340ERGO    R320148   6.871   7.919   6.961  0.1370 -0.0948 -0.0520
 1340ERGO    R420149   6.711   8.082   7.146  0.1054 -0.1282 -0.0415
 1340ERGO    R520150   6.929   8.080   7.129  0.1024  0.0550 -0.1779
 1340ERGO    C120151   6.890   7.979   7.495  0.4193  0.2229 -0.0942
 1340ERGO    C220152   6.809   8.080   7.770  0.0814 -0.2363 -0.0647
 1341ERGO   ROH20153  10.915   6.933   6.479 -0.2168 -0.2488 -0.0788
 1341ERGO    R120154  10.748   6.875   6.700 -0.1498 -0.1656 -0.0055
 1341ERGO    R220155  10.830   6.714   6.910 -0.0595 -0.0284  0.0683
 1341ERGO    R320156  10.758   6.929   7.060 -0.0758  0.0404 -0.0385
 1341ERGO    R420157  10.875   6.742   7.252 -0.1036  0.1337  0.0618
 1341ERGO    R520158  10.679   6.836   7.265 -0.1012  0.1402 -0.0051
 1341ERGO    C120159  10.834   6.960   7.591 -0.1444  0.2929 -0.0422
 1341ERGO    C220160  10.842   6.893   7.909  0.3238  0.4122  0.0652
 1342ERGO   ROH20161   0.366  12.188   6.958 -0.0300  0.2263  0.1988
 1342ERGO    R120162   0.280  12.091   7.210 -0.0378  0.2194  0.1923
 1342ERGO    R220163   0.454  11.983   7.395 -0.0724  0.0461  0.1159
 1342ERGO    R320164   0.345  12.169   7.559  0.1011  0.0758  0.2021
 1342ERGO    R420165   0.403  11.939   7.734 -0.2855 -0.1544  0.0612
 1342ERGO    R520166   0.211  12.041   7.712 -0.1479  0.1279  0.0418
 1342ERGO    C120167   0.270  12.089   8.086 -0.2467 -0.2432  0.1102
 1342ERGO    C220168   0.155  12.024   8.415  0.0161 -0.0921 -0.2105
 1343ERGO   ROH20169   5.173  13.051   6.277  0.0825 -0.4891  0.0294
 1343ERGO    R120170   5.155  12.908   6.521  0.1330 -0.3340  0.1246
 1343ERGO    R220171   5.378  12.827   6.663  0.1574 -0.0603  0.2361
 1343ERGO    R320172   5.256  12.960   6.866  0.0043 -0.0166  0.1197
 1343ERGO    R420173   5.355  12.713   6.988 -0.0145  0.0305  0.2580
 1343ERGO    R520174   5.151  12.788   6.995 -0.0417 -0.0047  0.1081
 1343ERGO    C120175   5.227  12.772   7.369 -0.2583  0.1243  0.1615
 1343ERGO    C220176   5.239  12.882   7.734  0.1355 -0.1810  0.1632
 1344ERGO   ROH20177  15.057  13.671   6.913 -0.0149  0.1561  0.1544
 1344ERGO    R120178  15.076  13.797   7.165 -0.0004 -0.0204  0.2433
 1344ERGO    R220179  14.855  13.864   7.316 -0.0053  0.1199  0.1787
 1344ERGO    R320180  14.982  13.719   7.508 -0.2463 -0.1371  0.1505
 1344ERGO    R420181  14.819  13.914   7.656  0.2750  0.2916  0.1853
 1344ERGO    R520182  15.034  13.879   7.678  0.2162 -0.2084  0.0878
 1344ERGO    C120183  14.918  13.807   8.034  0.2121  0.1502  0.1628
 1344ERGO    C220184  14.966  13.844   8.349  0.1352 -0.0671  0.1987
 1345ERGO   ROH20185  10.041   1.697   6.358  0.3990  0.1106  0.0997
 1345ERGO    R120186  10.182   1.642   6.597  0.2093 -0.0727  0.1709
 1345ERGO    R220187  10.242   1.838   6.784  0.3632 -0.1523  0.1959
 1345ERGO    R320188  10.117   1.667   6.954  0.0632  0.0044  0.1418
 1345ERGO    R420189  10.251   1.861   7.128 -0.0113  0.0248  0.1999
 1345ERGO    R520190  10.269   1.644   7.138 -0.1483  0.0085  0.3303
 1345ERGO    C120191  10.139   1.714   7.489 -0.5111  0.2750  0.1513
 1345ERGO    C220192  10.096   1.799   7.741 -0.1208  0.1228 -0.2285
 1346ERGO   ROH20193   7.790  12.531   6.691 -0.1199 -0.5590 -0.0623
 1346ERGO    R120194   7.755  12.671   6.934  0.1047 -0.3983 -0.1184
 1346ERGO    R220195   7.539  12.626   7.102  0.0043  0.0450 -0.1144
 1346ERGO    R320196   7.733  12.585   7.287 -0.0772 -0.2283 -0.0869
 1346ERGO    R420197   7.491  12.638   7.444 -0.0591 -0.0551 -0.1201
 1346ERGO    R520198   7.683  12.740   7.462  0.0393 -0.2531 -0.0322
 1346ERGO    C120199   7.646  12.605   7.817 -0.1724 -0.3700 -0.0976
 1346ERGO    C220200   7.598  12.643   8.071  0.1657 -0.0455 -0.0313
 1347W        W20201   9.623   7.869  14.230  0.0832 -0.2522 -0.2313
 1348W        W20202  13.650  12.426  13.366  0.2737  0.0100  0.0449
 1349W        W20203  11.425   9.233   1.146 -0.0461 -0.0347  0.0092
 1350W        W20204   7.469   7.418   4.186 -0.1044 -0.2444 -0.0885
 1351W        W20205  10.671  13.250   4.641  0.0846 -0.0388  0.0026
 1352W        W20206   7.072   2.967   0.078  0.1653 -0.3120  0.0385
 1353W        W20207  10.735   9.780   2.198  0.0913 -0.1382  0.0427
 1354W        W20208   7.898   9.316  12.679 -0.1023 -0.1205  0.1562
 1355W        W20209  14.855   7.574  14.507  0.1634 -0.0006  0.0299
 1356W        W20210  11.217   7.130  16.788 -0.1309  0.2097  0.0468
 1357W        W20211   7.407   0.589   1.541  0.0828  0.2640 -0.1635
 1358W        W20212   3.102   9.798  13.654  0.2999 -0.2433  0.4237
 1359W        W20213  14.836  17.205   5.137 -0.2089  0.0137  0.0300
 1360W        W20214  14.961   0.440  16.853 -0.0711  0.2580 -0.0840
 1361W        W20215   0.159  15.501  17.263  0.0555 -0.2283 -0.3813
 1362W        W20216   4.442  10.874  15.453  0.0426 -0.0097 -0.0329
 1363W        W20217  11.700   0.425   2.396  0.0445  0.1360 -0.1386
 1364W        W20218  12.639   6.100   4.644 -0.0532 -0.2712  0.4349
 1365W        W20219   4.001  12.240  17.138 -0.0773  0.1270  0.1029
 1366W        W20220   4.064   9.980   0.950  0.1433  0.2300 -0.0671
 1367W        W20221   5.562   4.635  15.696 -0.0574 -0.2014  0.0112
 1368W        W20222  16.848  12.369   1.212 -0.1546  0.1226  0.2584
 1369W        W20223   5.479   4.155  13.442 -0.0758  0.1107 -0.2076
 1370W        W20224  10.270   6.950  16.853  0.2956  0.1313  0.4580
 1371W        W20225   1.721  15.949  17.147 -0.2339  0.2886  0.1422
 1372W        W20226  17.147  17.218   1.781  0.0440 -0.2084 -0.1106
 1373W        W20227   7.195  13.139  14.891  0.0988  0.1448 -0.3642
 1374W        W20228  16.216   5.870  13.418  0.1224 -0.0763 -0.2601
 1375W        W20229   1.132  17.370   6.085  0.2744  0.0314  0.0114
 1376W        W20230   8.971   5.848  13.468 -0.1022 -0.1651 -0.0366
 1377W        W20231  13.393  15.821   2.522  0.2064  0.1374 -0.4311
 1378W        W20232   2.724   6.889   4.798  0.0342 -0.2123  0.4441
 1379W        W20233  14.246  13.570  13.924 -0.0896  0.0614 -0.0503
 1380W        W20234  10.328  12.349  13.901  0.2118 -0.3266 -0.0087
 1381W        W20235  15.377   4.437  13.368  0.1793 -0.0932 -0.0141
 1382W        W20236  15.459  12.431  13.415  0.1858  0.0295 -0.1759
 1383W        W20237  11.909   0.471  17.411  0.2330 -0.2954 -0.1631
 1384W        W20238  13.485   5.331  12.894  0.2012 -0.1837 -0.0836
 1385W        W20239   7.877   7.343  14.455 -0.1564  0.1280 -0.1165
 1386W        W20240  14.132   4.109   1.705  0.0395 -0.2983 -0.2075
 1387W        W20241   3.377   4.359  12.763 -0.1493  0.1417 -0.3209
 1388W        W20242   7.410   7.068   3.874 -0.0425  0.2826  0.4393
 1389W        W20243  13.147   8.300   1.427  0.0240 -0.1459 -0.3358
 1390W        W20244  10.501   6.204   3.084  0.0262 -0.2201  0.0191
 1391W        W20245   8.791   1.923   3.572  0.1897 -0.1348 -0.0523
 1392W        W20246   2.578  11.190  17.216 -0.3001  0.0859 -0.0417
 1393W        W20247   1.347   9.046   3.290 -0.3101 -0.1284 -0.0820
 1394W        W20248  16.696   2.885   3.009 -0.0699  0.0380  0.2111
 1395W        W20249   5.670  15.429  14.133  0.0193  0.0339  0.1162
 1396W        W20250  12.564  14.676  13.404 -0.0747  0.3111 -0.1615
 1397W        W20251  12.859   6.968  15.137 -0.0731 -0.2793  0.3012
 1398W        W20252  13.406   7.766  14.151 -0.1812  0.2874  0.0300
 1399W        W20253   7.651   3.684   3.747 -0.1653  0.0909  0.2131
 1400W        W20254  11.822   5.756  12.930  0.2405 -0.0597  0.0466
 1401W        W20255   9.634  16.753   4.248  0.2026 -0.1003  0.1237
 1402W        W20256  10.781  15.683  12.929 -0.2470  0.1242  0.2068
 1403W        W20257   5.331   5.684  16.573  0.0981  0.0662 -0.0666
 1404W        W20258  17.108  16.562   2.617 -0.1566 -0.0946  0.2244
 1405W        W20259   2.690  12.096   2.848 -0.0324 -0.1758 -0.2119
 1406W        W20260  15.259  16.222   1.754 -0.0365 -0.0401  0.1105
 1407W        W20261   0.684  12.743  13.182  0.2318  0.0463 -0.0530
 1408W        W20262   8.629  14.069   0.282 -0.1096  0.2022 -0.2463
 1409W        W20263  13.956  13.757  12.385 -0.2195 -0.1458 -0.3691
 1410W        W20264   7.211  14.031   0.329 -0.3401  0.2319  0.1610
 1411W        W20265   3.866   7.384  14.662 -0.1413 -0.0801  0.0065
 1412W        W20266   8.458  12.026  17.098  0.1312 -0.1074  0.1169
 1413W        W20267   2.705   0.233   1.931 -0.0053  0.3181 -0.3517
 1414W        W20268   7.836   5.586  13.168 -0.1501  0.0220  0.3015
 1415W        W20269   2.066  15.060   2.626 -0.3357  0.1240 -0.1652
 1416W        W20270  16.802  15.059   4.680 -0.0457  0.0688  0.0689
 1417W        W20271   6.406   0.242   2.985  0.2904 -0.1082  0.0239
 1418W        W20272  10.011   6.451  17.049 -0.0007  0.3010 -0.1584
 1419W        W20273   4.926  14.836   3.371  0.3313  0.0631  0.1576
 1420W        W20274   1.873   0.972  13.570 -0.1385  0.1585 -0.0805
 1421W        W20275  11.286   5.528  16.736 -0.3063  0.0137 -0.0291
 1422W        W20276  17.053   4.936  16.253 -0.3132  0.3140  0.4349
 1423W        W20277  12.261   5.403  13.114 -0.1751  0.0994  0.2714
 1424W        W20278  14.772  15.656   2.919  0.0495 -0.0501  0.1958
 1425W        W20279  15.864   8.500   0.128  0.0417 -0.1602  0.1078
 1426W        W20280   4.965  15.722   0.036  0.0171 -0.1033  0.0020
 1427W        W20281  14.217  12.442   0.812  0.1382 -0.3093 -0.1054
 1428W        W20282  11.838  12.272  15.840  0.2654 -0.0434  0.0778
 1429W        W20283   4.814   6.153  13.787  0.0759 -0.0822  0.0807
 1430W        W20284  12.593   5.112   1.579  0.0091  0.1352 -0.1219
 1431W        W20285  16.584  16.638  13.745 -0.0311  0.0472  0.0822
 1432W        W20286  10.894  14.600  13.436 -0.1373  0.1028 -0.2210
 1433W        W20287   9.945  13.161  13.121  0.2333 -0.1604 -0.0348
 1434W        W20288  11.487   1.310   0.537 -0.1342 -0.3387 -0.3208
 1435W        W20289   7.863   8.695  14.601  0.1288  0.2642  0.2017
 1436W        W20290   0.211  16.543  13.971  0.3005  0.1871  0.0938
 1437W        W20291  10.246   2.812  12.746 -0.0918 -0.1840 -0.1915
 1438W        W20292   8.452   6.503  15.023  0.1881 -0.1803 -0.2096
 1439W        W20293   2.718  13.706  16.267  0.2886 -0.0423  0.4305
 1440W        W20294   8.105   4.803   1.113 -0.1318  0.0110 -0.0668
 1441W        W20295  12.086   8.735  16.655  0.0953 -0.1295 -0.0296
 1442W        W20296  16.211   7.775   3.780 -0.1251 -0.3100  0.0968
 1443W        W20297   5.791  11.817   4.556 -0.3055  0.0934 -0.3234
 1444W        W20298   3.612  10.409   2.163 -0.1901  0.1530  0.0644
 1445W        W20299  13.978  13.394  14.304  0.0262 -0.2272 -0.0615
 1446W        W20300   5.154   3.229  15.025 -0.0894 -0.0853  0.0979
 1447W        W20301  12.721  17.172  13.586  0.1823 -0.4041  0.0338
 1448W        W20302   4.132  15.097  16.322 -0.1851  0.2402 -0.2571
 1449W        W20303  10.921  14.478   1.109  0.2251  0.0282 -0.0626
 1450W        W20304   3.649  15.535   1.468 -0.2384  0.1953 -0.0684
 1451W        W20305   7.510   3.385  16.454  0.0982 -0.0200 -0.2261
 1452W        W20306   4.192   6.057   3.764  0.0347 -0.1222  0.0970
 1453W        W20307   7.530   5.587   4.681  0.1767 -0.2673  0.2304
 1454W        W20308  11.239  13.051  14.603  0.2764  0.1748 -0.1962
 1455W        W20309   9.269   8.561   4.717  0.0802 -0.0030 -0.0882
 1456W        W20310  11.292  12.120  13.671  0.0140  0.1039  0.1456
 1457W        W20311   4.525   2.834   2.578  0.1644 -0.0278  0.0888
 1458W        W20312  16.018  10.136  14.530 -0.2464 -0.0848 -0.1938
 1459W        W20313   7.252  16.843  13.920  0.1292 -0.0910  0.1318
 1460W        W20314   2.784  10.099   1.745 -0.0228 -0.3783  0.1140
 1461W        W20315   7.301   1.956   2.836 -0.1926 -0.1610 -0.1941
 1462W        W20316   9.581  10.704  16.403  0.1096 -0.1702  0.2128
 1463W        W20317  16.318  14.455  12.302 -0.1019 -0.3337 -0.2588
 1464W        W20318   1.833   8.853  11.314  0.1836 -0.1780  0.0056
 1465W        W20319   8.373   0.303  16.502  0.3639 -0.1458  0.3024
 1466W        W20320   4.301   8.303   4.424  0.1102  0.0708 -0.1334
 1467W        W20321  14.729  10.883   6.105  0.3366  0.3131  0.0029
 1468W        W20322  16.917   3.069  12.862  0.0797  0.2368 -0.0729
 1469W        W20323   0.660  14.304   3.578 -0.0107 -0.1012  0.0973
 1470W        W20324  14.167   4.281   4.554 -0.1615  0.0583  0.0407
 1471W        W20325   6.336  17.336  17.222  0.0650 -0.4180  0.1860
 1472W        W20326   0.712  13.187  15.142 -0.2208  0.1081 -0.2035
 1473W        W20327  10.682  12.642  15.255 -0.0414 -0.1399  0.1235
 1474W        W20328   6.664   6.909   1.776  0.0020  0.1623 -0.0786
 1475W        W20329   4.591   2.213  16.798  0.2745 -0.0999  0.1218
 1476W        W20330  14.030   1.440   1.437 -0.0305  0.2549  0.1161
 1477W        W20331   8.502  11.347   0.303 -0.2248  0.1579  0.0852
 1478W        W20332   7.514   9.460   1.306  0.1074 -0.1732  0.0242
 1479W        W20333  11.657  12.293  13.365 -0.3488  0.0281  0.1951
 1480W        W20334  13.542   4.508  17.406 -0.1549 -0.1052 -0.0057
 1481W        W20335  12.299   8.897  12.283  0.0250  0.0545  0.1238
 1482W        W20336   9.073   7.665   0.311  0.2397  0.0364 -0.1151
 1483W        W20337   1.439   3.448  14.974  0.2649  0.1304 -0.0228
 1484W        W20338  10.544   2.285  15.565  0.0551 -0.1276  0.4919
 1485W        W20339   8.133   7.079  13.441  0.1169  0.0340  0.0532
 1486W        W20340   6.182   2.488  16.093 -0.0191 -0.2644 -0.1361
 1487W        W20341  12.721   1.679   4.473  0.0542  0.0038  0.0810
 1488W        W20342   1.477  16.651  16.499 -0.0792 -0.0962  0.0317
 1489W        W20343   2.539  15.811  17.234 -0.1291 -0.1184 -0.1310
 1490W        W20344   7.982   8.092  17.144  0.2034 -0.2036 -0.0038
 1491W        W20345   6.970   6.549   2.414  0.1318 -0.0665 -0.0239
 1492W        W20346   3.176  14.469  14.562  0.0494  0.0062 -0.2475
 1493W        W20347  12.592   7.216   1.054 -0.0415 -0.2136  0.0345
 1494W        W20348   7.591  15.051  13.783 -0.0361  0.0716 -0.0176
 1495W        W20349  17.259   5.451   0.303 -0.2065  0.0362  0.1131
 1496W        W20350   0.349   5.410  16.390 -0.1515  0.2808 -0.1289
 1497W        W20351   6.138   5.732   2.606 -0.1502  0.0086 -0.1529
 1498W        W20352   6.064   2.193   3.522 -0.0022  0.1681  0.4485
 1499W        W20353   1.878   7.961   2.648  0.1317  0.1740 -0.2878
 1500W        W20354   6.371  13.195   2.832  0.0638 -0.0133 -0.1641
 1501W        W20355  13.136   6.686   3.161  0.3496  0.1526  0.0731
 1502W        W20356  14.861  12.849   3.034  0.1933 -0.2671 -0.1855
 1503W        W20357   5.756  10.657  12.478  0.0359 -0.4264 -0.0039
 1504W        W20358   3.497  12.966  12.831 -0.0192 -0.2076  0.3825
 1505W        W20359  10.170  15.774  16.084 -0.1227  0.0128  0.0479
 1506W        W20360   1.012   5.258   0.812 -0.4168  0.3134 -0.0230
 1507W        W20361   2.543  11.179   5.180 -0.0766 -0.0456  0.1842
 1508W        W20362  11.063  10.374  16.532  0.2622  0.1546  0.1023
 1509W        W20363  15.633   1.448  14.723 -0.0711 -0.0124  0.2131
 1510W        W20364   2.544   3.441   2.609 -0.0608  0.1228  0.0574
 1511W        W20365   1.185   5.944  14.839  0.0464  0.2816 -0.2631
 1512W        W20366   3.567  12.264  14.436  0.1721  0.4381 -0.2615
 1513W        W20367   4.187   6.204   0.172  0.1825  0.2810 -0.0710
 1514W        W20368   5.759  15.777   2.511 -0.0843 -0.0293 -0.0052
 1515W        W20369   4.169  12.676  12.558 -0.0907 -0.1168 -0.2499
 1516W        W20370  14.621  16.467   5.165 -0.1222 -0.2131 -0.3267
 1517W        W20371   2.340  14.536  14.196 -0.3512 -0.0572 -0.0466
 1518W        W20372  15.565   8.698  13.613  0.0129 -0.0594 -0.1466
 1519W        W20373   6.741  15.002   2.556 -0.0389  0.0115 -0.1725
 1520W        W20374   8.630  15.443  12.402 -0.1014  0.1169  0.0725
 1521W        W20375  13.108  11.060   0.373  0.2636 -0.0025 -0.0371
 1522W        W20376   5.903   1.435   2.239  0.3248  0.2455 -0.2011
 1523W        W20377   9.376  15.895   4.662 -0.3348 -0.1519  0.0373
 1524W        W20378   5.305   4.586  16.546  0.3388  0.0784 -0.0456
 1525W        W20379   1.739  16.345   3.122  0.2697  0.3481  0.4994
 1526W        W20380   4.149   2.863   1.107 -0.2106  0.1484 -0.3219
 1527W        W20381   1.943  14.318   3.129 -0.0428  0.0206 -0.3493
 1528W        W20382  15.034  16.437   0.098 -0.1059 -0.0682  0.1297
 1529W        W20383   6.022  15.051  14.258 -0.3031  0.0745  0.2809
 1530W        W20384  10.614   0.727  12.007  0.2019 -0.0053 -0.2497
 1531W        W20385   2.709   3.100   2.038  0.0109 -0.0433 -0.0964
 1532W        W20386  12.227  16.754  16.650  0.0158 -0.0109 -0.0336
 1533W        W20387  16.437  11.391   5.293 -0.2733  0.0498 -0.1182
 1534W        W20388   9.212  12.070  12.118 -0.1614 -0.1484 -0.0315
 1535W        W20389   1.997   2.651  13.098  0.2631 -0.2413 -0.1754
 1536W        W20390   6.293   9.361   2.220  0.0156  0.2536  0.1038
 1537W        W20391  12.342   8.089   2.887 -0.1348 -0.4612  0.1592
 1538W        W20392   2.115  16.431   3.407 -0.3100 -0.1934 -0.1619
 1539W        W20393   0.031   9.885  17.443 -0.2953 -0.1158 -0.0415
 1540W        W20394   7.856   5.626   1.705  0.2948 -0.2185 -0.1548
 1541W        W20395   3.763  15.054  12.629  0.0379  0.2289  0.3466
 1542W        W20396   5.347  10.795   4.598  0.2163 -0.4939 -0.3054
 1543W        W20397   9.362   4.150   1.407  0.0426 -0.0364 -0.0765
 1544W        W20398  15.870  14.807  13.011 -0.3455  0.0086 -0.0733
 1545W        W20399   7.020  11.585   0.614 -0.1030  0.3225 -0.0831
 1546W        W20400   3.509  13.475  15.515  0.0791 -0.0604  0.2175
 1547W        W20401  12.431  16.466  14.417 -0.1064 -0.1781 -0.2498
 1548W        W20402  12.157  16.798  12.294 -0.0690  0.3371 -0.0726
 1549W        W20403   3.810   0.696   4.868  0.2306  0.2169  0.3318
 1550W        W20404  12.372  14.996   5.097 -0.0603  0.1411 -0.0376
 1551W        W20405   1.596  13.796   5.199  0.1062  0.0531 -0.0301
 1552W        W20406  15.403   7.602  14.478  0.0395  0.1752  0.1923
 1553W        W20407  15.511   5.022  12.876  0.1270 -0.0254  0.1944
 1554W        W20408  14.115   3.343  14.798  0.2357 -0.1269  0.1250
 1555W        W20409  14.674   2.612   2.616  0.1584  0.2127 -0.0851
 1556W        W20410  16.741   9.430  12.249  0.2175 -0.1167 -0.0570
 1557W        W20411   5.247   9.725  14.499  0.1383 -0.0513 -0.1938
 1558W        W20412  12.247   0.285   0.713 -0.3737 -0.1556 -0.1046
 1559W        W20413   4.315   1.178   1.313  0.0399 -0.2861 -0.1634
 1560W        W20414  14.297  12.026  16.139  0.0137 -0.0014  0.5676
 1561W        W20415  12.225  14.604  15.920  0.2602 -0.0416  0.0818
 1562W        W20416   2.162   4.563   2.013  0.1406  0.0968 -0.0369
 1563W        W20417   0.892   8.884   2.673 -0.3499  0.0576  0.1695
 1564W        W20418  16.123   6.739  13.400  0.1872  0.1191  0.0808
 1565W        W20419   7.300   4.418   4.099 -0.0551 -0.0324 -0.0376
 1566W        W20420  16.739  13.379  13.396 -0.2143  0.0286  0.0141
 1567W        W20421   2.048  17.169   2.583 -0.0077  0.0168 -0.0715
 1568W        W20422   6.829   6.176   2.702 -0.2537  0.2085 -0.0278
 1569W        W20423  14.586   6.468  15.184  0.0300  0.0274 -0.1186
 1570W        W20424   9.153   1.633  12.420 -0.1723 -0.0005 -0.0648
 1571W        W20425   5.554   0.891  13.811 -0.0274  0.3182 -0.1382
 1572W        W20426   2.264  12.939  16.743 -0.1968  0.0001  0.1339
 1573W        W20427   4.630  14.305  14.061 -0.2209  0.0933  0.7403
 1574W        W20428   1.153   1.036   3.367 -0.1905  0.1480  0.1460
 1575W        W20429   8.719  16.621  14.322 -0.0017 -0.0144  0.4005
 1576W        W20430  17.404  12.631  14.921  0.1219 -0.3625 -0.4368
 1577W        W20431   4.270   0.588  15.507  0.1468  0.0244  0.3074
 1578W        W20432   6.249  10.100   3.345  0.1350  0.1769 -0.1715
 1579W        W20433   7.836   9.863  12.605 -0.0122 -0.3524  0.2237
 1580W        W20434   5.167  11.238   4.854 -0.0025  0.3637  0.2088
 1581W        W20435  15.461  15.181  17.218  0.1757  0.1367 -0.1925
 1582W        W20436  11.238  17.058   3.505 -0.1745 -0.1773  0.2081
 1583W        W20437   0.042  14.510  14.788  0.2153  0.0279 -0.3725
 1584W        W20438   6.090  11.527   2.270  0.0620 -0.1510 -0.0518
 1585W        W20439   0.766  11.519   0.013 -0.1719 -0.0272  0.0579
 1586W        W20440  11.276   4.168   3.250 -0.1213  0.0989 -0.3459
 1587W        W20441   2.959  14.460  13.585  0.1767  0.2300 -0.0420
 1588W        W20442   7.034   0.605  12.498  0.2179  0.2967 -0.0121
 1589W        W20443   9.431   7.511  16.272 -0.1249  0.1197  0.1717
 1590W        W20444   8.060   4.636   4.027 -0.0190  0.1273  0.1549
 1591W        W20445   9.092   9.155  12.211 -0.0242 -0.0343  0.0267
 1592W        W20446   1.555  16.078   5.163  0.0345 -0.1115 -0.1439
 1593W        W20447   4.531   1.144   2.002  0.0198 -0.2075  0.1021
 1594W        W20448   9.805   9.850   0.552  0.1927  0.3495 -0.2422
 1595W        W20449   4.474  13.055  16.342  0.1528  0.0163 -0.0074
 1596W        W20450  12.434  13.587  15.981  0.0215  0.0417 -0.1652
 1597W        W20451   8.037  13.133   5.931  0.3705  0.2689 -0.1386
 1598W        W20452  13.124   5.190  17.471  0.1136 -0.2272  0.3677
 1599W        W20453  11.076   0.898   4.594 -0.2209  0.2110 -0.0039
 1600W        W20454   4.140   0.036  12.480 -0.2288  0.0507  0.1167
 1601W        W20455   5.041   9.492  14.987 -0.2271  0.0159  0.0842
 1602W        W20456   7.778  15.132   5.173 -0.1097  0.1433  0.0391
 1603W        W20457  11.929   4.635  15.915  0.1321 -0.3712 -0.1454
 1604W        W20458   1.605   2.115   0.607 -0.1534 -0.1629 -0.0016
 1605W        W20459  13.572   5.641   3.740 -0.3272 -0.2351  0.0798
 1606W        W20460  17.220   4.401  15.147  0.1819 -0.1168  0.1216
 1607W        W20461   6.148  12.555  14.144  0.0177  0.0958 -0.1646
 1608W        W20462  12.302  12.743  17.436  0.1893  0.4129  0.0547
 1609W        W20463   8.248   1.897   5.217  0.1955 -0.0454 -0.0023
 1610W        W20464   9.527  12.762  12.533 -0.0805 -0.0224  0.0275
 1611W        W20465   3.233  16.778   5.249 -0.0713 -0.1773  0.2164
 1612W        W20466   2.714   7.895  15.938 -0.1978 -0.1022 -0.0180
 1613W        W20467  13.387  10.722  15.000  0.0970 -0.0248  0.1770
 1614W        W20468   0.434  12.172   0.900 -0.0367  0.1526 -0.2644
 1615W        W20469   7.495   7.909  15.710 -0.0245  0.1798 -0.1077
 1616W        W20470   2.337  15.033  14.302  0.0457 -0.0324 -0.0587
 1617W        W20471   1.372   5.739  12.747  0.0669 -0.2315  0.1596
 1618W        W20472   1.790   4.938  15.671  0.0290  0.0919  0.3667
 1619W        W20473   3.043   5.144  12.703  0.2305 -0.0098  0.0774
 1620W        W20474   9.205   7.523  14.483  0.0296 -0.1704 -0.3635
 1621W        W20475  12.313  14.166   4.960 -0.1986  0.0351  0.1183
 1622W        W20476   0.991  16.252   1.818 -0.0684 -0.0977 -0.2851
 1623W        W20477  10.703  16.483   2.928 -0.2446 -0.0589 -0.1305
 1624W        W20478   2.653  12.260   4.343  0.0544  0.0151  0.2720
 1625W        W20479   3.061   3.789  16.122 -0.2270 -0.0487  0.1274
 1626W        W20480   1.778  14.692   5.500 -0.0203 -0.0455  0.0478
 1627W        W20481  15.529   2.712  17.134 -0.1082 -0.2782  0.0084
 1628W        W20482  13.546   3.477  13.404  0.1181 -0.4362  0.2129
 1629W        W20483   7.585  16.740  15.939 -0.1312 -0.1745 -0.0866
 1630W        W20484   0.505  15.799   3.995  0.1726 -0.0861  0.1228
 1631W        W20485   7.044  15.165  16.590  0.2114 -0.0109  0.1454
 1632W        W20486   3.801   2.808  15.129 -0.0858  0.0549 -0.0138
 1633W        W20487  11.871   3.234  15.388  0.2404  0.0484  0.0593
 1634W        W20488   7.962   9.947   2.036  0.1568  0.1379 -0.1296
 1635W        W20489  10.709   6.695   0.117 -0.2267  0.0930 -0.2058
 1636W        W20490  15.353   6.846  12.012  0.3977  0.0188 -0.3767
 1637W        W20491   8.954  13.769   4.871 -0.2036  0.0333 -0.0711
 1638W        W20492   4.103   4.439   0.988  0.0959  0.0627 -0.0658
 1639W        W20493   7.495  13.595  15.121  0.3145 -0.2134  0.0232
 1640W        W20494   2.845   3.802   4.920  0.2875  0.3609 -0.1926
 1641W        W20495  11.697  11.074   4.965 -0.0079  0.0239  0.2694
 1642W        W20496  13.676  12.294   3.938 -0.2848  0.2884  0.0206
 1643W        W20497   3.715  15.013  16.670  0.0517  0.2889  0.1159
 1644W        W20498  13.037  13.054  13.368 -0.1709 -0.1553  0.1279
 1645W        W20499   5.811  16.176   4.367 -0.0033  0.2376  0.2467
 1646W        W20500   1.106  12.602   4.045  0.1265  0.0365 -0.2100
 1647W        W20501  14.773   9.206   3.479  0.0797 -0.2011 -0.1197
 1648W        W20502  13.260   8.008  12.465  0.2188 -0.3606 -0.1744
 1649W        W20503  16.252  11.456  13.379 -0.0862  0.1617 -0.0342
 1650W        W20504  10.307   6.204  15.221  0.1419 -0.1575 -0.1535
 1651W        W20505  11.064   8.439  13.324 -0.3141 -0.1143 -0.3678
 1652W        W20506   5.180  10.245   4.018 -0.1144  0.0317  0.1883
 1653W        W20507   4.493  14.351  15.009 -0.0708 -0.0557 -0.0680
 1654W        W20508  11.723  14.089   0.470 -0.1804  0.1003 -0.1005
 1655W        W20509   7.906   6.689   2.521 -0.1353 -0.2108  0.0236
 1656W        W20510  15.134   9.410  17.280 -0.3101 -0.2790  0.0379
 1657W        W20511   5.297   2.903   1.760 -0.2853 -0.4146  0.2181
 1658W        W20512  14.979   9.561   2.638 -0.3151 -0.1510 -0.1793
 1659W        W20513  10.673  13.189  13.752 -0.1790 -0.2676 -0.0181
 1660W        W20514   8.946  11.288  16.767  0.4099 -0.2513  0.1589
 1661W        W20515   1.351   8.977  12.483 -0.0378 -0.5592 -0.0011
 1662W        W20516  15.407   6.467   1.849 -0.0627 -0.0247 -0.0403
 1663W        W20517   0.088   7.757   5.196  0.0806  0.1368  0.3970
 1664W        W20518  11.645  16.848   5.494  0.1606  0.2551 -0.0144
 1665W        W20519   2.952  12.483  16.270 -0.0004  0.2444 -0.1151
 1666W        W20520   6.526   9.438  15.855 -0.0002 -0.0611  0.4909
 1667W        W20521  15.754  13.141  12.802 -0.1464  0.2745  0.5765
 1668W        W20522   3.452   6.740  14.214 -0.0598  0.1083  0.1494
 1669W        W20523  12.603  10.258  13.284 -0.1829 -0.1360  0.1131
 1670W        W20524   0.065   6.818  14.293  0.0974 -0.0775 -0.1540
 1671W        W20525   8.929  11.780  13.454 -0.0957 -0.1887 -0.0949
 1672W        W20526   1.341  12.450  14.272  0.0681  0.1190 -0.1481
 1673W        W20527   2.486   1.318  17.225 -0.2080  0.0214  0.2080
 1674W        W20528  10.405  10.269   1.193 -0.1583 -0.0886 -0.2475
 1675W        W20529   5.204   6.936   5.268  0.1914 -0.0773 -0.1017
 1676W        W20530   8.515   5.878  16.062 -0.1719 -0.2855 -0.1118
 1677W        W20531   2.611   9.421  15.291  0.0570 -0.0712 -0.1686
 1678W        W20532  16.664   3.075  15.266  0.1732  0.1898  0.1950
 1679W        W20533  16.928  12.650  16.067 -0.0124  0.1153  0.1810
 1680W        W20534   3.473   7.064  12.573  0.0542  0.1792  0.0549
 1681W        W20535  16.465   7.895   1.458 -0.1913  0.0833  0.0768
 1682W        W20536   9.282   0.554  16.578 -0.1050 -0.3719  0.0133
 1683W        W20537  17.015   0.412  14.465 -0.2220  0.4236 -0.0165
 1684W        W20538  15.083  14.382  16.692  0.1128 -0.1080  0.3490
 1685W        W20539   5.927   9.957  13.650  0.2411 -0.0745 -0.1050
 1686W        W20540  13.963   1.882   3.699  0.2142 -0.0014  0.0314
 1687W        W20541   7.533   5.366  13.949 -0.2017  0.0292  0.1928
 1688W        W20542   5.353   4.891  17.199  0.2629  0.1944  0.1738
 1689W        W20543  15.654   4.850   3.686 -0.2486 -0.1096  0.1723
 1690W        W20544  10.998  14.185   2.931 -0.0764 -0.1791 -0.0182
 1691W        W20545   8.318   5.557  16.648  0.0523  0.0452  0.0842
 1692W        W20546   1.537   3.465   1.337 -0.0158  0.1042 -0.0010
 1693W        W20547  10.195   2.199   2.800  0.1741 -0.1374 -0.3041
 1694W        W20548  10.588   0.465  15.690 -0.1152  0.0378 -0.2995
 1695W        W20549  16.349  17.244  15.952  0.0919 -0.0488 -0.1202
 1696W        W20550   1.972  16.717   0.333  0.2419  0.0365 -0.3744
 1697W        W20551  15.789   9.375  14.345 -0.0642 -0.0261  0.2534
 1698W        W20552  10.473   5.717  14.616  0.2837 -0.2570 -0.3392
 1699W        W20553  13.721   9.269   0.549 -0.1265  0.1547  0.1098
 1700W        W20554  15.731  14.145   2.471  0.0543  0.0549  0.1473
 1701W        W20555  13.999   4.798  14.602  0.2915 -0.3567  0.1655
 1702W        W20556   2.160  11.320  16.957 -0.1950 -0.1583  0.1402
 1703W        W20557  11.844   5.186  15.036 -0.0675 -0.0186  0.0274
 1704W        W20558   0.682  12.639   0.945 -0.0309  0.0365 -0.0208
 1705W        W20559   0.589  13.556  17.105 -0.1912  0.1811  0.1823
 1706W        W20560   8.097  14.932   0.983  0.2471  0.0820 -0.0702
 1707W        W20561   3.325   7.897  13.479  0.1033 -0.1489  0.1571
 1708W        W20562   8.914   4.900   0.402 -0.1182  0.0248 -0.1554
 1709W        W20563   7.308   4.009  14.071  0.1753 -0.0409  0.2556
 1710W        W20564  12.307   5.762  12.123 -0.2691  0.0000  0.0308
 1711W        W20565  10.549   4.426  13.463 -0.0761  0.0431  0.1030
 1712W        W20566   7.818   5.262   1.355 -0.0025 -0.0761 -0.2047
 1713W        W20567  14.102  15.731  14.093 -0.3526  0.1505 -0.1084
 1714W        W20568   8.945   4.003  17.421 -0.0876  0.0999 -0.0681
 1715W        W20569  11.221   8.226   1.977  0.0810 -0.1861  0.1098
 1716W        W20570  11.751   0.259  13.501  0.0792  0.0277  0.2436
 1717W        W20571  17.174  10.803  12.354 -0.1046 -0.1846  0.0898
 1718W        W20572   5.000   9.697   1.964 -0.0084 -0.4474 -0.3662
 1719W        W20573   7.562   8.047  16.658  0.2733 -0.1874 -0.0929
 1720W        W20574  10.840  13.531   3.062  0.1934 -0.0166  0.2154
 1721W        W20575  10.138  14.918   4.206  0.1566  0.1375  0.4227
 1722W        W20576   8.988  15.442   0.128  0.0656 -0.0381  0.2564
 1723W        W20577   1.810  15.914  13.671  0.0106  0.1261 -0.1985
 1724W        W20578   3.576  12.600   1.595 -0.0173 -0.2859 -0.1824
 1725W        W20579   8.019   6.981   0.826  0.1049 -0.1692  0.0537
 1726W        W20580  15.997  10.569  14.917  0.1300  0.3222  0.4220
 1727W        W20581  15.332   7.571  17.482 -0.0658 -0.0512  0.0240
 1728W        W20582   2.245   5.611  15.004  0.1410 -0.1941 -0.0516
 1729W        W20583   4.757   1.927   3.241 -0.0535 -0.0345 -0.3894
 1730W        W20584   6.442   2.819   1.413 -0.1075  0.3244 -0.1727
 1731W        W20585   8.767  11.050  15.959  0.2296 -0.0753 -0.2662
 1732W        W20586   8.053  11.627   3.876  0.1380  0.0273  0.2075
 1733W        W20587   9.131   7.480   4.625 -0.0676  0.1643 -0.2591
 1734W        W20588  16.451   1.890   0.840 -0.0113 -0.0051 -0.1910
 1735W        W20589   4.042   9.566  12.656  0.0774 -0.1611  0.2952
 1736W        W20590   8.020   6.581   4.257  0.0010 -0.1499  0.0648
 1737W        W20591  16.812   2.087   0.551 -0.3759  0.1928  0.3291
 1738W        W20592   5.803   2.024  17.481  0.3919 -0.2645  0.0483
 1739W        W20593   7.690   6.724   1.636 -0.0448  0.0976 -0.0203
 1740W        W20594   9.072  14.609   0.033  0.0738 -0.0111 -0.2613
 1741W        W20595  10.260   3.928  14.110  0.2829 -0.1853 -0.2098
 1742W        W20596   4.964   6.451  12.401 -0.2604  0.2241  0.1513
 1743W        W20597   0.452   3.870   3.885 -0.0760  0.0789  0.0660
 1744W        W20598   5.919  14.254   3.264 -0.2689 -0.3905  0.2656
 1745W        W20599   7.017   2.158   3.788  0.3564 -0.1017 -0.2964
 1746W        W20600   7.105   1.360  17.430  0.0252 -0.0199 -0.1664
 1747W        W20601   8.068  10.081   3.079  0.2508  0.1906  0.0612
 1748W        W20602   8.655   5.127  16.590  0.0109 -0.3729 -0.1576
 1749W        W20603   7.615  14.116   4.633  0.0551  0.2977 -0.3194
 1750W        W20604  10.416  10.526  15.953 -0.2921  0.2219  0.0149
 1751W        W20605   2.377  14.213   2.784 -0.0340 -0.0133 -0.0824
 1752W        W20606   1.115   9.960   0.310  0.0334  0.2230  0.1271
 1753W        W20607   5.355  12.794   2.132  0.2465  0.0857  0.0558
 1754W        W20608   1.573   6.791  15.928  0.0580 -0.1012  0.0086
 1755W        W20609   2.740   2.562  13.550  0.0662 -0.0858  0.1859
 1756W        W20610   4.021  14.593  16.690 -0.0383 -0.2131  0.1407
 1757W        W20611  15.180   4.726   3.576 -0.0635  0.0193  0.2278
 1758W        W20612  11.700   6.551   3.121  0.0313 -0.1499 -0.0092
 1759W        W20613   1.989  11.970   5.079  0.1439 -0.2952 -0.1690
 1760W        W20614  17.381  10.214   1.529  0.0398  0.1536 -0.1895
 1761W        W20615   5.138  10.274  16.850 -0.2279 -0.1695 -0.0925
 1762W        W20616   7.656   2.159   2.354  0.2231 -0.2064 -0.0923
 1763W        W20617   5.635  10.059   2.272  0.2041 -0.1821 -0.3010
 1764W        W20618  13.420   1.834  15.914  0.1227 -0.3793  0.1050
 1765W        W20619   2.998   5.132   0.056 -0.0564  0.0411  0.0983
 1766W        W20620  15.026  11.887  16.772  0.0568  0.1004 -0.2860
 1767W        W20621   3.589  12.720   0.389 -0.0647 -0.1416  0.4495
 1768W        W20622  14.627  16.565   2.748  0.2555 -0.1090  0.2015
 1769W        W20623   8.405  15.762   0.821  0.3311 -0.0261 -0.2746
 1770W        W20624   0.279   1.949  15.329  0.1212  0.1021  0.0374
 1771W        W20625  17.200   2.320   0.784  0.3339 -0.0404  0.0674
 1772W        W20626   4.578  13.946  14.582 -0.1461 -0.1919 -0.2138
 1773W        W20627  11.089  13.855  15.596 -0.2300  0.0011  0.0732
 1774W        W20628   7.426  11.004  17.455  0.1643  0.3184 -0.0480
 1775W        W20629  15.947   1.924  15.562  0.0399  0.2534 -0.0500
 1776W        W20630   3.784  14.085   2.449 -0.0897  0.1575  0.0798
 1777W        W20631   4.730   3.246  15.923 -0.0442 -0.3934  0.1591
 1778W        W20632  12.015  13.248   1.178  0.0566 -0.1264  0.1910
 1779W        W20633  15.837  10.953   3.391  0.1363 -0.0710 -0.0411
 1780W        W20634   8.711   1.207   0.396  0.0339 -0.1764 -0.1766
 1781W        W20635   0.681   9.511   1.155 -0.4086  0.3078 -0.1789
 1782W        W20636   4.799   6.556   3.168 -0.1643 -0.2382 -0.0056
 1783W        W20637  14.228   5.877   1.752 -0.0025 -0.0765  0.2007
 1784W        W20638   5.690   1.427  13.833 -0.0384  0.2596  0.2161
 1785W        W20639  11.280  10.199   1.300 -0.0743 -0.0360 -0.2515
 1786W        W20640   5.780   1.522  13.257  0.3162  0.1646 -0.1108
 1787W        W20641  10.714   1.270  16.901  0.1004 -0.1936 -0.0061
 1788W        W20642  11.896  16.541  12.685 -0.0466 -0.1521  0.0924
 1789W        W20643   9.237   7.426   0.759 -0.0403  0.2502 -0.0321
 1790W        W20644   0.226   3.942   1.235  0.1013 -0.2836 -0.0444
 1791W        W20645  16.557   9.714  14.787 -0.1531 -0.0497  0.1654
 1792W        W20646   3.961  12.984  16.314 -0.1396 -0.1244  0.1229
 1793W        W20647   4.302   8.272   3.053 -0.1996 -0.2085 -0.3915
 1794W        W20648  15.836  14.291  12.264 -0.1219 -0.0570 -0.1468
 1795W        W20649   9.720  12.775   0.183 -0.0621 -0.2290 -0.1551
 1796W        W20650   7.025   2.241  16.471 -0.2663  0.0450  0.4528
 1797W        W20651   1.299   2.354   2.861 -0.0322  0.1621 -0.4451
 1798W        W20652  14.443   7.955   1.038  0.1683  0.3728  0.0844
 1799W        W20653  12.366   5.959  16.739  0.1033 -0.0780 -0.1119
 1800W        W20654   1.962   9.772  12.455 -0.0113  0.0921  0.0480
 1801W        W20655  14.761   3.109   2.459 -0.1326  0.0733  0.0575
 1802W        W20656   7.944   2.922  14.594  0.1463 -0.1287  0.2736
 1803W        W20657   9.962  12.298   3.334 -0.0073 -0.0938 -0.5291
 1804W        W20658   5.081   0.571  13.711  0.1030 -0.1504  0.1195
 1805W        W20659   9.981   1.349   0.844  0.0023  0.4364  0.4064
 1806W        W20660   1.743  13.958   0.209  0.2624  0.0361 -0.0584
 1807W        W20661  11.881  10.452  12.626 -0.0002 -0.4141  0.4839
 1808W        W20662   0.887  15.193   1.233 -0.1354  0.0157 -0.2398
 1809W        W20663  10.895  12.661   3.237 -0.1176 -0.2509  0.1810
 1810W        W20664  13.443  12.416  16.653 -0.2299  0.1066 -0.1146
 1811W        W20665   2.991  10.491  15.623  0.4050 -0.2183  0.2128
 1812W        W20666   4.510   8.766   4.255 -0.2218  0.0553 -0.1300
 1813W        W20667   1.586  11.101   3.317  0.0633  0.2863  0.2998
 1814W        W20668  13.891   8.757   2.203 -0.0061 -0.1452 -0.3338
 1815W        W20669   4.669  14.379   3.037 -0.0140  0.0531 -0.0182
 1816W        W20670   9.762   8.510   4.884 -0.0824 -0.0020  0.0019
 1817W        W20671   5.010   5.940  16.981 -0.1191 -0.0700 -0.0346
 1818W        W20672   9.160  13.663   4.129  0.5745 -0.1061 -0.3968
 1819W        W20673   9.264   9.715  12.244 -0.0221 -0.1750 -0.0044
 1820W        W20674   9.865   3.601  17.354 -0.2333  0.0423 -0.0097
 1821W        W20675  13.853  12.955  14.732 -0.3157  0.1184 -0.0580
 1822W        W20676  12.141  14.976   1.553 -0.1413  0.0385 -0.1680
 1823W        W20677  16.351  15.592  15.161  0.3803  0.1650  0.1894
 1824W        W20678  10.404   5.933  12.352 -0.1941  0.0841 -0.0009
 1825W        W20679  13.128   2.565  13.544 -0.0529 -0.1193  0.1551
 1826W        W20680  15.057   3.487  13.548  0.1834 -0.0583  0.4208
 1827W        W20681   7.695   3.842  13.833 -0.3108  0.1219 -0.3029
 1828W        W20682   4.624  10.263   1.376 -0.1845 -0.2249 -0.0997
 1829W        W20683   3.368   7.525  17.298  0.0410 -0.1955 -0.1391
 1830W        W20684   0.794  12.486   4.977 -0.0814  0.0631  0.1425
 1831W        W20685  17.250   6.889  17.269 -0.0459 -0.2097  0.1339
 1832W        W20686  14.881   4.404  13.701 -0.1167 -0.0649 -0.0284
 1833W        W20687   9.513   7.049   0.724 -0.0324  0.3379  0.0149
 1834W        W20688  13.389  13.116   5.729  0.2550  0.2700 -0.0823
 1835W        W20689   8.743  13.293   4.323  0.1851  0.0311  0.0704
 1836W        W20690  12.302   9.953   3.767 -0.1515 -0.0802  0.0603
 1837W        W20691  15.690   9.046  12.486  0.0602  0.1976  0.1020
 1838W        W20692  11.904   6.009  17.043  0.5224 -0.0013 -0.0412
 1839W        W20693   0.081   0.194  13.763  0.3377 -0.2266  0.0544
 1840W        W20694   2.291  11.974  15.737  0.1507  0.0353 -0.0253
 1841W        W20695   5.879   9.873  12.500  0.2323  0.0754  0.0534
 1842W        W20696   8.066   8.724   0.405 -0.3643  0.4770  0.2156
 1843W        W20697  15.359   7.055   3.165 -0.0341  0.0052 -0.1890
 1844W        W20698  12.352   3.345   2.833 -0.0443 -0.0017 -0.0151
 1845W        W20699   0.445   0.649   2.783 -0.0648  0.1731  0.0468
 1846W        W20700   0.215  16.952  13.081 -0.2717 -0.0198 -0.3708
 1847W        W20701   5.207  14.884   2.517  0.1185 -0.3313  0.0865
 1848W        W20702  11.024   9.231   0.175  0.2111 -0.0958  0.1089
 1849W        W20703   1.482   9.680  17.050 -0.2287  0.1837 -0.0026
 1850W        W20704  12.446  16.402  12.641  0.0453 -0.1161 -0.0728
 1851W        W20705   9.412  11.601   3.772  0.4073  0.0519  0.0382
 1852W        W20706   0.510   7.864  15.254 -0.0139  0.0773  0.0078
 1853W        W20707   7.424   4.973  14.900 -0.2203  0.0176 -0.0165
 1854W        W20708  17.100  13.406  15.554 -0.0171  0.0681  0.0351
 1855W        W20709   5.353   5.135   2.696  0.1105 -0.1131 -0.1966
 1856W        W20710   4.019  10.323  13.242  0.4459 -0.0290  0.1239
 1857W        W20711   3.655  15.494   3.977 -0.0736 -0.0714 -0.2164
 1858W        W20712   6.328  16.392  14.909  0.0231  0.1872  0.0422
 1859W        W20713  11.082   0.256  17.180 -0.2152 -0.0183  0.1449
 1860W        W20714  12.550   2.671  16.314 -0.0115 -0.1990 -0.1431
 1861W        W20715   9.704   5.869   3.634  0.1289  0.2586 -0.2262
 1862W        W20716   0.642  15.780  12.409 -0.1037 -0.1535 -0.0506
 1863W        W20717  13.349   6.861  16.490  0.0358 -0.0638 -0.1504
 1864W        W20718  16.442  13.514   0.017  0.2784  0.0045  0.1434
 1865W        W20719  12.472  11.442  15.417 -0.0534 -0.1572 -0.0374
 1866W        W20720  15.759  13.009   3.866 -0.1260 -0.0614  0.1687
 1867W        W20721   4.083   3.641  17.267 -0.2116  0.1209  0.3269
 1868W        W20722  10.054   6.012  14.470 -0.0534 -0.1820  0.1625
 1869W        W20723   9.726  13.805  17.092  0.1780 -0.1255  0.0927
 1870W        W20724  16.763  15.046   0.839 -0.0934 -0.0871  0.0486
 1871W        W20725  12.747   8.541  17.352  0.1873 -0.0428 -0.4583
 1872W        W20726  10.585  17.258  13.169  0.3084 -0.4557  0.1843
 1873W        W20727   0.029   8.744  16.205 -0.0994 -0.0020  0.2304
 1874W        W20728   6.340   1.040  14.268  0.0861  0.0979  0.1481
 1875W        W20729   1.218  11.225   5.164  0.0312 -0.1369  0.2314
 1876W        W20730  10.314  10.083   2.159  0.0886  0.3318  0.0088
 1877W        W20731  11.715  13.895   5.173  0.0025 -0.1058  0.0016
 1878W        W20732  13.129  14.764  13.429  0.1135 -0.0184 -0.1902
 1879W        W20733  16.547   9.076   5.031 -0.3932 -0.1536  0.0453
 1880W        W20734  14.653  13.218  13.703 -0.0021  0.1755  0.1819
 1881W        W20735  15.727   6.127  13.892  0.1112  0.2538  0.1444
 1882W        W20736   0.607   7.063   1.936 -0.1643 -0.1061  0.0536
 1883W        W20737   0.548   4.804   0.045 -0.2445  0.0057 -0.1224
 1884W        W20738   2.733   0.673  15.584 -0.2835  0.2043 -0.2972
 1885W        W20739   9.327  10.430  17.093 -0.1836  0.2440 -0.0885
 1886W        W20740  13.015  15.493   4.786  0.0904 -0.2731 -0.0226
 1887W        W20741  14.924   7.959   1.568  0.0377  0.0024  0.1101
 1888W        W20742  14.243   2.665  16.032 -0.0037 -0.2034  0.0779
 1889W        W20743   2.059   7.718  12.008 -0.1817 -0.0995  0.1278
 1890W        W20744   1.037  14.377   0.088  0.1591  0.2964  0.0627
 1891W        W20745   9.443  14.568  16.093  0.2006 -0.2065  0.0109
 1892W        W20746   1.837   5.323   2.512  0.4216  0.4184  0.1460
 1893W        W20747  12.445   5.651   2.098 -0.3333 -0.1245 -0.1638
 1894W        W20748   2.942   2.441   0.090  0.1529 -0.2684  0.3620
 1895W        W20749  15.509   3.176  16.821  0.0022  0.0310  0.1267
 1896W        W20750  10.681   7.622   1.477  0.1926 -0.0475  0.2231
 1897W        W20751   5.689  14.874   4.106  0.1698 -0.1378  0.3186
 1898W        W20752  13.085  10.066   2.443 -0.0186 -0.1335  0.1250
 1899W        W20753   6.374  14.418   5.270  0.1330  0.2071 -0.0644
 1900W        W20754  13.335   4.785   0.831  0.3758  0.0819  0.1256
 1901W        W20755  10.425  12.961   2.880  0.0970 -0.1068 -0.1474
 1902W        W20756   8.306   4.462   3.569  0.4267  0.3380  0.0262
 1903W        W20757   2.227   8.169   5.060  0.2212  0.2705  0.0275
 1904W        W20758   3.728   6.888   2.831 -0.0467  0.2026 -0.0427
 1905W        W20759  12.904  14.187  16.476  0.0190  0.2135  0.1003
 1906W        W20760   1.397  15.582   4.086  0.1942 -0.0879  0.2901
 1907W        W20761  17.377  14.044  15.796 -0.1880 -0.1877 -0.0968
 1908W        W20762  11.243  10.721  17.304 -0.1603 -0.0220 -0.0401
 1909W        W20763   1.946   6.818   1.451  0.2850  0.3609 -0.0992
 1910W        W20764   6.374  11.008   4.979  0.0947  0.2774  0.2476
 1911W        W20765   6.185   9.672  16.206  0.1792  0.1998 -0.2576
 1912W        W20766   4.479  10.306  14.647  0.2034  0.0500 -0.3837
 1913W        W20767   7.602   2.861  14.152  0.0612 -0.5628 -0.0351
 1914W        W20768   5.289  10.802  12.190 -0.1411  0.1286  0.5093
 1915W        W20769   7.107  16.637   0.564 -0.0798  0.0534  0.1145
 1916W        W20770   9.088  13.850   5.395 -0.2150 -0.1810  0.2533
 1917W        W20771   8.051  16.119  16.400 -0.1500 -0.0228  0.1795
 1918W        W20772  16.390   9.949  17.006 -0.0183 -0.1325  0.1164
 1919W        W20773  10.721   0.234   0.457  0.3497  0.0675  0.1800
 1920W        W20774   8.722   4.344   2.834  0.1852  0.0958 -0.2053
 1921W        W20775  11.193   9.331  13.371 -0.0117  0.4097  0.0408
 1922W        W20776   4.014  16.927  16.736  0.0188  0.0142 -0.1938
 1923W        W20777   0.536   8.566   2.462 -0.3155 -0.2258 -0.0546
 1924W        W20778   7.518   5.467   2.091  0.0515  0.2688 -0.2266
 1925W        W20779   5.796   1.515   1.722  0.3087  0.0967 -0.1743
 1926W        W20780  10.551   9.399  15.002 -0.1300  0.1541 -0.1107
 1927W        W20781   9.267  13.478   3.158  0.1765 -0.0136  0.0530
 1928W        W20782  16.076   9.531   1.555  0.1687  0.1192  0.1914
 1929W        W20783   1.924   1.416   1.007 -0.1287 -0.1136  0.1080
 1930W        W20784   7.916   5.245  15.112 -0.1470  0.0613 -0.1317
 1931W        W20785   1.643   6.553   4.333 -0.1834 -0.1890  0.2205
 1932W        W20786   5.619   2.346  14.298 -0.1335  0.1371 -0.0026
 1933W        W20787   7.732   5.084   3.013  0.0540  0.3308  0.1863
 1934W        W20788  12.216  11.238   4.993 -0.0313 -0.1750  0.0122
 1935W        W20789   7.244  14.646   5.800 -0.1724  0.1634 -0.1643
 1936W        W20790  11.461   9.317  12.923 -0.3387  0.0892  0.0473
 1937W        W20791   7.586  13.822   1.682  0.0458 -0.2602 -0.2560
 1938W        W20792   3.104   7.046   5.195 -0.3776  0.1175 -0.1009
 1939W        W20793  17.156   7.370   4.462 -0.0701 -0.0264 -0.0657
 1940W        W20794   1.884  12.870  11.690 -0.1020  0.0831 -0.2874
 1941W        W20795   5.267   4.176  12.786  0.2530  0.1296 -0.1494
 1942W        W20796   7.074  12.434  16.633 -0.1338 -0.0153 -0.1377
 1943W        W20797   4.636   9.576   4.870 -0.1600 -0.4478  0.0460
 1944W        W20798   8.810   1.494  15.751  0.1639 -0.0291 -0.2597
 1945W        W20799   3.213  17.176   4.940 -0.1309 -0.0225 -0.0725
 1946W        W20800   8.278   2.215   1.165 -0.0902  0.2325 -0.0882
 1947W        W20801   1.845  15.575  15.497  0.0255 -0.0833 -0.0077
 1948W        W20802   1.258  16.499  16.073  0.1546  0.0907  0.0034
 1949W        W20803   1.709  17.145   1.107 -0.1238  0.0567 -0.0578
 1950W        W20804  10.785  16.898  16.505 -0.2526  0.3668 -0.0797
 1951W        W20805  14.391   8.251   4.654  0.1304 -0.0388  0.2031
 1952W        W20806  11.054  16.144   4.719 -0.1091  0.1041  0.1003
 1953W        W20807  15.167   1.205  16.422 -0.2054  0.0671 -0.0123
 1954W        W20808   1.027   3.621   1.999  0.1078 -0.1255  0.2053
 1955W        W20809   8.600   9.336   5.085  0.1773 -0.0917  0.2278
 1956W        W20810  10.548   0.357  16.988  0.2687 -0.1336  0.3262
 1957W        W20811  13.459   5.067  15.407 -0.0811  0.2153  0.2496
 1958W        W20812   2.847  15.124  14.145  0.1746 -0.1459 -0.1654
 1959W        W20813  13.821   6.766   5.726 -0.0876  0.1170 -0.0030
 1960W        W20814   1.003  17.055   4.160 -0.1098  0.0974 -0.2001
 1961W        W20815  15.902   4.969   3.221  0.1952 -0.0032 -0.1195
 1962W        W20816  16.589   5.772   5.289  0.0156 -0.2079  0.1691
 1963W        W20817  13.018   0.193   2.377 -0.2608  0.3647 -0.2451
 1964W        W20818   9.073   1.159   3.678  0.2658 -0.2434 -0.0733
 1965W        W20819   0.857  10.005   1.933  0.0628 -0.2839 -0.3825
 1966W        W20820   5.900  13.547   1.939  0.2390 -0.0779 -0.3717
 1967W        W20821   7.086  13.762  15.694  0.3394 -0.0187 -0.1283
 1968W        W20822  12.733   4.883   5.418  0.1951  0.0547  0.2373
 1969W        W20823   7.790   7.063  15.524  0.0721 -0.1236 -0.0442
 1970W        W20824   2.831   0.834   0.102 -0.1662 -0.3816  0.0473
 1971W        W20825  12.199  15.629  14.519 -0.0862 -0.3516  0.2230
 1972W        W20826   5.746   8.774   5.055 -0.2361 -0.0937 -0.1849
 1973W        W20827   1.027   2.502  15.694 -0.1903 -0.0263 -0.2126
 1974W        W20828   2.176   0.999  17.042 -0.2075  0.1024  0.1782
 1975W        W20829  13.575  15.895  16.970  0.2039  0.4751  0.0731
 1976W        W20830  12.567   4.481  17.218  0.0320 -0.0625 -0.0575
 1977W        W20831   4.323  15.890   0.781 -0.0872 -0.0685  0.0215
 1978W        W20832  10.273  15.813   5.591  0.1679 -0.0366 -0.1641
 1979W        W20833   9.520   6.095  14.372  0.1156  0.0659 -0.1996
 1980W        W20834  13.756   6.729  12.452  0.0741 -0.2353 -0.1295
 1981W        W20835   2.562   4.859  14.711 -0.3128  0.1849 -0.0610
 1982W        W20836  13.683   5.649   4.257  0.3266 -0.1717 -0.1777
 1983W        W20837  11.411   7.351   3.699 -0.1545 -0.0508  0.0648
 1984W        W20838  16.139   6.181   0.879 -0.1037 -0.2461  0.1126
 1985W        W20839  14.908   8.326  14.318  0.0469 -0.0054  0.0057
 1986W        W20840   2.317   7.623  15.860 -0.0784 -0.0152 -0.1181
 1987W        W20841  14.539   7.021   4.683  0.2204 -0.0081 -0.1801
 1988W        W20842   2.968  15.022   5.096  0.0882 -0.1734  0.0239
 1989W        W20843  10.177   3.530  13.810  0.2880 -0.0742  0.0634
 1990W        W20844   0.438  15.376  15.760  0.0186 -0.1177  0.1356
 1991W        W20845  15.149  10.416   3.929 -0.0445 -0.0453 -0.2779
 1992W        W20846   9.837   9.277  14.340  0.3795  0.1223  0.1051
 1993W        W20847  13.946  10.070  17.258  0.1936 -0.0586 -0.0875
 1994W        W20848   4.778   0.849  14.037 -0.3023  0.3617  0.1710
 1995W        W20849   6.294   7.569  15.718 -0.1244 -0.0199  0.3112
 1996W        W20850  13.680  14.111   5.109  0.4459 -0.1605 -0.2811
 1997W        W20851   9.675  10.062  15.564  0.3672 -0.0840 -0.2801
 1998W        W20852   0.222   2.121  13.252 -0.2595  0.1947  0.0292
 1999W        W20853   5.721  12.357   2.341  0.0697 -0.0690  0.1768
 2000W        W20854   5.967  14.597   0.630 -0.3643  0.0606 -0.2052
 2001W        W20855   6.576  15.294   0.186 -0.1806 -0.1187 -0.0760
 2002W        W20856  16.707  11.315   3.721 -0.1601 -0.1163  0.0007
 2003W        W20857  15.986   7.047  13.791  0.2128 -0.2214 -0.3352
 2004W        W20858   4.921  16.813   4.127  0.2565  0.0305 -0.1527
 2005W        W20859  16.840  11.997  14.956 -0.0525 -0.2001 -0.0843
 2006W        W20860  13.727   7.681  13.122 -0.0626 -0.0692 -0.0820
 2007W        W20861   0.748  14.717   2.121 -0.0279 -0.0830 -0.0746
 2008W        W20862  14.095  12.663   1.268 -0.1320 -0.0510  0.2127
 2009W        W20863   7.525   4.634   2.611 -0.2245  0.2601  0.0430
 2010W        W20864  14.727   3.997   3.119  0.0316 -0.0486  0.1192
 2011W        W20865   9.700   9.651  14.693 -0.0268 -0.0905 -0.1791
 2012W        W20866   3.399  15.409   2.300 -0.1478  0.1749 -0.2792
 2013W        W20867   8.617   1.259   5.217 -0.0074 -0.0657 -0.1387
 2014W        W20868   1.837  16.204   1.648  0.3072 -0.1874 -0.2496
 2015W        W20869   3.163  12.843   0.061 -0.0494  0.0635 -0.0639
 2016W        W20870   8.518   7.024   0.717  0.1817  0.0251 -0.1548
 2017W        W20871  10.427   7.849   5.121  0.0513  0.1389 -0.2004
 2018W        W20872   6.318   9.499   0.268 -0.0206  0.0949 -0.0453
 2019W        W20873   9.076  15.838  14.049 -0.0261  0.0975  0.1568
 2020W        W20874  14.295  17.080   3.164 -0.0412 -0.2026 -0.0013
 2021W        W20875  14.960   6.097  12.250 -0.2769 -0.1422 -0.0248
 2022W        W20876  12.142   5.959   2.861 -0.1100 -0.0572 -0.0506
 2023W        W20877  15.044  10.666  16.943  0.0123  0.1072 -0.1287
 2024W        W20878  11.436   7.854   0.315 -0.2276  0.0426  0.1203
 2025W        W20879   8.700  16.693  13.034 -0.0847  0.0818 -0.1177
 2026W        W20880   5.384   4.322   0.346 -0.0182  0.1575  0.0695
 2027W        W20881   4.501  15.678   2.321  0.3762  0.1073  0.1397
 2028W        W20882  14.923   8.184   4.507  0.1235 -0.3719  0.0597
 2029W        W20883   5.145   1.212  12.256 -0.1979  0.0512  0.2291
 2030W        W20884  15.891   1.221   2.005  0.1355  0.1394 -0.1342
 2031W        W20885   0.033   7.705   4.040  0.3121  0.3078 -0.0177
 2032W        W20886   8.422   9.835   2.899 -0.0275  0.0342 -0.1546
 2033W        W20887   5.336   3.141   2.523  0.0351  0.1007 -0.1375
 2034W        W20888   4.314  10.038  12.808  0.1500 -0.0102 -0.2791
 2035W        W20889   5.060  13.609  13.694  0.3150  0.3502 -0.2575
 2036W        W20890   9.400   9.481  17.354 -0.0735  0.2873 -0.3299
 2037W        W20891  12.940   9.619   0.611 -0.0666  0.0055  0.0796
 2038W        W20892   9.053   4.621  16.162  0.1740  0.0212  0.0214
 2039W        W20893  15.056  14.845   2.933 -0.0876  0.0163  0.2833
 2040W        W20894   1.601   2.220   3.511  0.3495 -0.2024  0.2865
 2041W        W20895  14.238   8.763   4.240  0.1764 -0.1246 -0.1171
 2042W        W20896   6.045  11.055  14.020 -0.1422 -0.2980  0.0717
 2043W        W20897   0.160   2.900   1.501 -0.0503  0.1108  0.2189
 2044W        W20898  12.227  10.223  16.380  0.0536  0.2386 -0.2452
 2045W        W20899   4.666  10.435  16.677 -0.0517  0.1015 -0.0282
 2046W        W20900   2.773   8.140   4.433  0.0455 -0.3478 -0.2215
 2047W        W20901  14.275   1.249   1.054  0.1931 -0.3617  0.1326
 2048W        W20902   3.850  15.477  16.601  0.2840 -0.0986 -0.1357
 2049W        W20903  13.523  10.874  12.838 -0.0543 -0.1748 -0.2788
 2050W        W20904  17.239  16.923  15.529 -0.0248  0.4078  0.0976
 2051W        W20905  13.904  10.541  13.784  0.0885 -0.2840  0.1122
 2052W        W20906   6.179  10.800  17.221 -0.1845 -0.1166  0.1285
 2053W        W20907   9.964  13.170  16.194 -0.0068 -0.1119 -0.2308
 2054W        W20908   1.517   9.962  17.467  0.0525  0.1326  0.1825
 2055W        W20909  13.472  15.346   4.464 -0.2852  0.0085  0.0655
 2056W        W20910   0.704  11.317   4.267 -0.2078  0.0877 -0.0590
 2057W        W20911   1.284   1.767  14.428  0.0859  0.0707  0.2344
 2058W        W20912  14.192   2.053   5.415  0.0062  0.2300 -0.0559
 2059W        W20913  14.740   2.730   2.140  0.2714  0.0840  0.0330
 2060W        W20914  14.452   4.659   1.132  0.1249  0.0165  0.0760
 2061W        W20915   1.101   1.834  12.681 -0.0713 -0.0744  0.0014
 2062W        W20916  14.197  14.183  16.044 -0.0434 -0.1898 -0.2291
 2063W        W20917   0.138  11.041  15.472  0.0071  0.0666 -0.1384
 2064W        W20918  10.670  10.175  13.512  0.2943  0.0296  0.0960
 2065W        W20919   5.873   7.117  15.949 -0.1983 -0.2226 -0.1790
 2066W        W20920  14.912  15.619   1.737 -0.1576 -0.1003 -0.0744
 2067W        W20921  14.218   1.681   5.085  0.0680 -0.1006 -0.0899
 2068W        W20922  12.080  11.695   3.156 -0.0833  0.2150 -0.3360
 2069W        W20923  15.273   3.802   2.572 -0.0791  0.1517 -0.3609
 2070W        W20924  14.649   7.669   0.540 -0.2647 -0.0200  0.2238
 2071W        W20925   9.257   7.603   3.735  0.0012  0.1632 -0.1192
 2072W        W20926   9.759  15.309  16.773  0.1402  0.1086 -0.1719
 2073W        W20927   4.037   3.244   3.316 -0.0160  0.1745  0.2444
 2074W        W20928   6.720  11.466  14.414 -0.1697  0.1329 -0.2497
 2075W        W20929  10.988  10.584  12.945  0.3567 -0.0423  0.0232
 2076W        W20930  13.312  10.585  16.777  0.0894 -0.0934 -0.0814
 2077W        W20931   7.596   9.116   3.900 -0.0104  0.1058 -0.1932
 2078W        W20932   3.417   2.098   4.190 -0.2392  0.0862  0.3396
 2079W        W20933   8.077   9.122  17.052  0.1486 -0.0061 -0.2385
 2080W        W20934  14.373   9.818   1.036  0.1275 -0.0155 -0.1849
 2081W        W20935  12.369   6.762   5.177  0.4356 -0.3290 -0.1431
 2082W        W20936   8.696  13.864   3.028 -0.0020 -0.1824  0.1650
 2083W        W20937  12.775  10.185  12.357 -0.1073  0.0253 -0.0742
 2084W        W20938  15.505  16.585  14.184 -0.3181  0.1035 -0.0464
 2085W        W20939  13.174   5.337   3.673 -0.0954  0.0031  0.0424
 2086W        W20940   7.326   2.069   3.375 -0.0426 -0.1585  0.3675
 2087W        W20941   4.286   4.858   2.286  0.0647 -0.1849  0.0018
 2088W        W20942   8.345   0.105   3.379  0.1609  0.3759 -0.1513
 2089W        W20943   6.567  16.670   0.489  0.0039  0.1271  0.2851
 2090W        W20944  17.323  13.095  15.888 -0.2633  0.0144 -0.0399
 2091W        W20945  10.901  15.620  17.096  0.2469 -0.0765 -0.0044
 2092W        W20946   8.642   3.902   0.316  0.0426 -0.0758 -0.2443
 2093W        W20947   0.175  13.540  16.719 -0.0208 -0.0429 -0.1787
 2094W        W20948   4.909   3.383   3.167 -0.1900 -0.0197  0.0388
 2095W        W20949  10.049   3.256  14.696 -0.0183  0.0314  0.0619
 2096W        W20950   3.051  13.541   2.350  0.0668 -0.0365  0.0421
 2097W        W20951  17.250   1.786   0.636  0.2793 -0.2037 -0.0192
 2098W        W20952  12.512   0.138   2.250 -0.3388 -0.0978  0.1465
 2099W        W20953  13.271   6.710   5.037  0.1016 -0.2350 -0.2026
 2100W        W20954   7.102  15.512   4.378  0.2992 -0.0374 -0.2112
 2101W        W20955   1.556   6.196   4.022 -0.0091  0.1949  0.1741
 2102W        W20956  12.634  15.011   1.577 -0.0225 -0.2044 -0.0357
 2103W        W20957  13.514  15.070  16.683 -0.0245 -0.0383 -0.0185
 2104W        W20958  16.756   4.090  17.339  0.0689 -0.0349  0.2673
 2105W        W20959   6.398   2.493  12.867 -0.0615 -0.2783 -0.2041
 2106W        W20960   4.702   4.629   1.957 -0.0013  0.0027 -0.0243
 2107W        W20961   4.147   2.322   5.222 -0.2939 -0.2176 -0.0953
 2108W        W20962   6.625  14.535   4.643  0.0044 -0.2078  0.0746
 2109W        W20963   5.118   8.000   1.284 -0.0568 -0.2951 -0.5723
 2110W        W20964  10.459   4.224  12.606 -0.1212  0.2810 -0.0287
 2111W        W20965  16.782   1.549   3.599 -0.1751 -0.1110 -0.1015
 2112W        W20966  10.425   2.189   0.043  0.1800  0.0027 -0.0696
 2113W        W20967  17.177   2.097  16.458  0.2668  0.1948  0.2612
 2114W        W20968   2.810  13.036  14.108 -0.1058  0.1277  0.3107
 2115W        W20969   5.532  13.069  14.949 -0.2642 -0.0820  0.1423
 2116W        W20970  10.177   0.908  12.450  0.2256 -0.2091  0.0310
 2117W        W20971  15.004  14.659  17.171  0.2386 -0.1003 -0.0515
 2118W        W20972   4.559   7.619   4.429 -0.4963  0.0270  0.1702
 2119W        W20973  13.593  16.334  16.739  0.1103 -0.1224 -0.1244
 2120W        W20974  10.463  15.821   0.660  0.1069 -0.1608 -0.0103
 2121W        W20975   8.201  11.706  17.474  0.0552 -0.0352  0.2547
 2122W        W20976   6.089   0.582  12.203 -0.0956 -0.1690  0.1203
 2123W        W20977  14.997  12.096  16.298  0.0442  0.0635  0.0007
 2124W        W20978   2.114  12.134   2.667 -0.0192  0.1433  0.3275
 2125W        W20979   4.936  10.867   0.918  0.1440 -0.0385  0.2814
 2126W        W20980   9.424   0.131  16.402 -0.3010 -0.3678  0.0752
 2127W        W20981   1.841   1.678   0.547  0.0869  0.1998  0.1647
 2128W        W20982   1.533   1.529   4.814 -0.0075  0.0646  0.2371
 2129W        W20983  15.234  16.684  16.290  0.0141  0.0097  0.3472
 2130W        W20984  14.794  17.390   3.815 -0.1061 -0.0941  0.1661
 2131W        W20985   9.406  11.330   2.851  0.1807  0.2411 -0.0940
 2132W        W20986   3.920  11.596   0.242  0.2283  0.0391 -0.0036
 2133W        W20987  16.967  12.653  17.375 -0.0989  0.0634 -0.1496
 2134W        W20988  11.880  13.396   3.240 -0.2392  0.0384 -0.0960
 2135W        W20989  15.837   5.720   2.021 -0.2510 -0.0077  0.1527
 2136W        W20990  16.175  13.230   4.728 -0.0093 -0.0583 -0.0323
 2137W        W20991  12.503  10.919   3.640 -0.0693  0.1228  0.0855
 2138W        W20992   1.643  11.355  17.224 -0.1837 -0.0226  0.0772
 2139W        W20993   6.785   2.258  13.552  0.0236  0.1622 -0.0241
 2140W        W20994  13.636   6.395   3.160 -0.2252 -0.0789 -0.0020
 2141W        W20995  10.203  15.343  13.340  0.4160 -0.2501 -0.1040
 2142W        W20996   1.318  15.793   2.707  0.2403  0.1694  0.2753
 2143W        W20997  11.506   4.969  16.068 -0.2372  0.0487  0.2590
 2144W        W20998   8.432   2.863   2.588 -0.0804  0.2258  0.4189
 2145W        W20999  12.013   3.663   3.669  0.0562 -0.0182 -0.0714
 2146W        W21000  11.518  16.216   0.820 -0.0117  0.2298 -0.0741
 2147W        W21001   8.103  14.206  14.862  0.3633  0.0944  0.1540
 2148W        W21002   0.710   5.905  17.337 -0.2367 -0.0661  0.0168
 2149W        W21003   5.605  15.054  12.743  0.1315  0.2978  0.1799
 2150W        W21004   7.836   9.958   4.111  0.1342  0.1777  0.2021
 2151W        W21005  15.541   6.534  14.142  0.0961  0.2005  0.0114
 2152W        W21006   5.471   0.588   0.845 -0.0018 -0.2253  0.0244
 2153W        W21007   4.099  10.939  15.886 -0.0417  0.0115  0.0918
 2154W        W21008  12.348   4.378  15.712 -0.3271 -0.2372  0.4749
 2155W        W21009   6.518   1.938   0.599 -0.0021  0.0223 -0.2337
 2156W        W21010   1.229   4.044   2.776 -0.0387  0.1070 -0.0660
 2157W        W21011   3.824   8.987   3.484 -0.0830 -0.0371 -0.2188
 2158W        W21012   6.136   8.389   0.992  0.0653  0.0770  0.0600
 2159W        W21013  14.748  11.120  16.142  0.0045 -0.3420  0.0244
 2160W        W21014  13.259   8.408   4.786 -0.1989  0.0844 -0.0481
 2161W        W21015   3.946  15.992   1.393  0.1805 -0.0864 -0.3152
 2162W        W21016  15.703  11.674   1.483  0.0920  0.1402  0.2104
 2163W        W21017   5.942   7.292  12.241 -0.1509  0.1279  0.0527
 2164W        W21018   5.167   8.944   1.744  0.3675 -0.0114  0.0057
 2165W        W21019   3.322   9.923   5.517 -0.0785 -0.0660 -0.0776
 2166W        W21020  11.864   6.986   1.461  0.2682 -0.0447 -0.0644
 2167W        W21021  17.008   3.726   0.288  0.1399  0.4491  0.0703
 2168W        W21022  11.040   8.841  15.173 -0.1448 -0.3232  0.0886
 2169W        W21023   9.846  15.756  15.632  0.1315 -0.3699  0.1968
 2170W        W21024  12.683  17.258   1.874  0.0931 -0.3952 -0.1190
 2171W        W21025  16.529  15.964   4.201 -0.0572  0.3831 -0.2681
 2172W        W21026   2.962   8.020   0.356 -0.0313 -0.0780 -0.1515
 2173W        W21027   4.623  14.492   3.546  0.1679  0.2052 -0.1762
 2174W        W21028  16.662  14.550  11.895 -0.1550 -0.0311  0.0442
 2175W        W21029   4.645   6.357  15.491  0.1839  0.0655 -0.2451
 2176W        W21030   3.348  14.534  15.193 -0.0581 -0.0726  0.1181
 2177W        W21031   9.647   7.218   1.613 -0.0026 -0.0724 -0.1154
 2178W        W21032   7.072   5.156   3.653  0.4035 -0.0919 -0.1197
 2179W        W21033  10.172   5.913   3.367  0.2331 -0.0429  0.3353
 2180W        W21034   4.050   0.511  12.325 -0.0852 -0.1845  0.1476
 2181W        W21035  16.533  14.044   2.662 -0.0409  0.0064 -0.3463
 2182W        W21036  12.291   1.068   0.535  0.1282  0.2619 -0.1822
 2183W        W21037   5.970  10.465   3.276 -0.4294 -0.1388 -0.2425
 2184W        W21038  13.797  15.339   0.345  0.3545  0.0760 -0.1330
 2185W        W21039  12.560  15.026   2.281 -0.1464  0.3065 -0.0099
 2186W        W21040  13.741   7.220   2.340  0.1884 -0.2049 -0.0825
 2187W        W21041   4.198   7.832   1.088  0.0695 -0.0014 -0.0103
 2188W        W21042  15.618   7.160   3.864 -0.1563  0.1369  0.1701
 2189W        W21043   6.477   4.042   5.924  0.0441 -0.1528  0.1799
 2190W        W21044   4.582  15.362   3.776  0.2359  0.1407  0.1404
 2191W        W21045   7.299   2.217  15.546  0.1061  0.1208 -0.0980
 2192W        W21046   0.806  17.179   1.248 -0.2810 -0.0114  0.2588
 2193W        W21047  14.981   9.683   4.257 -0.0096 -0.1274  0.1986
 2194W        W21048   4.923   3.767   4.152  0.2059 -0.2381 -0.1143
 2195W        W21049   2.923  15.475  16.644 -0.0902  0.0223  0.3069
 2196W        W21050  16.501  17.316  14.925  0.0071  0.4503 -0.0839
 2197W        W21051   9.976   2.212  13.787 -0.2972 -0.1291  0.1812
 2198W        W21052  17.196  14.842   1.213 -0.0607  0.2584  0.1867
 2199W        W21053   5.480   0.480   5.137  0.3689  0.0196 -0.1609
 2200W        W21054  15.762  10.039   0.752  0.2776  0.2253  0.2289
 2201W        W21055   6.096   0.994  16.309 -0.2057  0.1541  0.3019
 2202W        W21056  16.088   6.540   2.627 -0.1795 -0.1222 -0.0119
 2203W        W21057  13.095  12.255   1.818 -0.3177 -0.1855 -0.3036
 2204W        W21058   2.686   0.008  12.548  0.2480  0.1605 -0.3290
 2205W        W21059  12.924  15.649  12.426 -0.0707 -0.0000  0.1164
 2206W        W21060  15.040  10.110   4.761  0.2295  0.1312  0.0409
 2207W        W21061   5.756   1.204  15.756  0.1065 -0.0634 -0.1481
 2208W        W21062  15.001  12.255  17.149  0.2155 -0.3578 -0.1822
 2209W        W21063  12.372   3.162  15.283 -0.2653  0.3716  0.2239
 2210W        W21064   1.713   1.909   5.132 -0.0155 -0.3050 -0.2115
 2211W        W21065  10.405  14.830  15.116 -0.1737  0.3510 -0.1652
 2212W        W21066   0.196  12.140   4.512  0.2947  0.2034 -0.0097
 2213W        W21067  15.188   9.192  15.276 -0.1978 -0.1192  0.0904
 2214W        W21068  10.052   5.749   2.407  0.0498 -0.0769  0.0646
 2215W        W21069  10.729   7.295  12.688 -0.4425 -0.1493 -0.1079
 2216W        W21070   7.006   7.947   1.724  0.1438  0.2570  0.0483
 2217W        W21071   9.099   3.768  15.952 -0.0435  0.2948  0.2324
 2218W        W21072  17.089  15.504  15.102 -0.1226 -0.2204  0.2292
 2219W        W21073   9.996   3.837   3.400 -0.1449 -0.2190  0.0270
 2220W        W21074   1.907   7.730   0.390  0.2012  0.4299  0.0343
 2221W        W21075  14.989  13.116  13.110 -0.0074 -0.1015 -0.2214
 2222W        W21076  15.439   9.827  15.971  0.0743  0.0654 -0.0212
 2223W        W21077   6.921  14.363   5.553  0.0754  0.3645 -0.1300
 2224W        W21078  13.541   1.995   4.544 -0.0978  0.1043  0.1530
 2225W        W21079   7.359  16.775   0.941  0.1293 -0.0275 -0.1997
 2226W        W21080  12.719   5.411   0.397 -0.3760 -0.0545  0.0081
 2227W        W21081   6.079  11.469   2.852 -0.1859 -0.0704 -0.0336
 2228W        W21082   1.100  17.125  12.665  0.0912 -0.0893  0.0703
 2229W        W21083  14.773   8.857   5.048 -0.0007  0.0826 -0.0573
 2230W        W21084  10.570   4.158  14.468  0.0883  0.0009  0.1108
 2231W        W21085   5.812   6.942  13.325 -0.1770  0.0926  0.1551
 2232W        W21086   2.665   0.249  16.930 -0.1406 -0.1995 -0.0564
 2233W        W21087   9.337   9.589  12.707 -0.1996 -0.0784 -0.3956
 2234W        W21088   0.259  12.491  12.311  0.0008 -0.0687 -0.0032
 2235W        W21089  15.203  12.573   4.574 -0.1435 -0.0302  0.0265
 2236W        W21090  16.151  10.495   2.005 -0.1162  0.2515  0.0390
 2237W        W21091  15.953   6.685   4.850 -0.0470 -0.1214 -0.0700
 2238W        W21092   9.922   3.250  16.093 -0.0646  0.1627  0.1522
 2239W        W21093  16.097  12.664   3.532  0.1055  0.1803 -0.0114
 2240W        W21094   2.685  16.996  16.177 -0.4631 -0.1111  0.2365
 2241W        W21095   9.659  12.029   4.301  0.2014 -0.0755  0.2056
 2242W        W21096   4.140   4.590  12.135 -0.2462 -0.0887  0.0424
 2243W        W21097   0.901  11.705   1.417  0.0711 -0.0785  0.1465
 2244W        W21098  13.822  12.703  15.664 -0.1903  0.1182 -0.2441
 2245W        W21099   9.804   4.695  16.972  0.0203  0.1459 -0.1716
 2246W        W21100  12.784   5.576  17.152 -0.1236  0.0338  0.0324
 2247W        W21101   6.143   8.189  15.031  0.0069 -0.0535  0.1289
 2248W        W21102  15.983  14.642   5.126  0.1087 -0.0463  0.0776
 2249W        W21103  11.978   0.024  17.086 -0.3527 -0.2297  0.2074
 2250W        W21104  10.453  13.984  12.864 -0.2316 -0.4780 -0.0624
 2251W        W21105  11.690  16.741  16.598 -0.0726 -0.1543 -0.0977
 2252W        W21106   7.887  15.669  15.591 -0.2991  0.4524  0.0752
 2253W        W21107  10.035   3.356   0.265  0.3234  0.1256 -0.0543
 2254W        W21108   2.254   7.493   3.321 -0.1294 -0.2807  0.1653
 2255W        W21109   0.204  16.612   2.350  0.0643  0.2700  0.0720
 2256W        W21110  13.466  16.811   2.013  0.0273 -0.1472  0.0427
 2257W        W21111   8.565  15.341  12.910 -0.0212 -0.1436  0.0760
 2258W        W21112   8.902   6.567  15.809  0.1678 -0.0566 -0.1214
 2259W        W21113  14.994  16.871  16.681  0.2978 -0.0141  0.2894
 2260W        W21114   2.894   5.287   4.677 -0.0889 -0.2017  0.0691
 2261W        W21115   9.054   9.949   0.959  0.0832  0.2837 -0.0696
 2262W        W21116   4.764   7.124   3.116  0.0712  0.0937  0.1717
 2263W        W21117  10.027   7.684   4.716 -0.0128 -0.0676  0.2597
 2264W        W21118   7.125  13.807   0.755 -0.2440 -0.0647  0.0495
 2265W        W21119  14.220   3.337   4.108  0.1439 -0.1934  0.0505
 2266W        W21120   1.887   9.406  16.282 -0.1698  0.0039  0.0319
 2267W        W21121  14.328  14.389  15.080  0.1379 -0.4043 -0.1495
 2268W        W21122   0.376  10.499  13.003  0.1368  0.2626  0.0515
 2269W        W21123  16.610  15.055  14.459  0.0356  0.0674  0.3676
 2270W        W21124  13.331   9.850  15.095  0.0596  0.0320 -0.0563
 2271W        W21125   1.842   5.299  12.081  0.2096  0.0665  0.1643
 2272W        W21126  12.429   3.426  16.127 -0.0779  0.1430  0.1750
 2273W        W21127   0.848  15.246   0.672 -0.3491 -0.0638 -0.3793
 2274W        W21128   4.805  13.762  16.834  0.2343  0.1231 -0.3644
 2275W        W21129   6.243   2.043   4.958  0.0025  0.1908 -0.1871
 2276W        W21130  10.252  16.056   1.658 -0.1611  0.3944  0.1800
 2277W        W21131   8.257  11.038  13.451 -0.1092 -0.2023 -0.0173
 2278W        W21132   6.520  14.552  15.872  0.0301 -0.1168 -0.2108
 2279W        W21133   3.702  11.193   2.016  0.0058  0.0878  0.1735
 2280W        W21134   2.061   9.962  15.567 -0.2685 -0.0869  0.2199
 2281W        W21135  11.772   5.589   2.736 -0.2432  0.1502 -0.0333
 2282W        W21136   2.307  13.970   0.898 -0.1319 -0.0388  0.1348
 2283W        W21137  17.388   0.682   4.226 -0.0270  0.0496  0.0626
 2284W        W21138   3.477   7.145   2.421 -0.0274 -0.2460  0.2434
 2285W        W21139   4.655  11.892  13.882  0.3122 -0.0933 -0.1252
 2286W        W21140   4.791   9.915   3.883 -0.1986  0.1903  0.0044
 2287W        W21141   6.969  10.372   2.868 -0.0006 -0.2442 -0.0545
 2288W        W21142  15.055  15.907   6.542  0.1724 -0.2280 -0.2662
 2289W        W21143  16.777  16.665  15.671  0.0636 -0.1285  0.1321
 2290W        W21144   0.769  16.633  12.653  0.1949 -0.2391 -0.1632
 2291W        W21145   3.044  17.132   4.114 -0.0745 -0.1120  0.0586
 2292W        W21146   4.501  13.938   5.109  0.1779 -0.0246 -0.0465
 2293W        W21147  10.785  16.987  12.742  0.0136  0.2712  0.1020
 2294W        W21148   7.243   9.878   1.485 -0.0712  0.0391  0.0946
 2295W        W21149   8.120   6.146  11.661  0.0223  0.0994  0.2547
 2296W        W21150   6.829   2.220   4.607  0.1958 -0.1699 -0.2892
 2297W        W21151  10.590  11.848   2.021 -0.2134 -0.0606 -0.1825
 2298W        W21152  12.490  16.734  16.252 -0.1128  0.0186  0.1039
 2299W        W21153   5.874   0.083  15.918 -0.0744 -0.1862  0.0539
 2300W        W21154  13.288  14.908   2.070 -0.0123 -0.2596 -0.1561
 2301W        W21155  12.575  11.517  15.944 -0.1157  0.0373  0.0538
 2302W        W21156  12.193  15.251   2.542  0.4875 -0.0049  0.0302
 2303W        W21157   2.596   2.099   1.441  0.1102 -0.1150  0.1063
 2304W        W21158   2.215   7.238  13.974 -0.0606 -0.0144  0.2479
 2305W        W21159   6.286  13.680  14.894 -0.1197 -0.1152 -0.1671
 2306W        W21160   5.716   3.050  17.382 -0.0162  0.0456  0.1431
 2307W        W21161   6.355  13.531  17.207 -0.4185  0.1735  0.0981
 2308W        W21162   0.246   9.255  16.290  0.1676  0.1992  0.3214
 2309W        W21163  12.998  16.165   0.248  0.0456 -0.2447 -0.0642
 2310W        W21164   9.762   4.047   3.893  0.3771  0.2095 -0.1629
 2311W        W21165  14.245  14.396   5.123 -0.0113  0.3798  0.3311
 2312W        W21166  13.949   3.667   3.762 -0.0749 -0.0863  0.3062
 2313W        W21167   4.397   3.725  16.809 -0.0577 -0.0691 -0.0434
 2314W        W21168   4.512   6.063  17.038  0.1092  0.1587 -0.1836
 2315W        W21169   8.022   4.076   4.456 -0.2554  0.1092  0.1312
 2316W        W21170   5.200   7.225   1.809  0.1543 -0.2056  0.0074
 2317W        W21171   4.725  12.280   2.475  0.0335 -0.2092 -0.1736
 2318W        W21172   2.266   4.545   3.457  0.0328 -0.1960 -0.1158
 2319W        W21173  11.673   8.189  14.117 -0.1822 -0.0755 -0.0558
 2320W        W21174  13.917  17.157   4.823 -0.1222 -0.0381  0.0256
 2321W        W21175  13.171  16.839  14.540 -0.0929  0.4111  0.1615
 2322W        W21176   0.534  17.026   2.259  0.1832  0.0433  0.0646
 2323W        W21177  10.117  16.803   0.714  0.0763  0.1668 -0.2999
 2324W        W21178   3.794  15.890   2.929  0.0325 -0.2160  0.0118
 2325W        W21179  13.150  12.163  16.952 -0.0130 -0.0683 -0.2786
 2326W        W21180  14.868   3.880   0.502  0.1004  0.3749 -0.1150
 2327W        W21181   9.548   5.121  12.876 -0.0982 -0.0630  0.1821
 2328W        W21182   7.627  10.229  12.906 -0.2088 -0.0994  0.0382
 2329W        W21183  11.925  13.977  15.484  0.0233 -0.1526  0.3359
 2330W        W21184   9.046   1.359  17.119 -0.1709  0.1359  0.0642
 2331W        W21185  12.125  12.829  14.465 -0.1796 -0.0143 -0.0047
 2332W        W21186   9.593  11.939   0.731  0.0685  0.0455 -0.0690
 2333W        W21187   2.753   4.484   3.054 -0.0696  0.5763  0.1462
 2334W        W21188   5.376   4.859  13.894 -0.0130  0.1195 -0.0315
 2335W        W21189   5.052  11.575   2.092 -0.0504  0.2644  0.0466
 2336W        W21190   7.757  16.322   0.867  0.0069  0.2974 -0.2094
 2337W        W21191   6.766   2.113   5.107 -0.3466 -0.0843  0.0696
 2338W        W21192   3.535  17.390   1.584  0.3507  0.0216  0.4704
 2339W        W21193   3.684  16.375  12.800  0.0730 -0.3553 -0.1330
 2340W        W21194  15.713  10.587  13.344  0.0958 -0.0446 -0.3415
 2341W        W21195   1.510  13.342  16.176  0.0077  0.1207 -0.0122
 2342W        W21196  14.601   6.717  12.770 -0.1007  0.1750  0.2686
 2343W        W21197  14.040   5.376   3.137 -0.0417  0.0982  0.3012
 2344W        W21198   4.053   0.862  14.757 -0.1691  0.1145 -0.0526
 2345W        W21199   8.645  14.929  12.636  0.0265 -0.2172  0.2578
 2346W        W21200   9.119  16.876  15.944  0.2082 -0.1982 -0.2628
 2347W        W21201   7.680  16.498  13.778  0.0061 -0.1094 -0.0633
 2348W        W21202   3.485   4.665   5.120  0.1934  0.0542 -0.0076
 2349W        W21203   7.922  12.138   5.252 -0.0195  0.2450  0.1076
 2350W        W21204  15.464  14.139  16.425 -0.0131 -0.0950  0.2745
 2351W        W21205  11.770   0.405   1.920  0.0147  0.0117  0.1094
 2352W        W21206  16.242   0.608  12.745  0.1083 -0.1023 -0.0050
 2353W        W21207   3.723   0.776   5.746  0.0186 -0.2363 -0.0060
 2354W        W21208  12.068  16.862  15.712  0.0280  0.0304 -0.2965
 2355W        W21209  13.174   8.949  12.535  0.1305  0.3684  0.1776
 2356W        W21210   1.343   7.250   0.855  0.0781 -0.1682  0.3229
 2357W        W21211  10.466   2.298   3.694  0.2917  0.3272  0.1322
 2358W        W21212   4.838   4.885  16.441  0.0653 -0.0977 -0.2573
 2359W        W21213   2.464  12.546  14.215  0.0481  0.1874 -0.0578
 2360W        W21214   4.400   9.398  14.272  0.2192 -0.1346 -0.0313
 2361W        W21215  17.174  16.425   2.030  0.0132 -0.1087  0.1442
 2362W        W21216  17.162  13.675  15.992  0.0722 -0.0925 -0.1107
 2363W        W21217   3.195  15.883  13.456  0.1375 -0.0101  0.2154
 2364W        W21218   7.353   6.149   2.363  0.0460  0.0918  0.0277
 2365W        W21219  13.173  15.837   3.046  0.0828  0.2620  0.2515
 2366W        W21220  15.317   8.223   4.822  0.0985 -0.0065 -0.1591
 2367W        W21221   4.124   3.947   5.545 -0.1711 -0.2107 -0.0157
 2368W        W21222   6.437   7.959  15.999  0.1316  0.0075  0.0333
 2369W        W21223   7.604   5.619   0.641 -0.1220 -0.2518 -0.0390
 2370W        W21224  10.477   3.896  15.543 -0.0082 -0.1024  0.0158
 2371W        W21225   6.514   2.934  13.298 -0.2270  0.0146  0.1898
 2372W        W21226  11.626   6.559  15.362  0.0561 -0.0810 -0.1180
 2373W        W21227   1.263   3.922   3.310  0.2496 -0.1518 -0.1859
 2374W        W21228   5.578   9.611  15.966  0.1326  0.3143 -0.1447
 2375W        W21229   4.991  13.041   1.925  0.0378  0.0394 -0.1522
 2376W        W21230   0.416   5.190   2.405 -0.2551  0.2072  0.0621
 2377W        W21231  14.734  13.295   1.144 -0.1708 -0.4130 -0.2120
 2378W        W21232   5.040  16.010   4.584  0.2017 -0.0256  0.1015
 2379W        W21233  14.565   1.759  14.872 -0.0806 -0.0329  0.1578
 2380W        W21234   6.656   0.314  17.137 -0.1450 -0.4239 -0.1752
 2381W        W21235   0.997  16.459  13.973  0.0951  0.1094  0.2507
 2382W        W21236   5.642   5.553  14.969  0.4364  0.0153  0.1607
 2383W        W21237   8.290  13.196   4.491  0.2410 -0.3213 -0.0219
 2384W        W21238   2.032   7.006   0.060  0.1002 -0.0694  0.2165
 2385W        W21239  16.569   0.654   1.545 -0.0849  0.2128 -0.0740
 2386W        W21240  15.167  10.250  15.985 -0.2296  0.0116  0.1018
 2387W        W21241   2.866  15.662  14.199 -0.3500  0.2518 -0.1088
 2388W        W21242   3.217   9.426   4.078  0.0089  0.0571 -0.1273
 2389W        W21243   3.790   8.093   3.548  0.0608 -0.1106  0.1896
 2390W        W21244   5.572   9.693  13.246  0.0420  0.2869  0.0493
 2391W        W21245   2.348   4.189   3.762 -0.0826  0.0051  0.2596
 2392W        W21246  11.066  12.064   3.074 -0.0087 -0.0444 -0.1311
 2393W        W21247   4.129   9.018   0.070  0.1817 -0.2879  0.0951
 2394W        W21248  17.087  15.137  13.445  0.3287  0.1469 -0.2178
 2395W        W21249   0.081   0.127  16.010 -0.0937  0.1226  0.1469
 2396W        W21250   0.197  16.244   3.791  0.2747  0.0482  0.0066
 2397W        W21251  10.913  17.377   2.579 -0.0223  0.0094 -0.2417
 2398W        W21252  16.187   0.289  14.819  0.0564  0.3853 -0.1577
 2399W        W21253   6.445   9.872  12.648  0.0924 -0.1054 -0.1950
 2400W        W21254  15.538   7.556  13.456  0.3589 -0.1886  0.0190
 2401W        W21255  12.768  16.190  15.370  0.2070 -0.0758  0.0104
 2402W        W21256   3.705  14.463   3.293  0.0975  0.0278 -0.3237
 2403W        W21257   4.682  12.979   4.188  0.0995 -0.1670  0.4206
 2404W        W21258   8.795   8.497  17.416 -0.0581  0.0920 -0.3262
 2405W        W21259   6.473   1.339  12.765 -0.1584  0.0680 -0.3258
 2406W        W21260  15.930   7.491   2.412  0.0202  0.1124 -0.2186
 2407W        W21261   1.364   3.678   2.445  0.3141  0.1112 -0.1928
 2408W        W21262   8.193   8.833  16.605 -0.0048 -0.3557  0.3439
 2409W        W21263   6.613  13.143  16.841  0.0075  0.2132  0.3089
 2410W        W21264   6.679   5.907   0.910 -0.4781  0.0145  0.1259
 2411W        W21265  14.645   1.383  16.794  0.0109  0.0934 -0.3388
 2412W        W21266   9.298  16.152   1.039 -0.1452 -0.1115  0.0599
 2413W        W21267   2.482  17.312   1.626 -0.0220 -0.1320 -0.3834
 2414W        W21268   9.312   2.851   4.666  0.0390 -0.1524 -0.2819
 2415W        W21269   8.104   1.339   1.391  0.0026  0.1397  0.3171
 2416W        W21270  14.197  16.434   4.722 -0.0250  0.0407  0.2357
 2417W        W21271   3.081   4.495   0.720 -0.0544 -0.3270 -0.0441
 2418W        W21272   5.158  11.190   1.207  0.1564 -0.0674 -0.0153
 2419W        W21273   4.493  10.534  12.693  0.4222  0.1348 -0.0124
 2420W        W21274  11.822   1.308  12.584 -0.1152  0.0631  0.0372
 2421W        W21275   8.077  16.912   1.242 -0.0392 -0.3404 -0.3354
 2422W        W21276   1.837   2.045   4.098 -0.0414  0.1167 -0.4088
 2423W        W21277   2.146   1.142  15.713  0.2342 -0.0327  0.3990
 2424W        W21278  14.435  15.879   3.761  0.0536  0.1605 -0.0653
 2425W        W21279  13.599   8.534   1.841  0.0630  0.0209 -0.1653
 2426W        W21280  12.304   9.199  16.613 -0.0252  0.2155 -0.0256
 2427W        W21281   3.236  14.278  12.572  0.2349  0.2740 -0.0280
 2428W        W21282   8.962   8.569  16.984 -0.1524  0.1581  0.1817
 2429W        W21283  12.522  10.180   4.216 -0.1956  0.4310  0.1644
 2430W        W21284   5.869   6.239   1.336  0.0565 -0.0234  0.1262
 2431W        W21285  14.169  11.839  15.700 -0.0966 -0.0679 -0.0173
 2432W        W21286   1.456   4.767   5.408  0.2251  0.0378 -0.1643
 2433W        W21287  10.039  13.954   4.340  0.1948  0.0232  0.2657
 2434W        W21288  11.050  17.180   1.112  0.1571 -0.1772  0.1056
 2435W        W21289  13.092   3.085  14.821  0.1710 -0.3776  0.2739
 2436W        W21290  17.272   9.796   4.406  0.3729 -0.1434  0.0410
 2437W        W21291   9.153   4.605  15.046 -0.0923  0.1183  0.0378
 2438W        W21292   4.100   4.808   0.605 -0.1186 -0.2251 -0.0680
 2439W        W21293  13.279  12.779   0.956  0.2225  0.0296  0.2693
 2440W        W21294   1.479   8.478  16.265 -0.0724 -0.1436 -0.1046
 2441W        W21295   7.196   8.200  14.204 -0.0585 -0.2235  0.0358
 2442W        W21296  15.789   8.805  15.864  0.1324 -0.4402 -0.1059
 2443W        W21297   1.469  10.471   2.372 -0.1144  0.0039  0.1256
 2444W        W21298   2.409  16.380   2.417 -0.0683 -0.1147  0.0533
 2445W        W21299  13.049  12.205   2.346  0.1079 -0.2874  0.2544
 2446W        W21300  14.777   4.571   2.851 -0.3653 -0.1465 -0.0850
 2447W        W21301  12.539   2.901   2.948 -0.4846  0.0727  0.0029
 2448W        W21302   6.385  10.926   1.622 -0.0074  0.1597 -0.0933
 2449W        W21303   3.350  13.083  13.389 -0.0197 -0.0827  0.2381
 2450W        W21304  11.051   6.319   0.413  0.0212  0.1114 -0.1568
 2451W        W21305  10.044   2.775  14.448 -0.1314  0.0229 -0.2100
 2452W        W21306   3.328  14.901   2.535  0.0801 -0.2759  0.2351
 2453W        W21307  13.131   3.630   1.991 -0.4776  0.0694 -0.0852
 2454W        W21308  13.091   1.104   4.331  0.0015  0.1041  0.0738
 2455W        W21309   3.449  12.719  14.203 -0.2847  0.1451  0.0959
 2456W        W21310  13.642  16.899   4.481 -0.0239 -0.4454  0.1391
 2457W        W21311  13.057   1.347  16.967 -0.1955  0.0157  0.0300
 2458W        W21312   2.162   0.242   2.445  0.0492 -0.1221 -0.1160
 2459W        W21313  11.268   0.933   2.480 -0.1472  0.0223  0.0752
 2460W        W21314   9.939  11.062   3.770  0.1147  0.2322 -0.0778
 2461W        W21315   3.396  15.249   0.340  0.3026  0.4211  0.1407
 2462W        W21316  10.222  10.380  13.569  0.3055 -0.0599 -0.0266
 2463W        W21317   2.147   7.286   0.481 -0.2498 -0.1146  0.2624
 2464W        W21318  15.239   7.602   3.177 -0.1627  0.2619  0.0875
 2465W        W21319   1.651   2.310   1.589 -0.0269 -0.1593 -0.0391
 2466W        W21320  16.416   1.149   4.762 -0.0695 -0.4984 -0.0228
 2467W        W21321  10.286  14.537  15.897  0.2334  0.0420  0.0991
 2468W        W21322   4.927  15.315   1.618  0.3410  0.0752  0.1284
 2469W        W21323  12.848  16.802   2.811  0.1065  0.0047 -0.2132
 2470W        W21324  10.181   7.105  15.703  0.3856 -0.0952 -0.1504
 2471W        W21325   4.679   7.005  16.068  0.3512 -0.0999 -0.1860
 2472W        W21326  10.803  15.134   4.616  0.1807  0.1296  0.2012
 2473W        W21327  10.522  12.595   4.227 -0.0363  0.0990  0.0918
 2474W        W21328   4.832   8.971  12.824 -0.0258  0.0155 -0.1188
 2475W        W21329   6.919   9.228  14.176 -0.1322 -0.3067  0.0212
 2476W        W21330   1.500  11.746  12.552 -0.1199  0.1204  0.1940
 2477W        W21331   9.560   0.368  12.834  0.1009  0.1568 -0.3042
 2478W        W21332   2.670   7.226   0.425  0.0945  0.3690  0.1469
 2479W        W21333   4.849  15.134  14.071  0.0812  0.0883  0.1473
 2480W        W21334  11.296   5.266  11.973 -0.0163  0.0004  0.2006
 2481W        W21335  15.461   0.794  12.648 -0.3535  0.0966  0.0624
 2482W        W21336   3.903   6.556  14.442  0.0207  0.0736 -0.1015
 2483W        W21337   2.129  11.650  15.358  0.2796 -0.4733 -0.2481
 2484W        W21338   0.199   8.911   0.579  0.1779 -0.1631  0.3083
 2485W        W21339   3.390   1.872  17.229 -0.0530  0.1931 -0.0458
 2486W        W21340   7.590  16.471  15.533  0.0954  0.1030 -0.0825
 2487W        W21341   2.096   9.104  14.641 -0.3705 -0.0174  0.2896
 2488W        W21342  15.998  12.629   2.399 -0.0116  0.0511  0.0888
 2489W        W21343   4.700   2.551  17.179  0.4579  0.1579 -0.0953
 2490W        W21344   1.586  16.206  12.387 -0.0165 -0.0343  0.1392
 2491W        W21345  14.821  14.802   3.967  0.0767 -0.1188 -0.0169
 2492W        W21346   3.143   8.037  15.649  0.3114  0.0469 -0.2436
 2493W        W21347  11.759   5.966   6.306  0.0951  0.2304 -0.0994
 2494W        W21348   7.136  10.646   5.290 -0.0615  0.1392  0.2405
 2495W        W21349  16.939   3.187  14.333  0.0683 -0.1027  0.0612
 2496W        W21350   2.444   9.453  14.155 -0.0999  0.1362  0.0697
 2497W        W21351   0.102  12.098  14.887  0.0082  0.0695 -0.0411
 2498W        W21352   0.783   9.005  12.546  0.0319 -0.3154  0.0822
 2499W        W21353   4.525   9.634   3.570  0.0767 -0.1041 -0.0494
 2500W        W21354   3.155   4.595  13.271  0.1279 -0.0872  0.0226
 2501W        W21355  10.286  12.068   3.623 -0.0868 -0.0254  0.0537
 2502W        W21356  12.362  12.059   1.648  0.0106 -0.2443 -0.2967
 2503W        W21357   6.098  10.573   5.032 -0.3729 -0.2624 -0.0051
 2504W        W21358   8.523  12.066   1.883 -0.1739 -0.4258 -0.2714
 2505W        W21359  13.060   4.455   4.018 -0.2906  0.1466  0.1163
 2506W        W21360  12.857  12.330  14.792 -0.1371  0.2160 -0.3252
 2507W        W21361  16.470   5.293  16.865  0.2542  0.0786  0.2090
 2508W        W21362  11.900   1.217   0.256 -0.1864  0.2006  0.1350
 2509W        W21363   8.008  10.604  12.982  0.2442 -0.0716 -0.1223
 2510W        W21364  12.612  10.914  15.514 -0.2057 -0.3188 -0.0565
 2511W        W21365   3.099   9.589   2.566  0.0551 -0.0806 -0.1431
 2512W        W21366  15.646  14.676  15.498  0.1012 -0.1184 -0.1067
 2513W        W21367   4.440   8.478  12.817  0.2144  0.0695 -0.2367
 2514W        W21368   3.377   7.621  13.919  0.0680  0.1974  0.1266
 2515W        W21369   7.306   0.774  13.184 -0.1158 -0.0304 -0.0108
 2516W        W21370   7.385  11.364   5.080  0.1100 -0.0304 -0.2368
 2517W        W21371  17.347  11.593   1.109  0.6273  0.3732 -0.0637
 2518W        W21372   7.563   9.170  13.021  0.0058 -0.0029  0.0487
 2519W        W21373   6.628   0.805   0.746 -0.0636  0.0092 -0.1794
 2520W        W21374   0.655  15.908   5.317  0.0397 -0.0916 -0.2972
 2521W        W21375   8.321  11.045   4.995 -0.4477 -0.3351  0.2225
 2522W        W21376  15.260   5.691   2.642  0.1938  0.0927 -0.0099
 2523W        W21377   5.088   2.244  12.019  0.3080 -0.0345  0.3440
 2524W        W21378  11.574   2.966   1.199  0.2237 -0.0764 -0.1013
 2525W        W21379   4.601   0.285  15.784 -0.1892  0.0817 -0.0295
 2526W        W21380  16.009   0.134  15.678 -0.3725  0.0048 -0.1115
 2527W        W21381   6.794   8.287   3.336 -0.3475 -0.0589  0.0283
 2528W        W21382  11.425  16.377  13.808  0.1942  0.1378 -0.4536
 2529W        W21383   8.205   7.364   2.211  0.1348  0.2072 -0.0629
 2530W        W21384   5.230  15.307  15.249  0.0171  0.0996 -0.1277
 2531W        W21385  13.090   9.912   3.351  0.3023 -0.0461 -0.0679
 2532W        W21386   7.633  12.675   3.926 -0.0398  0.0939 -0.1096
 2533W        W21387   1.027   9.748  17.348  0.0680 -0.1145  0.2509
 2534W        W21388   0.711  13.424   5.115  0.1411 -0.1118 -0.0067
 2535W        W21389  14.013   5.538  12.460 -0.0682 -0.1484 -0.0965
 2536W        W21390   3.550   9.783  17.433 -0.1437  0.0218  0.0722
 2537W        W21391   5.098   1.515   3.295  0.0516  0.1718  0.2218
 2538W        W21392   6.581   5.217   0.861 -0.2292 -0.1535 -0.3452
 2539W        W21393   1.988   8.998   0.580 -0.3347  0.1744 -0.1802
 2540W        W21394   1.774   6.579   0.900 -0.2518  0.2870  0.0282
 2541W        W21395  11.305  14.153   5.261  0.1356  0.2655  0.0580
 2542W        W21396  14.754  13.162  15.411  0.0367 -0.1295  0.0540
 2543W        W21397  16.679  11.811  16.510 -0.1207 -0.0748  0.2129
 2544W        W21398  13.189  13.617   4.137 -0.0738  0.2249 -0.1452
 2545W        W21399   8.875   4.166   4.280 -0.1188  0.1209 -0.2342
 2546W        W21400  10.505   3.223  12.568  0.1636  0.0025 -0.1504
 2547W        W21401   2.396  12.185  12.734 -0.0468  0.0028 -0.1147
 2548W        W21402   4.769  12.672   4.653 -0.3310  0.0781 -0.2378
 2549W        W21403  16.044   3.108  14.130  0.3994 -0.0263  0.0584
 2550W        W21404   9.665  16.623   3.064  0.4019  0.4034 -0.1279
 2551W        W21405   3.527  16.799  16.012  0.3700 -0.1463 -0.1897
 2552W        W21406   5.101   8.980   1.242  0.1474 -0.0823 -0.2013
 2553W        W21407  14.124   1.658  13.269 -0.0571 -0.0236 -0.2917
 2554W        W21408   6.830  14.165  13.445 -0.0764 -0.0599 -0.0425
 2555W        W21409  11.886  15.340  15.360  0.0648  0.1206  0.0198
 2556W        W21410  13.715   4.190  14.662 -0.1271 -0.0996  0.3650
 2557W        W21411  10.052   3.257  12.953  0.0840 -0.1988  0.0355
 2558W        W21412  12.952   4.178  12.333 -0.2140 -0.0912 -0.0786
 2559W        W21413  16.952  13.245  17.080  0.1320  0.1547  0.2165
 2560W        W21414   2.665   5.657   4.498 -0.0032 -0.1979 -0.3010
 2561W        W21415   3.124  12.775   0.536 -0.1644  0.0085 -0.0556
 2562W        W21416   8.352  14.894   0.552 -0.1663  0.0263 -0.1922
 2563W        W21417   8.091  11.796  15.431 -0.1734  0.0204  0.0145
 2564W        W21418  15.648   4.693  14.441 -0.0962  0.0103 -0.4730
 2565W        W21419   0.785   4.608  14.539  0.3362  0.1379  0.0721
 2566W        W21420   3.960   1.223  17.230  0.1301 -0.0421 -0.2173
 2567W        W21421   0.995   7.369  13.468  0.1406 -0.0591  0.1490
 2568W        W21422  12.973   1.756  14.343  0.0126  0.0537  0.0372
 2569W        W21423   3.618   2.422   3.393 -0.2723  0.1323  0.0502
 2570W        W21424   1.327  15.379   1.868  0.1479  0.5918  0.0997
 2571W        W21425   6.983  14.265  14.471 -0.0099  0.0598  0.3317
 2572W        W21426   2.860   7.879  13.322  0.3322  0.2143  0.2412
 2573W        W21427   0.710   5.561   4.596 -0.1561 -0.0210  0.0599
 2574W        W21428   0.007   0.400  15.503  0.1863  0.1597  0.0521
 2575W        W21429   1.326   0.132  12.823  0.0966 -0.0605  0.0109
 2576W        W21430   4.394  10.380   0.481 -0.1088  0.1556 -0.1098
 2577W        W21431   1.060   4.916   3.564  0.2915 -0.0662 -0.0089
 2578W        W21432  17.292   4.878   1.121 -0.0776 -0.2068 -0.0632
 2579W        W21433   6.462   3.102   3.476  0.1790 -0.0183  0.1588
 2580W        W21434  13.271   0.953  16.535  0.1482 -0.0842  0.2076
 2581W        W21435   9.641   7.819   3.499  0.0473 -0.1785 -0.1560
 2582W        W21436   2.409   8.667  16.979 -0.0893 -0.1576  0.1468
 2583W        W21437  16.145   0.003  16.756  0.1461 -0.2124 -0.0781
 2584W        W21438   8.884   5.717   2.802 -0.0834  0.2315  0.1618
 2585W        W21439   6.167   3.473   2.743 -0.1593 -0.3690  0.2938
 2586W        W21440  16.874   0.555   0.548 -0.0079  0.1068 -0.1949
 2587W        W21441   5.435   9.453   4.857 -0.2469 -0.3287  0.1106
 2588W        W21442  13.897   1.483  17.284 -0.0900  0.2478 -0.0796
 2589W        W21443  14.228   1.521   1.878 -0.0589 -0.2074  0.2304
 2590W        W21444  17.102   4.993   0.587  0.0163  0.0345  0.0729
 2591W        W21445   1.835  11.457  13.858 -0.1690  0.1310  0.0091
 2592W        W21446   2.269   6.856  12.350 -0.0506  0.0941  0.1419
 2593W        W21447   5.789   1.818   3.798  0.2145 -0.1995 -0.0634
 2594W        W21448  11.148  13.916   3.381  0.0804 -0.0804  0.1213
 2595W        W21449   4.624   5.441  12.340 -0.0245 -0.0452  0.1614
 2596W        W21450   6.915   7.058   3.852  0.2103  0.2383 -0.1425
 2597W        W21451   7.065   5.579   0.787  0.3504  0.0057  0.2166
 2598W        W21452  11.526  12.049  16.846  0.0759  0.2526 -0.3240
 2599W        W21453   5.919   1.922  14.195 -0.0102 -0.2732 -0.1742
 2600W        W21454  14.252  16.337  16.355 -0.1606  0.2115  0.0415
 2601W        W21455   8.918   4.732  16.604 -0.0911  0.2466 -0.2057
 2602W        W21456   9.421  16.522  15.831  0.2288 -0.0113  0.2331
 2603W        W21457  11.378   8.468   0.519 -0.2816  0.1597 -0.2020
 2604W        W21458   7.502   5.028  14.387 -0.0883  0.0015 -0.0197
 2605W        W21459   3.637  11.654   1.944 -0.1264  0.3451 -0.2038
 2606W        W21460   2.350   2.506   5.371  0.0477 -0.3257  0.1890
 2607W        W21461  16.889  15.626  15.983  0.0338  0.1198 -0.0205
 2608W        W21462  16.434   0.118  12.754 -0.2947  0.2681 -0.0069
 2609W        W21463  10.070   0.795   1.761  0.0017 -0.0821  0.0298
 2610W        W21464   7.147  13.911  14.843  0.0086  0.0352 -0.0428
 2611W        W21465   0.405   3.724   4.465 -0.1095 -0.0168 -0.0050
 2612W        W21466   6.194   7.699  12.539 -0.0870  0.0691  0.1086
 2613W        W21467  12.372   7.523   4.569 -0.0165 -0.0618  0.0331
 2614W        W21468   2.821   6.440  14.907  0.2092 -0.0711  0.0336
 2615W        W21469  14.269   1.340  14.933  0.0692  0.0469  0.0288
 2616W        W21470   0.496   2.364   4.495  0.3266  0.4714  0.0137
 2617W        W21471  11.746  11.334   0.725 -0.1738  0.0970  0.1137
 2618W        W21472  15.668  12.939   4.650 -0.0416 -0.0121  0.0479
 2619W        W21473   7.749  15.808   3.335 -0.3101 -0.1462  0.0386
 2620W        W21474  15.147   4.677  13.064  0.2509  0.0883  0.0304
 2621W        W21475  17.324  11.612   2.997 -0.0515  0.0116 -0.0051
 2622W        W21476   7.102  14.348  17.428 -0.0018 -0.0684 -0.1182
 2623W        W21477  11.626   2.553  17.251 -0.2141 -0.1788 -0.0565
 2624W        W21478  17.138   5.897   0.719 -0.3306  0.1429  0.0825
 2625W        W21479  17.107   6.933   0.387  0.1926  0.1095 -0.2173
 2626W        W21480  15.433   0.508  14.285  0.0741 -0.0884 -0.1697
 2627W        W21481   7.972  15.267  16.477 -0.1570  0.1974 -0.2208
 2628W        W21482   4.962  10.226   4.797 -0.0314  0.0595 -0.2344
 2629W        W21483  10.932  15.064  16.434  0.3016 -0.1489  0.0009
 2630W        W21484   4.453  13.130  15.390 -0.1636  0.2305  0.2556
 2631W        W21485  15.438   8.937   5.452  0.3014  0.3314  0.0921
 2632W        W21486   7.397   6.685  13.191  0.0175  0.0705 -0.0356
 2633W        W21487   8.102   6.034   0.618  0.1472 -0.0736 -0.0178
 2634W        W21488  12.138  12.504  13.313 -0.1038 -0.0565 -0.2130
 2635W        W21489  12.365   8.767  13.279  0.2052  0.1114 -0.1135
 2636W        W21490   8.086  14.242  13.575  0.1416 -0.2199 -0.0372
 2637W        W21491  14.924  12.060  15.404 -0.1316  0.1159  0.0389
 2638W        W21492  16.307   0.992  15.883 -0.1408  0.2405 -0.0918
 2639W        W21493   6.936   0.177   4.727 -0.1858 -0.2441 -0.1288
 2640W        W21494  16.764   1.812   4.793 -0.1518  0.0259 -0.3310
 2641W        W21495  16.844  16.371   4.853 -0.0559  0.2553  0.0313
 2642W        W21496  14.159   3.884  14.616  0.0925  0.3169 -0.0687
 2643W        W21497   5.518   1.582  17.269  0.0780 -0.0207  0.0189
 2644W        W21498   7.809   5.421  12.621 -0.0268 -0.0865 -0.1228
 2645W        W21499   3.002   1.629  17.041  0.0081 -0.1685  0.3563
 2646W        W21500  16.964   6.533  15.529  0.1878  0.1716 -0.0613
 2647W        W21501   7.082  13.100   1.041  0.1697 -0.0997  0.0346
 2648W        W21502  11.305   0.633   1.025  0.2659  0.2623 -0.2374
 2649W        W21503  10.501   1.765  12.702 -0.2411 -0.4113 -0.0681
 2650W        W21504   7.152  14.834   2.402 -0.2564  0.1631 -0.2568
 2651W        W21505   1.050   1.052   1.711  0.2578  0.2742 -0.1514
 2652W        W21506  15.172  13.906   0.453  0.3645 -0.1044  0.3414
 2653W        W21507  15.999   4.061   5.330 -0.0569  0.0995 -0.2021
 2654W        W21508   4.548   6.750   2.682 -0.1555 -0.0417  0.1768
 2655W        W21509   8.009   7.333  13.942 -0.2384  0.2092  0.5014
 2656W        W21510   2.761  13.783   2.764 -0.0651 -0.1496  0.3618
 2657W        W21511   2.875  12.940  12.553 -0.0298 -0.0906 -0.1462
 2658W        W21512   3.485   9.369  12.099  0.1392  0.0263 -0.1623
 2659W        W21513   5.636   9.907   4.733 -0.2026 -0.0241  0.2768
 2660W        W21514   9.907  11.629  14.228 -0.1527  0.4152  0.0315
 2661W        W21515  10.207  15.701   2.068  0.0407  0.0009 -0.0143
 2662W        W21516  15.431   4.470  15.587 -0.0167  0.1341  0.1762
 2663W        W21517   9.073   7.362   2.400  0.1319  0.1632  0.1108
 2664W        W21518  13.644   2.996   3.108  0.0556 -0.0714  0.1328
 2665W        W21519   6.983   3.741  14.319 -0.0910 -0.0143  0.0152
 2666W        W21520  11.138   2.078   2.975  0.1223 -0.0210  0.1590
 2667W        W21521   3.729   7.279   0.050 -0.0323  0.2227 -0.1180
 2668W        W21522  16.422  11.139  15.993 -0.0401  0.0983 -0.0970
 2669W        W21523  15.664   0.453   0.798  0.1105 -0.3411 -0.1687
 2670W        W21524   7.316  16.324  16.722 -0.0747 -0.3643  0.2213
 2671W        W21525   5.241   1.634   3.949 -0.0734 -0.0080 -0.0175
 2672W        W21526   6.835  15.953  12.121  0.0099  0.0764 -0.0033
 2673W        W21527  15.647  14.030  14.667  0.1357 -0.2263 -0.0249
 2674W        W21528   4.244   0.085  15.420  0.2951 -0.1272  0.2546
 2675W        W21529  12.316   3.465   1.645 -0.0420 -0.0127  0.0892
 2676W        W21530  12.749  14.408  15.136  0.0920  0.1296  0.1069
 2677W        W21531   1.091  16.367   2.289 -0.0026  0.1573 -0.2585
 2678W        W21532   1.191   1.063  17.383 -0.0540  0.3392  0.0736
 2679W        W21533  16.180  16.930   4.763 -0.0599 -0.0124  0.0902
 2680W        W21534  14.370   7.777  15.327 -0.3428  0.0857  0.1641
 2681W        W21535   3.410  15.889   2.470 -0.2781 -0.0786  0.0035
 2682W        W21536  10.913  14.147   1.972 -0.2236 -0.3218  0.0576
 2683W        W21537  13.346   0.652  12.856  0.0350  0.2617  0.1349
 2684W        W21538  10.912   4.778  13.166  0.1372 -0.0305 -0.1550
 2685W        W21539  17.310  17.396  13.263  0.0661  0.1894 -0.1266
 2686W        W21540   1.177   7.842  15.001  0.1491 -0.0342  0.2810
 2687W        W21541   6.157  14.743   1.074 -0.2025 -0.3396 -0.0285
 2688W        W21542   7.987   9.509  17.399 -0.0192  0.4150  0.0216
 2689W        W21543  17.180   2.151   3.037 -0.0041 -0.0745 -0.0876
 2690W        W21544   4.479  10.609   4.687 -0.0012 -0.0082 -0.0876
 2691W        W21545   8.921   4.734   3.802 -0.2125  0.2734 -0.0071
 2692W        W21546   9.948  14.829  13.358  0.1241  0.0347 -0.1608
 2693W        W21547  14.735  15.914   0.760  0.1334 -0.3392  0.0533
 2694W        W21548   2.763   1.480  14.656  0.2319 -0.0154  0.1961
 2695W        W21549   7.270  11.577   3.358 -0.0695 -0.0072  0.0675
 2696W        W21550  13.741   7.511   0.236  0.3257  0.0011 -0.0394
 2697W        W21551  15.746   3.657   3.217  0.2201  0.2221 -0.1687
 2698W        W21552   4.540  11.122   3.172  0.1137  0.0297 -0.3133
 2699W        W21553  16.999   7.750   5.035  0.0081  0.2936 -0.0502
 2700W        W21554  11.899  16.877  14.471  0.0771  0.2404 -0.2052
 2701W        W21555   0.607  17.228  17.342  0.1293 -0.1541 -0.1470
 2702W        W21556  16.513   3.841  14.574 -0.0139  0.1627  0.1002
 2703W        W21557  15.979   3.535   4.541  0.1354 -0.0754  0.0199
 2704W        W21558   1.761  12.119  15.561  0.0701 -0.1584  0.1142
 2705W        W21559  13.386  10.231  17.171 -0.0178  0.0741  0.1502
 2706W        W21560   9.089   2.956  16.570 -0.1379  0.0426  0.1177
 2707W        W21561  10.515   7.427   1.889  0.1400 -0.1054 -0.1550
 2708W        W21562   7.731   6.761  16.609 -0.1106 -0.0326  0.2629
 2709W        W21563  17.193   0.605   0.116 -0.1131  0.1722 -0.0709
 2710W        W21564   6.862   0.192  13.560  0.3303  0.1883 -0.0514
 2711W        W21565  10.044  11.831   1.236  0.0955 -0.0616  0.2131
 2712W        W21566  17.042   9.464  13.151  0.0783 -0.1107  0.1402
 2713W        W21567   7.266   4.875   3.211 -0.0124 -0.1532  0.0918
 2714W        W21568   3.767   2.696  17.201 -0.1426  0.1487 -0.1970
 2715W        W21569   5.072  11.886  16.878  0.0857  0.3591  0.0977
 2716W        W21570  10.835   2.771  17.167  0.4609 -0.0766  0.2601
 2717W        W21571   5.207  10.134  14.225 -0.0040  0.1143 -0.0063
 2718W        W21572  17.219  14.054  17.365  0.1430 -0.1746 -0.0268
 2719W        W21573  12.455  15.543   0.092 -0.1423 -0.0855 -0.0650
 2720W        W21574  17.029  11.191  13.693 -0.0332  0.0561  0.2022
 2721W        W21575  13.296   4.206   1.956 -0.1846  0.0447  0.1410
 2722W        W21576   2.035   2.838  15.140  0.1019 -0.0777 -0.0987
 2723W        W21577  16.465   5.473   1.185  0.1488  0.2613 -0.0828
 2724W        W21578  12.304  16.808   4.791 -0.0467 -0.0433  0.0116
 2725W        W21579   6.445   7.966  17.413 -0.3025  0.2730  0.0143
 2726W        W21580   3.489  16.260  14.488 -0.0868 -0.2355 -0.1805
 2727W        W21581   8.551   7.353  15.036 -0.0008  0.2010 -0.0668
 2728W        W21582  11.205  14.673   3.211 -0.2656 -0.1978  0.0685
 2729W        W21583   3.395   1.995  15.736  0.3756 -0.0518 -0.1689
 2730W        W21584   4.006   5.281  16.486  0.4011  0.0467  0.1655
 2731W        W21585  17.345  10.871   4.570 -0.1368 -0.2344 -0.3778
 2732W        W21586   9.224   4.105  16.930  0.2171  0.1546  0.0663
 2733W        W21587  17.178   8.417   0.900 -0.1357 -0.1878 -0.1193
 2734W        W21588   4.701   2.473   0.220 -0.0295 -0.2858 -0.2559
 2735W        W21589  15.209   5.824  16.879 -0.0447  0.1294 -0.3369
 2736W        W21590   7.441  12.949   5.288 -0.0499 -0.0329 -0.0012
 2737W        W21591   2.376  16.792  13.316  0.1680  0.0138 -0.0807
 2738W        W21592  14.395  15.110  12.109 -0.0064  0.0714  0.0952
 2739W        W21593  16.106   3.637  14.333  0.4395  0.0179 -0.3092
 2740W        W21594   8.406  11.339   4.162  0.2493  0.1776 -0.1404
 2741W        W21595   3.501  11.818  16.136 -0.0927  0.2179  0.0150
 2742W        W21596  12.398   0.769   3.283 -0.2975  0.0871 -0.3292
 2743W        W21597   8.445  15.849   2.218  0.1266  0.3484 -0.0132
 2744W        W21598   9.403   5.638  14.510 -0.2440  0.1828 -0.1525
 2745W        W21599  14.231   9.909  14.790  0.0597  0.0267 -0.0647
 2746W        W21600  14.993  10.665   4.472  0.1603 -0.2292  0.0853
 2747W        W21601  16.111   9.716  14.230 -0.2463 -0.2809  0.3538
 2748W        W21602   1.948   1.854  15.213  0.4437  0.3460  0.1868
 2749W        W21603  13.941  14.148   4.688  0.0749  0.0764 -0.0944
 2750W        W21604   5.541   1.499   3.568 -0.2078 -0.1776 -0.1427
 2751W        W21605   6.101  11.279  15.858  0.1400 -0.2180 -0.0951
 2752W        W21606   9.691   9.440  16.089  0.1607  0.0239  0.0620
 2753W        W21607   5.996   5.192   1.586 -0.1621  0.2222  0.0741
 2754W        W21608  15.775  13.308   5.056  0.0853  0.1847  0.0486
 2755W        W21609   5.125   5.946  14.191  0.0534  0.1065 -0.0873
 2756W        W21610   5.532   2.745  12.459  0.1764  0.1138 -0.1004
 2757W        W21611  10.717  15.674   3.277  0.0480 -0.1378  0.0316
 2758W        W21612   3.202   0.384  15.832 -0.0480 -0.1377  0.1653
 2759W        W21613   3.425   7.103  13.848 -0.0696  0.0589 -0.2320
 2760W        W21614  15.883  10.072  13.426 -0.1328 -0.3410  0.3876
 2761W        W21615   9.793   2.785   0.554  0.0036  0.2268 -0.0334
 2762W        W21616   0.758  11.009  17.419 -0.1266  0.1508  0.4558
 2763W        W21617   4.605  11.376   1.947 -0.0128 -0.1927 -0.0005
 2764W        W21618  12.028   3.314  13.298 -0.4784 -0.3052  0.2844
 2765W        W21619  15.921   5.629  16.480  0.2801  0.0627 -0.0945
 2766W        W21620  13.558  13.883  17.310 -0.0372 -0.1310 -0.0812
 2767W        W21621   8.038   4.082   3.659 -0.2805 -0.0294  0.0492
 2768W        W21622  14.863   6.200   1.069  0.1609 -0.2723  0.1127
 2769W        W21623   3.206   3.847  15.658  0.3811  0.3006  0.2520
 2770W        W21624  15.248  11.387  15.198 -0.1701 -0.0171  0.2551
 2771W        W21625   2.446  11.644   3.880  0.2148 -0.1042  0.2127
 2772W        W21626  11.314   4.312   1.190 -0.1894  0.3336  0.0985
 2773W        W21627   3.954   2.779  12.302 -0.0850 -0.1542  0.0057
 2774W        W21628   9.745  13.240  12.565  0.0695  0.1033  0.1740
 2775W        W21629  16.410  13.576  13.101  0.0201 -0.1545 -0.1416
 2776W        W21630   3.142   6.205   4.647  0.0430 -0.1073  0.3804
 2777W        W21631   3.861   5.688  12.759  0.0530 -0.0626  0.3732
 2778W        W21632  11.748   5.824   0.055  0.0231  0.0274  0.2791
 2779W        W21633   7.424   9.451  14.274  0.3634 -0.2218 -0.2045
 2780W        W21634   0.146   0.469   2.190  0.0004 -0.1078  0.0819
 2781W        W21635   1.840   2.921   4.037 -0.1132  0.0162  0.1563
 2782W        W21636   7.505   1.339  15.992 -0.1005 -0.0142 -0.1128
 2783W        W21637   8.491   5.019   5.439 -0.0436  0.0013 -0.1184
 2784W        W21638   4.915  13.395  17.286  0.1796  0.1346 -0.1533
 2785W        W21639   0.791   3.731   3.280  0.1195 -0.1594  0.2448
 2786W        W21640  15.556  16.900   4.090 -0.2911 -0.0327  0.1271
 2787W        W21641   5.239   9.173  15.284 -0.2282  0.0432  0.2866
 2788W        W21642   1.624  15.376  12.294  0.1009  0.0497 -0.0697
 2789W        W21643   0.773   8.186  12.367 -0.0627  0.0509 -0.2105
 2790W        W21644  14.767   4.848  13.441  0.0406 -0.1424  0.1622
 2791W        W21645   3.240  14.894  16.561  0.0592 -0.2832  0.1033
 2792W        W21646  14.540  10.548  16.804  0.0220  0.1104  0.0681
 2793W        W21647   0.936  13.583   3.210  0.2149  0.2314 -0.0923
 2794W        W21648   8.090   4.579  16.506  0.0803 -0.2810 -0.1093
 2795W        W21649  12.910   2.105  15.854  0.1143 -0.0498 -0.2175
 2796W        W21650   0.907   4.476   2.712 -0.1923 -0.3665 -0.1736
 2797W        W21651   6.066   2.641  14.097  0.1362 -0.0636 -0.0173
 2798W        W21652   3.055  16.271   4.307  0.0677 -0.0497 -0.1351
 2799W        W21653   2.329   5.804   1.349 -0.1178  0.0228  0.0927
 2800W        W21654   6.890  12.136   4.072  0.1046 -0.0009 -0.0684
 2801W        W21655  10.387  12.668  14.848  0.2475  0.0979 -0.1945
 2802W        W21656  10.162  10.955   3.076 -0.0264 -0.0225 -0.1025
 2803W        W21657   0.043  12.996   2.223 -0.0861 -0.2419 -0.0011
 2804W        W21658   2.052   2.089   2.708  0.1567  0.2532 -0.0678
 2805W        W21659   7.919   1.742  16.048 -0.0310 -0.1200 -0.3677
 2806W        W21660  16.781  16.845   0.985  0.0520 -0.2049 -0.0676
 2807W        W21661   6.841   1.033   3.130  0.0431 -0.0656  0.1494
 2808W        W21662   7.083   3.475  16.183 -0.3659  0.2251  0.2479
 2809W        W21663   1.662   8.467  15.154 -0.3341  0.3183  0.2297
 2810W        W21664   0.762   6.071   1.409 -0.1417  0.0146 -0.1066
 2811W        W21665   8.090  14.898   3.126 -0.2511 -0.1344 -0.0616
 2812W        W21666  17.069   1.026   0.341  0.1602  0.2898  0.0016
 2813W        W21667  13.524   7.163  16.827  0.1253 -0.0306  0.0446
 2814W        W21668   3.977   2.739  14.028  0.0038 -0.3611 -0.0946
 2815W        W21669  11.318  15.149   3.000  0.0606 -0.1103 -0.0655
 2816W        W21670  12.108  10.371  14.384  0.0920 -0.0459 -0.0092
 2817W        W21671  11.215   8.424  14.212 -0.1384  0.0831 -0.0569
 2818W        W21672   3.268  10.763  16.582 -0.0945 -0.4594  0.2976
 2819W        W21673   3.216  10.671   4.920 -0.2753 -0.1943  0.2432
 2820W        W21674  14.322  11.600   0.552  0.2960  0.2511  0.3329
 2821W        W21675  14.546   5.392  16.921  0.3143 -0.1554 -0.0959
 2822W        W21676   8.569   8.870  12.908 -0.0870 -0.1193 -0.4531
 2823W        W21677   7.940  13.001  17.376  0.0493  0.2998 -0.0706
 2824W        W21678  10.788   9.908   3.524 -0.4160 -0.0580 -0.0842
 2825W        W21679   7.025   6.053   0.566  0.1936  0.2763 -0.2289
 2826W        W21680   7.469  11.310  13.277 -0.0142 -0.2493  0.0035
 2827W        W21681   6.633  14.095  15.567  0.2183 -0.0262 -0.0885
 2828W        W21682  14.205  16.528   3.152 -0.0155  0.1330  0.0323
 2829W        W21683   3.755   8.386   4.946 -0.1886 -0.1650  0.1901
 2830W        W21684  11.240  16.355   0.380  0.2134 -0.0211  0.2458
 2831W        W21685  12.962   3.287  16.667 -0.1359 -0.1179  0.3147
 2832W        W21686  10.927   4.872   5.574  0.1420  0.4023 -0.1270
 2833W        W21687  16.408  12.044  14.668 -0.3120  0.1822 -0.0907
 2834W        W21688   6.909   2.900   3.331 -0.1941  0.0462 -0.0726
 2835W        W21689   5.512   0.482   2.661  0.0088 -0.2774 -0.2298
 2836W        W21690   8.467  16.655   1.423 -0.0746  0.0753  0.1192
 2837W        W21691   2.652   5.394  15.406 -0.1372 -0.2254 -0.1434
 2838W        W21692   1.746   7.550  13.789 -0.2755  0.0413  0.2163
 2839W        W21693   1.122  15.343  13.661  0.0458  0.1455  0.2824
 2840W        W21694   5.740   3.813   2.907  0.0803 -0.2326 -0.0813
 2841W        W21695   9.164   2.844  14.396  0.1477 -0.1561 -0.3699
 2842W        W21696   5.532   1.724  12.324 -0.0010  0.0724  0.0162
 2843W        W21697   9.776   5.068  16.678  0.1867 -0.0095 -0.0871
 2844W        W21698   8.859   2.721  16.927  0.1374 -0.3014 -0.0177
 2845W        W21699   5.874   6.834   4.713 -0.0700 -0.1761  0.0011
 2846W        W21700   0.460  16.750   5.249 -0.0108  0.0068 -0.1368
 2847W        W21701  16.830   6.996  15.151 -0.1740  0.0679 -0.1555
 2848W        W21702   8.331   9.296  13.998  0.3628  0.0880  0.0440
 2849W        W21703   6.913  12.057  13.569 -0.0021  0.3357  0.0944
 2850W        W21704  16.837  13.687   5.410 -0.2322  0.3690 -0.0440
 2851W        W21705  15.845   6.060  12.213 -0.1558 -0.0176 -0.1463
 2852W        W21706  15.962  13.380  12.369 -0.1087 -0.2633 -0.1292
 2853W        W21707   2.898  14.651  15.398  0.2730 -0.1492 -0.0926
 2854W        W21708   3.422   3.945   1.210  0.2460  0.2392  0.4520
 2855W        W21709   0.401   9.383  16.859 -0.2300 -0.1049  0.2150
 2856W        W21710  12.250  12.695   1.830  0.0006 -0.0276 -0.2444
 2857W        W21711   4.947  12.893   0.935  0.0945 -0.0394 -0.0506
 2858W        W21712   6.178  16.224   0.120  0.0184  0.0734 -0.1723
 2859W        W21713   8.936   0.675   3.525  0.1491  0.0026 -0.1350
 2860W        W21714  14.936  15.698   5.023 -0.0025  0.0531 -0.2831
 2861W        W21715   3.104  14.362   3.889 -0.3897  0.1886 -0.0509
 2862W        W21716   4.706  14.218   4.672 -0.0478  0.1620  0.1028
 2863W        W21717  16.977  13.917  14.096 -0.1441  0.0318 -0.1041
 2864W        W21718   0.105  11.923  13.911 -0.1225  0.2000  0.1561
 2865W        W21719   3.955   1.491  13.573  0.0549  0.2070  0.2092
 2866W        W21720   8.167  11.555   4.557 -0.0514  0.2335 -0.0490
 2867W        W21721  13.323  13.966   1.739 -0.1014  0.0026 -0.0701
 2868W        W21722   0.870   8.721   4.783 -0.2040  0.0674 -0.0198
 2869W        W21723   3.800   5.690   2.299  0.0070  0.0921 -0.2201
 2870W        W21724  13.172  17.323  14.372  0.0900 -0.2391  0.0273
 2871W        W21725   0.132   8.102  14.885 -0.1885 -0.4410 -0.1421
 2872W        W21726  14.335  14.247  13.105 -0.1802 -0.2638  0.0615
 2873W        W21727  16.507  11.526  14.710  0.1982  0.0072 -0.1123
 2874W        W21728  12.202  15.018   4.342 -0.0783 -0.0614 -0.1217
 2875W        W21729  10.547   2.988  13.907 -0.1956  0.3122  0.3158
 2876W        W21730  10.635  11.829  16.581 -0.3437 -0.1135 -0.1680
 2877W        W21731   8.760  12.133   3.537 -0.0426  0.1025  0.1388
 2878W        W21732   4.079   0.402  15.047  0.2842 -0.1037 -0.0542
 2879W        W21733   1.604   8.575   5.442 -0.2549  0.0780 -0.1751
 2880W        W21734   0.070   1.107   2.037 -0.0528  0.0220 -0.1712
 2881W        W21735  11.246   0.445  13.645 -0.0488 -0.2230 -0.1530
 2882W        W21736  16.513  14.206  15.132 -0.1587  0.2794  0.1852
 2883W        W21737  15.207   6.923   0.679 -0.0550  0.2276  0.3998
 2884W        W21738   9.838   1.656  11.807  0.0561 -0.3810 -0.1141
 2885W        W21739  10.536   3.392  14.794 -0.1062 -0.0330 -0.2242
 2886W        W21740   8.977   2.699  12.302  0.0718 -0.1062 -0.1123
 2887W        W21741  17.343   8.276  14.115  0.1123 -0.0464  0.1379
 2888W        W21742   4.023   4.669  17.016  0.0976  0.0980 -0.1997
 2889W        W21743   8.918  12.780   2.211 -0.0855 -0.3423  0.0264
 2890W        W21744   7.957   8.415   4.577  0.1572  0.2399  0.1802
 2891W        W21745   9.271   9.174  15.928  0.1735 -0.0133 -0.0154
 2892W        W21746  15.803   4.131  15.174 -0.2715 -0.1844  0.3963
 2893W        W21747   7.504   4.048   4.490 -0.0170  0.1360  0.1268
 2894W        W21748  15.217   9.060  13.569 -0.0202 -0.2213 -0.1341
 2895W        W21749  11.206  11.291   1.847  0.3697  0.0835  0.1721
 2896W        W21750   6.363  10.239  13.475 -0.2889 -0.2495 -0.0173
 2897W        W21751   7.957  11.358  13.611  0.1915 -0.2071 -0.0805
 2898W        W21752  10.773   7.938   0.137  0.0031  0.1810  0.0997
 2899W        W21753  12.679   0.885   4.202 -0.1362 -0.2461  0.1016
 2900W        W21754  14.559  12.888  16.441  0.0042  0.1343  0.2433
 2901W        W21755   8.557  12.394   4.481 -0.1111  0.1039 -0.0747
 2902W        W21756   3.914   2.311  14.828  0.0762 -0.0757 -0.2258
 2903W        W21757  11.627   8.904   0.803 -0.1174  0.0138  0.1557
 2904W        W21758   6.914   4.066  13.062  0.1007 -0.2249  0.2700
 2905W        W21759   8.950  16.568   2.308 -0.2751 -0.2032 -0.4722
 2906W        W21760   0.761   2.326  14.316 -0.1057 -0.1149 -0.0271
 2907W        W21761   8.448  13.691  17.449  0.0502 -0.0404  0.1898
 2908W        W21762  10.047   8.011   3.794 -0.1969  0.2161  0.0791
 2909W        W21763   5.233   9.793   2.374  0.0215  0.0714 -0.1123
 2910W        W21764   7.531   6.021  15.538 -0.1200 -0.2427  0.2346
 2911W        W21765   0.056   6.072  14.743 -0.2143  0.5568  0.1745
 2912W        W21766   6.051   8.686   4.059  0.0688 -0.0245 -0.1650
 2913W        W21767  13.315  16.055  14.494  0.1213 -0.0342 -0.1267
 2914W        W21768  10.896  16.951   4.504 -0.0367 -0.0146 -0.0698
 2915W        W21769   8.744   7.097   4.673  0.0167 -0.3030 -0.1070
 2916W        W21770  13.815  11.566  14.764 -0.1540 -0.1363 -0.1180
 2917W        W21771   6.027   0.394  15.542  0.0586 -0.2834 -0.0025
 2918W        W21772  10.514   3.746   2.528  0.1690 -0.0100 -0.0493
 2919W        W21773  11.276   1.346   1.954  0.2785  0.2817  0.1629
 2920W        W21774  12.269   9.398  13.250  0.1889 -0.1483 -0.1222
 2921W        W21775  15.311   1.027   2.038  0.3504  0.0070  0.0238
 2922W        W21776   5.945  11.157   0.571 -0.3787  0.0087 -0.0358
 2923W        W21777  17.313   8.353   3.580  0.1994  0.3052 -0.0463
 2924W        W21778  12.562   6.447  12.741  0.2902  0.0455 -0.2006
 2925W        W21779   5.458  12.780   0.907  0.1478 -0.1546  0.2530
 2926W        W21780  12.298  11.838   3.584 -0.3052 -0.0801 -0.4463
 2927W        W21781  11.277  10.746  15.022  0.0586  0.0650  0.0749
 2928W        W21782   0.745   3.384   0.855  0.0930 -0.0686  0.0175
 2929W        W21783  13.889   7.896   3.028 -0.0462 -0.2638  0.0337
 2930W        W21784   2.261  13.479  13.263 -0.0650  0.0956 -0.2132
 2931W        W21785  13.357  14.881  17.271  0.3999 -0.3121  0.2219
 2932W        W21786   8.498   4.013   4.678  0.3245 -0.1263  0.2297
 2933W        W21787   1.764  10.758   2.053 -0.0848  0.3083 -0.0759
 2934W        W21788  17.266  16.389  17.024  0.0068 -0.0001 -0.0330
 2935W        W21789   0.683  13.130   3.276 -0.0405 -0.1341 -0.1031
 2936W        W21790   1.367  16.665   3.277  0.1727 -0.1806  0.1256
 2937W        W21791   7.593  14.028  17.050 -0.0046 -0.1723  0.2942
 2938W        W21792   6.482   9.864   3.672 -0.4886 -0.0889 -0.0709
 2939W        W21793  12.046  12.141  17.059  0.0840 -0.1293 -0.0117
 2940W        W21794  14.894   5.255   1.752 -0.1172  0.0241  0.2002
 2941W        W21795   5.764   7.384   0.520 -0.1423  0.0286 -0.1351
 2942W        W21796  17.002  10.606  13.742  0.1115  0.1206  0.1772
 2943W        W21797   1.730   7.964  15.095  0.1385 -0.1983  0.3698
 2944W        W21798   6.304  15.770  12.033 -0.0203 -0.0508  0.0370
 2945W        W21799  12.713  11.136   5.225  0.0978 -0.2351  0.0318
 2946W        W21800   4.642   6.127  14.242  0.1458 -0.4719 -0.1704
 2947W        W21801   8.340   6.000  12.336 -0.0529 -0.2104 -0.2326
 2948W        W21802  16.003   6.908  16.255 -0.1212 -0.4079  0.1932
 2949W        W21803  12.736  13.135   3.415  0.2915  0.0745  0.0491
 2950W        W21804   0.055  15.217   3.573  0.2704 -0.2463  0.2342
 2951W        W21805   3.481  13.773   5.062 -0.0559  0.0754 -0.0607
 2952W        W21806  11.014  11.732  13.587 -0.0913  0.0650  0.0819
 2953W        W21807   5.506   3.131  16.701  0.0829  0.1327 -0.1020
 2954W        W21808  16.150  13.377  16.769  0.2817  0.0241 -0.1838
 2955W        W21809   1.631  15.251   2.277  0.1168 -0.0533  0.1318
 2956W        W21810  16.692  12.191  16.843 -0.1436  0.0689  0.2427
 2957W        W21811   0.338   8.169   0.972  0.1899 -0.2876 -0.0634
 2958W        W21812   6.830  11.182  16.274  0.1141  0.3371 -0.1149
 2959W        W21813   0.542   3.467   0.251  0.0778  0.2782 -0.3631
 2960W        W21814  13.434   4.158  15.747 -0.0699  0.1858  0.1962
 2961W        W21815  14.003   7.392  16.698  0.0456  0.4027  0.0569
 2962W        W21816   1.281  12.916  16.526  0.0305 -0.2123 -0.1091
 2963W        W21817   3.513   9.611  13.902  0.1747 -0.0010 -0.0587
 2964W        W21818   4.001   4.963   3.847 -0.1777  0.0587 -0.0652
 2965W        W21819   5.611  16.482   1.020 -0.1348 -0.0516  0.0846
 2966W        W21820   2.389  17.173   3.653  0.0905  0.1017 -0.4350
 2967W        W21821  15.066  16.231  13.042  0.1213  0.0759  0.0605
 2968W        W21822   4.396  10.100  13.603  0.0707  0.0409  0.1703
 2969W        W21823  14.028   2.164  13.499  0.0694 -0.0027  0.0640
 2970W        W21824  15.440   7.874   2.328 -0.0252  0.1203  0.0360
 2971W        W21825   4.937  14.372   5.111  0.2462  0.0568 -0.2023
 2972W        W21826   2.053  15.107   4.717  0.2681 -0.1666 -0.0953
 2973W        W21827  15.152  13.811   5.113  0.0409  0.2654 -0.2719
 2974W        W21828   9.561   1.233  14.361 -0.0030 -0.2312  0.1294
 2975W        W21829   6.345  11.499   3.286 -0.0713  0.0499 -0.3397
 2976W        W21830   7.313   0.930  13.690  0.3340 -0.1418 -0.0152
 2977W        W21831   3.813   0.583  16.294  0.0339  0.1141  0.0010
 2978W        W21832   0.074   7.516   3.484  0.0775  0.0351  0.1479
 2979W        W21833   7.387  16.756  12.007 -0.1513  0.2959 -0.0572
 2980W        W21834  12.773  17.069  15.351  0.0485  0.1305  0.0795
 2981W        W21835   1.462   8.888   3.790 -0.1137 -0.2710  0.2968
 2982W        W21836   4.198   3.148  15.979  0.2166  0.1465  0.0486
 2983W        W21837  14.806   3.618   2.254  0.1210  0.1004  0.1382
 2984W        W21838   0.082   1.790  12.561  0.0535  0.1323 -0.1054
 2985W        W21839   2.549  14.471   4.751 -0.2936  0.1629  0.4309
 2986W        W21840   8.889   9.739  12.652 -0.0660 -0.0006 -0.2277
 2987W        W21841   0.134   1.059   5.214  0.0011 -0.0820 -0.1880
 2988W        W21842  14.080   2.386   2.667 -0.1347  0.1693 -0.2605
 2989W        W21843   9.603  13.537   2.505  0.0029  0.1948 -0.0349
 2990W        W21844  14.138   5.006  15.511 -0.0094 -0.1101 -0.0388
 2991W        W21845   2.961  14.646   2.256 -0.0869  0.0044 -0.0230
 2992W        W21846  13.085   4.807  12.290  0.0274 -0.3905  0.0972
 2993W        W21847  17.371  10.111  14.192 -0.4362  0.2299 -0.0754
 2994W        W21848  14.735  13.855  12.884  0.1333 -0.0375  0.1844
 2995W        W21849   5.583  12.721  14.033 -0.1755 -0.1442  0.1819
 2996W        W21850  14.189   2.955  16.659 -0.0333  0.3394  0.2925
 2997W        W21851   8.318   1.372  14.963 -0.0232 -0.1492  0.2285
 2998W        W21852   4.751  14.222   1.384  0.1857  0.2117  0.0662
 2999W        W21853   3.142  16.194   3.388 -0.1863 -0.1274 -0.1658
 3000W        W21854   5.664  15.453   0.533  0.1177 -0.3800  0.2265
 3001W        W21855  11.684  10.708   3.140  0.1002  0.0498  0.0429
 3002W        W21856  15.625   4.996  12.338 -0.0787  0.1312  0.4209
 3003W        W21857  15.652   6.796   0.265 -0.0708  0.1617 -0.1732
 3004W        W21858  11.025   4.740  15.270 -0.0452 -0.0240 -0.0706
 3005W        W21859   7.127   6.743   1.911 -0.0514 -0.3059 -0.0709
 3006W        W21860  16.373  13.691  13.579 -0.2261  0.1377 -0.0089
 3007W        W21861  14.659   2.409   0.780  0.0244 -0.2717  0.3987
 3008W        W21862  14.112   7.573  17.266  0.1159  0.1573  0.0753
 3009W        W21863   1.322  14.164  12.320  0.2922 -0.1615 -0.1850
 3010W        W21864   9.289  12.968   4.758  0.1000 -0.1988  0.2793
 3011W        W21865   2.842   0.696   1.073 -0.1723  0.0606  0.1771
 3012W        W21866  12.852   3.483  12.917 -0.1880  0.3033  0.0960
 3013W        W21867   2.690   4.927  12.336  0.0705  0.0586 -0.4668
 3014W        W21868   9.912   8.236   2.764 -0.1225  0.0365 -0.1015
 3015W        W21869   7.788  12.292   2.455 -0.0673  0.1360 -0.0927
 3016W        W21870  12.341  15.966   4.162  0.1574 -0.0376  0.0427
 3017W        W21871   4.583  16.997   2.962  0.1087  0.2942  0.2973
 3018W        W21872   8.225   7.479   0.362 -0.0930  0.4557  0.0724
 3019W        W21873  13.567  15.355  15.368 -0.1158 -0.0257 -0.0671
 3020W        W21874  17.117  12.351  15.226 -0.0907  0.1050  0.1212
 3021W        W21875  13.951   6.600   4.629 -0.1154  0.1303 -0.1928
 3022W        W21876   0.371   2.437   1.429 -0.1559  0.0760  0.0817
 3023W        W21877  10.845  11.783  15.643 -0.3086 -0.2715  0.0100
 3024W        W21878   2.935   7.783  14.832  0.1301  0.0474  0.1539
 3025W        W21879  17.287   3.885  13.231 -0.3065  0.3436 -0.0199
 3026W        W21880  12.936   4.115  15.893  0.0014  0.1078 -0.2544
 3027W        W21881   3.747   8.745  15.278 -0.0877  0.1915  0.1167
 3028W        W21882  14.943   0.975   2.836 -0.3045  0.0848  0.0109
 3029W        W21883   0.080   9.888  12.604 -0.3678  0.0770 -0.1888
 3030W        W21884   7.934  13.096   5.461 -0.3735  0.2724 -0.0976
 3031W        W21885   3.976  11.012  13.604  0.0159  0.1385 -0.1888
 3032W        W21886   8.347   9.276   3.590  0.1542 -0.0907  0.1035
 3033W        W21887   6.205  12.405   1.213 -0.1112  0.3548  0.2698
 3034W        W21888   1.074   3.096  14.554  0.1748  0.2860 -0.1693
 3035W        W21889   2.591  14.630   3.889 -0.0194 -0.1405  0.0740
 3036W        W21890  13.069  16.876   4.179 -0.1245  0.0939  0.0746
 3037W        W21891   7.130  13.185  13.755  0.2460 -0.0647 -0.2071
 3038W        W21892  10.607   1.564  13.668 -0.0778 -0.0467 -0.1153
 3039W        W21893   0.591   0.789   1.368 -0.0634 -0.1032  0.0374
 3040W        W21894  12.390  16.335   4.925 -0.3577  0.4051  0.0100
 3041W        W21895   8.445  12.779   4.766  0.1233  0.1644  0.0646
 3042W        W21896   6.121  15.893   3.096 -0.2279  0.1061  0.1732
 3043W        W21897  15.186  15.695   2.668  0.3027 -0.1293 -0.2150
 3044W        W21898  12.692   2.090   2.831 -0.3525  0.2872  0.1836
 3045W        W21899  11.074  16.665   3.218 -0.1730 -0.7126  0.1776
 3046W        W21900  14.393  10.845  15.927 -0.0354 -0.1589 -0.1248
 3047W        W21901  12.585   7.687   5.193  0.1915  0.1040  0.1373
 3048W        W21902   4.475   2.819  12.338  0.2794  0.0276  0.2156
 3049W        W21903   8.360  16.436   0.074 -0.1223  0.1301 -0.1952
 3050W        W21904  17.061   1.310  14.854 -0.1772  0.0485  0.1226
 3051W        W21905   0.702   5.886   2.540 -0.1295 -0.0824 -0.2722
 3052W        W21906   5.579   2.954   0.906  0.0445  0.1392 -0.0605
 3053W        W21907  12.343  13.904   4.492 -0.0568  0.1482  0.2217
 3054W        W21908   0.297  12.073   5.031  0.1024  0.1374  0.0690
 3055W        W21909  10.479  11.026  16.842 -0.3205  0.1999  0.0329
 3056W        W21910  11.310   0.408  13.124 -0.0532 -0.1926  0.2226
 3057W        W21911   0.404  16.816   1.252 -0.0180  0.0973  0.3799
 3058W        W21912  10.341  14.251  17.095  0.0711  0.2005  0.0480
 3059W        W21913  12.190  16.312   3.846  0.2166  0.1111  0.0665
 3060W        W21914   7.293   0.730   1.088  0.1932 -0.0446 -0.0402
 3061W        W21915   3.712   7.117  15.152  0.4020 -0.2725  0.0218
 3062W        W21916  16.177  11.984  13.034  0.1929 -0.0855 -0.3426
 3063W        W21917   5.377  11.291  16.885  0.0837  0.0296  0.0929
 3064W        W21918  16.519   2.428  14.570  0.0496  0.1572 -0.1751
 3065W        W21919   9.157   7.208   2.882 -0.0621  0.0757 -0.1075
 3066W        W21920   2.172  14.692  13.139  0.1559 -0.4342  0.1070
 3067W        W21921   1.579   2.796  16.509  0.1853  0.2382  0.0732
 3068W        W21922   2.267   0.101  17.288  0.0434  0.3089  0.0617
 3069W        W21923  11.412   9.776   4.206  0.0634  0.0449  0.0894
 3070W        W21924   6.611  16.738  14.098 -0.0765 -0.0175  0.0727
 3071W        W21925  16.791  17.063  14.028  0.0138  0.0232  0.1263
 3072W        W21926   0.251   8.261   5.297 -0.1839  0.1003 -0.3570
 3073W        W21927  15.491   6.603  14.639  0.1144 -0.0349 -0.1817
 3074W        W21928   7.313   0.158   2.155 -0.2211  0.1721 -0.0087
 3075W        W21929  14.250   4.367   4.064  0.2691 -0.0925 -0.1868
 3076W        W21930   6.161   2.734  14.589  0.1701 -0.3224  0.3366
 3077W        W21931   6.228  17.204   3.869 -0.1616  0.1484 -0.2791
 3078W        W21932   8.802  15.918   5.506 -0.0399  0.0692 -0.1086
 3079W        W21933   4.916   0.685   2.144 -0.1722  0.3123 -0.0422
 3080W        W21934   1.947  16.312  16.146  0.0514 -0.0260  0.2505
 3081W        W21935   7.921   9.972  12.113  0.0807  0.0378  0.2072
 3082W        W21936   3.296   2.639  16.389  0.1201 -0.0384  0.0691
 3083W        W21937  17.220  15.226   4.902  0.0520  0.2479  0.0337
 3084W        W21938   1.695  14.056  12.009  0.2933  0.1292 -0.0129
 3085W        W21939   8.073  11.766   1.071 -0.2540 -0.0213  0.1961
 3086W        W21940   4.068   0.427  13.225  0.1643  0.2461 -0.1071
 3087W        W21941   0.752  13.206   1.015 -0.1966  0.0723  0.3059
 3088W        W21942  17.125   8.405  14.841 -0.0299  0.0796 -0.1684
 3089W        W21943  16.744  12.966  13.614 -0.0264 -0.0517 -0.0061
 3090W        W21944   1.927   9.897  16.580 -0.1963  0.0345 -0.1023
 3091W        W21945  15.497   4.351  16.056  0.0615  0.0196 -0.1700
 3092W        W21946  16.075   4.662   4.430 -0.1474 -0.0795  0.2337
 3093W        W21947   4.052   1.421   5.141  0.2896  0.1103 -0.2373
 3094W        W21948   8.941   9.229  12.701 -0.1673  0.0325  0.1519
 3095W        W21949   2.752   6.511   2.668  0.0963 -0.2233 -0.3228
 3096W        W21950  13.093   7.442  15.119  0.3163  0.0820  0.0483
 3097W        W21951  13.131   7.168   4.149 -0.3840  0.0362 -0.0603
 3098W        W21952  15.076  11.049  17.298 -0.0243  0.2178  0.0496
 3099W        W21953  16.376   8.019   3.342  0.0006  0.1307 -0.1424
 3100W        W21954  17.320  12.178  12.623 -0.0310  0.3189  0.0179
 3101W        W21955   0.744  16.744  15.956  0.1144  0.0139 -0.0749
 3102W        W21956  10.841   5.648  12.053 -0.2141 -0.1560  0.2442
 3103W        W21957   0.994   8.044   2.196  0.3902  0.2340  0.5293
 3104W        W21958  12.823  10.159  13.905  0.2072  0.1108 -0.0267
 3105W        W21959  11.254  15.044  14.649  0.0723 -0.0788 -0.0691
 3106W        W21960  17.224   0.529   0.956  0.3103  0.0045 -0.1111
 3107W        W21961   6.601   0.923  13.705  0.1880  0.0779  0.0491
 3108W        W21962   8.994   5.518  16.640  0.1956  0.0070  0.0705
 3109W        W21963   5.552  13.165   5.324  0.1358 -0.0597  0.1780
 3110W        W21964   7.409   1.678  17.240 -0.0538  0.0616  0.0948
 3111W        W21965   5.296  13.451  15.130  0.1527 -0.0642 -0.1128
 3112W        W21966   6.516   8.243   0.660 -0.1044  0.1423 -0.0793
 3113W        W21967   8.433  12.894   1.139  0.0575  0.0907  0.1229
 3114W        W21968   4.249   2.839  13.544  0.5024  0.0404 -0.0638
 3115W        W21969   6.632  13.178  13.584 -0.1787  0.1125  0.0755
 3116W        W21970  10.462   1.777  17.163 -0.0083 -0.1330  0.0590
 3117W        W21971   1.127   8.368   4.377 -0.0285  0.3038  0.2956
 3118W        W21972   4.296  12.277  15.321 -0.1371  0.1115 -0.0437
 3119W        W21973   6.507   8.165   1.895 -0.1745  0.1016  0.3136
 3120W        W21974   9.460   9.984   2.240 -0.1782 -0.0299  0.4147
 3121W        W21975   6.574  16.902  16.791  0.3568  0.6072  0.0782
 3122W        W21976  17.144   8.082  12.582  0.1475 -0.1873  0.1526
 3123W        W21977  10.657   2.764   5.724  0.0166 -0.1525 -0.1371
 3124W        W21978   2.788   7.333  14.626  0.0758 -0.2540 -0.4204
 3125W        W21979   5.483   1.007  15.077  0.1641 -0.1251  0.2630
 3126W        W21980   4.751  15.464  16.104  0.3102  0.1141  0.0096
 3127W        W21981  13.806  14.454  13.014 -0.1779  0.0125 -0.2313
 3128W        W21982   4.373   9.402   0.347 -0.1867 -0.1435  0.0613
 3129W        W21983  15.295   2.788   1.345  0.2231 -0.0854  0.1398
 3130W        W21984   2.439   9.515  13.629 -0.1517  0.0815  0.1158
 3131W        W21985   3.801  11.256   2.502  0.0181  0.0127 -0.1142
 3132W        W21986   8.530   6.294   4.874  0.0087  0.0226 -0.1323
 3133W        W21987   0.327   5.811   2.169 -0.1674 -0.1745 -0.0171
 3134W        W21988   7.378  12.411   3.531 -0.1613 -0.1161 -0.2639
 3135W        W21989   2.362  14.267   5.176  0.1683 -0.1685 -0.0209
 3136W        W21990  14.743   1.657  17.279 -0.0075  0.0584 -0.1304
 3137W        W21991   8.031   2.583   4.052  0.1483 -0.3603 -0.1130
 3138W        W21992  13.103   1.543   3.580  0.2594 -0.0735 -0.0408
 3139W        W21993  11.114  16.413  14.729 -0.0743 -0.0002 -0.0069
 3140W        W21994   5.991   2.440   5.191 -0.2159 -0.1068  0.2887
 3141W        W21995   1.964  11.907   0.362 -0.1218 -0.0401 -0.0295
 3142W        W21996   8.565   7.303   3.909 -0.0834  0.1786  0.2575
 3143W        W21997   1.119   0.812   4.703  0.1024  0.0459  0.0771
 3144W        W21998  14.347   1.034   1.995  0.1704 -0.1854  0.1185
 3145W        W21999  12.389  16.533  15.768  0.2389  0.0190 -0.3586
 3146W        W22000  10.072  17.294  15.069  0.0544 -0.3056  0.0758
 3147W        W22001   4.193  16.236   3.738  0.1424 -0.1488 -0.1613
 3148W        W22002   2.179  12.909  17.256  0.0700  0.1460 -0.3812
 3149W        W22003   8.571   6.149  13.561 -0.0992 -0.1847  0.2208
 3150W        W22004   4.582   6.632  16.925  0.0826 -0.1354  0.0392
 3151W        W22005  10.794  11.362  14.591 -0.2448 -0.1369 -0.3075
 3152W        W22006   8.988   3.415   3.831  0.0946  0.2956  0.2749
 3153W        W22007   9.863   8.340  14.048 -0.0237 -0.0340  0.1553
 3154W        W22008  16.487  11.570  12.550 -0.2714  0.1646 -0.1589
 3155W        W22009   9.416  16.095  13.749  0.1804  0.0912  0.1795
 3156W        W22010   7.035   6.716  17.304 -0.2582  0.1755  0.0416
 3157W        W22011   7.181  13.917   2.058 -0.2224 -0.2223  0.1148
 3158W        W22012   7.625  14.885   0.928 -0.0473 -0.0082 -0.0786
 3159W        W22013   2.477   7.230  17.000 -0.0367  0.5057  0.3157
 3160W        W22014  11.206  10.895   2.273  0.0426 -0.1007  0.3905
 3161W        W22015   7.247   5.007  13.811  0.0374 -0.1858  0.0081
 3162W        W22016  16.411   5.391   3.761  0.0400 -0.0035  0.0330
 3163W        W22017  13.828   4.070  16.088 -0.0906 -0.0458 -0.1072
 3164W        W22018  15.436   7.053  14.321  0.0664 -0.0121 -0.2679
 3165W        W22019   4.530  12.600   0.794  0.0680  0.3734  0.3135
 3166W        W22020   9.975   5.215  12.642  0.1333 -0.2020 -0.1048
 3167W        W22021  16.452   0.254   1.265 -0.0751  0.2565  0.1504
 3168W        W22022  12.246  10.863   3.206 -0.1869  0.1094  0.2186
 3169W        W22023   5.070   0.206   4.716 -0.0659  0.1927  0.0036
 3170W        W22024   3.226  14.431   3.381  0.2341 -0.2729 -0.3134
 3171W        W22025   6.215  10.890   3.512 -0.0443  0.0688 -0.1955
 3172W        W22026   6.216   5.110  13.515  0.2397 -0.0653  0.1709
 3173W        W22027  14.719  13.314  17.291  0.1317  0.1388 -0.3432
 3174W        W22028   2.359  11.087   4.367  0.2352  0.3309  0.1083
 3175W        W22029   9.154   0.344  15.122  0.0883  0.2669  0.1285
 3176W        W22030   1.100   8.707   5.255  0.3386  0.0373 -0.0309
 3177W        W22031  13.409  10.248  14.771 -0.2083 -0.1826  0.0667
 3178W        W22032   2.500  14.954   2.952  0.0626  0.0286  0.2875
 3179W        W22033   6.797   6.135   2.219 -0.2175 -0.2043 -0.1324
 3180W        W22034  14.301   7.485   0.945  0.2623  0.0901 -0.3888
 3181W        W22035   3.274   5.475   0.726  0.1069  0.1160  0.0204
 3182W        W22036   4.300   9.366   3.082  0.1760 -0.1568  0.1986
 3183W        W22037   7.067   5.884  12.521 -0.0500  0.2437 -0.1326
 3184W        W22038   1.436  11.057  13.561  0.4226  0.1705 -0.0209
 3185W        W22039  13.877   5.960   0.956 -0.2898 -0.2762 -0.0335
 3186W        W22040  11.763   2.903   3.414 -0.0873 -0.0688  0.0118
 3187W        W22041  14.774   3.398   1.814  0.0753 -0.1824  0.0415
 3188W        W22042  10.869  16.610  12.408 -0.0219  0.0812 -0.0625
 3189W        W22043   5.872   8.437  15.479  0.0057  0.0268  0.2458
 3190W        W22044  10.817  11.170  17.219  0.0343 -0.0500 -0.0224
 3191W        W22045  16.316   2.625   1.447  0.1693  0.5233  0.0453
 3192W        W22046   3.075  12.366  16.792  0.0475  0.2040 -0.2533
 3193W        W22047   3.902  15.053   0.651 -0.0818  0.0735 -0.1005
 3194W        W22048   9.901   3.957   2.478  0.0726 -0.2341 -0.1223
 3195W        W22049   9.066  16.334  14.565  0.0322  0.0498 -0.0702
 3196W        W22050   2.294   3.838  15.231  0.1733 -0.1739  0.0176
 3197W        W22051   7.538   8.772   4.961 -0.1400 -0.2692  0.0667
 3198W        W22052   3.319   6.507  14.650 -0.3153 -0.2474  0.0279
 3199W        W22053  17.157  12.373   0.831 -0.1552 -0.2032 -0.1229
 3200W        W22054  14.960   8.668   0.337 -0.2875  0.1113  0.2864
 3201W        W22055   5.057   5.404   3.213 -0.3117  0.0008  0.1108
 3202W        W22056  16.140   9.078   3.220 -0.1959 -0.1367  0.1617
 3203W        W22057   3.616   6.710   2.341 -0.4260  0.0964  0.1166
 3204W        W22058   1.936   0.715   2.268  0.1165  0.2370 -0.0359
 3205W        W22059  15.295   8.997   0.139 -0.1262  0.0623 -0.2449
 3206W        W22060  12.965   0.796  12.445 -0.1895  0.1505  0.1531
 3207W        W22061   4.129   3.826  15.942 -0.2014  0.3117 -0.0176
 3208W        W22062  10.194  10.621  12.314 -0.1003  0.2689 -0.0907
 3209W        W22063   9.080   8.793   1.215 -0.1174 -0.1760  0.2402
 3210W        W22064   5.625   1.126   3.958 -0.0120  0.2081 -0.1490
 3211W        W22065  12.720   5.433   3.785 -0.0621  0.1291 -0.0652
 3212W        W22066   8.226   4.378  15.256 -0.0724  0.0363 -0.2541
 3213W        W22067  14.276   2.528   0.383  0.0033  0.3964  0.0650
 3214W        W22068  17.062   1.346   2.135 -0.1282 -0.0201  0.1960
 3215W        W22069  10.644   4.471  14.862 -0.2869 -0.0496 -0.0297
 3216W        W22070  13.417  10.826   3.362 -0.0201 -0.0676 -0.1431
 3217W        W22071  12.126   9.582  17.018 -0.0363  0.1368 -0.2556
 3218W        W22072  12.623  10.144   0.832  0.1268  0.2078  0.0147
 3219W        W22073   0.641  16.787  13.779  0.0756  0.0763 -0.0856
 3220W        W22074   4.587   5.711   2.984  0.0485 -0.2836 -0.3194
 3221W        W22075   1.384   9.705  13.740  0.0006 -0.1560  0.0129
 3222W        W22076   0.769  11.263   0.998  0.2289 -0.2560 -0.2891
 3223W        W22077   1.186  13.859   1.117  0.1088  0.1797 -0.1585
 3224W        W22078   3.295   6.197  15.128  0.1352 -0.2007 -0.1177
 3225W        W22079   7.578  11.243  14.344 -0.2054 -0.0717  0.2545
 3226W        W22080   0.994   9.021  14.846  0.0310 -0.1556 -0.0774
 3227W        W22081   2.742   0.451  16.000 -0.0162 -0.2199  0.0374
 3228W        W22082  12.667   5.578  13.965 -0.0814 -0.0386 -0.1162
 3229W        W22083   4.490   4.323   0.225  0.2738  0.0630  0.2084
 3230W        W22084  14.052  10.844   4.555  0.0745  0.3624 -0.2253
 3231W        W22085   1.658  11.720  15.805 -0.1154  0.0616 -0.1815
 3232W        W22086  15.534   8.569   1.935  0.0728 -0.0391 -0.0464
 3233W        W22087   8.505  10.755  14.530  0.2476 -0.1781  0.3677
 3234W        W22088   3.458   1.294   0.425  0.3662 -0.0656  0.0330
 3235W        W22089   1.127  11.516  12.939 -0.0018  0.2713  0.0940
 3236W        W22090   3.071   9.419   5.406 -0.0410 -0.1363  0.3611
 3237W        W22091  15.086  10.973   1.651 -0.2630  0.0436 -0.0283
 3238W        W22092  10.521  16.529  15.549 -0.1999 -0.0349 -0.0223
 3239W        W22093  11.769  10.064   3.177 -0.2282  0.2286 -0.1244
 3240W        W22094  13.428   0.262   1.342  0.1424  0.0270  0.0808
 3241W        W22095  14.160  16.435   1.513  0.0425  0.2047 -0.0276
 3242W        W22096   2.864   6.013   4.258 -0.1431 -0.2211 -0.2337
 3243W        W22097   7.302  14.162   5.139 -0.1898 -0.1590  0.1083
 3244W        W22098   0.596   7.495  16.009  0.2827 -0.1370 -0.0076
 3245W        W22099  13.683  16.297  15.218 -0.1279  0.2913  0.0939
 3246W        W22100  12.501   2.932  11.855  0.0779  0.1090  0.1268
 3247W        W22101  14.009   9.433   1.000  0.0904  0.0381  0.2454
 3248W        W22102   0.696   7.757  13.145 -0.2891  0.1314  0.0328
 3249W        W22103   2.729   1.667   1.188  0.1228 -0.2771 -0.0606
 3250W        W22104   8.765   3.839  12.452 -0.2114 -0.1271 -0.0151
 3251W        W22105   7.325  11.116  12.349 -0.2563 -0.0500 -0.1827
 3252W        W22106  12.249  16.381  17.195 -0.1059 -0.1020 -0.0552
 3253W        W22107   0.096   4.120   0.622 -0.0438  0.2255  0.3146
 3254W        W22108   2.650  12.159  13.961 -0.1757  0.2286  0.1150
 3255W        W22109   7.842   3.332  14.320  0.0753  0.1349  0.0811
 3256W        W22110   5.013   2.767  12.216  0.0798 -0.0713  0.1658
 3257W        W22111  14.411   0.780   0.485  0.2111  0.1699 -0.1891
 3258W        W22112   6.344  15.961   2.632  0.0889 -0.0306  0.1678
 3259W        W22113  11.693   9.352   4.528  0.3751  0.0744 -0.0384
 3260W        W22114  11.517  13.973  13.785  0.2220 -0.0626  0.0699
 3261W        W22115  16.575  16.449   1.879  0.2681  0.3099  0.0019
 3262W        W22116   3.420   2.363   0.230  0.2175 -0.0743  0.2030
 3263W        W22117  10.418   9.654   3.287  0.1356 -0.1796 -0.4129
 3264W        W22118  15.726  16.572  16.237 -0.0356  0.0166  0.2486
 3265W        W22119   5.919   5.254   2.932  0.0016 -0.1611 -0.2595
 3266W        W22120  12.875   7.839   2.801 -0.1709 -0.0561  0.0279
 3267W        W22121  10.752   2.686   2.368 -0.3331 -0.3245  0.1858
 3268W        W22122  15.568  12.816  16.022 -0.4271  0.1953  0.1344
 3269W        W22123   4.989   4.721  16.895  0.4215  0.1228  0.4981
 3270W        W22124  15.490  12.935   0.003 -0.0641  0.0284 -0.4362
 3271W        W22125  15.763   2.755   3.278 -0.0260 -0.1929  0.3612
 3272W        W22126   5.807   7.296   4.952  0.0207 -0.2961  0.2533
 3273W        W22127  13.626   1.235   0.090  0.1630 -0.2168  0.1639
 3274W        W22128   1.328  15.997  16.759 -0.0108  0.1237 -0.0708
 3275W        W22129  15.063   3.315  16.555  0.1169  0.0706 -0.1556
 3276W        W22130  16.320   4.838  16.945 -0.0114  0.0362  0.0147
 3277W        W22131  10.849   7.434   2.799  0.0639  0.0131 -0.0676
 3278W        W22132   5.839   3.134  13.977 -0.0721  0.2310 -0.0666
 3279W        W22133   8.709   7.877  12.721 -0.0598 -0.1803 -0.2189
 3280W        W22134   4.697  11.240   0.625 -0.2154  0.0104 -0.0747
 3281W        W22135  15.851   3.809   1.278 -0.1098  0.2318 -0.2238
 3282W        W22136  14.249   7.387   0.492  0.1341 -0.1143  0.0030
 3283W        W22137   0.443   2.263   4.964  0.3348  0.1124 -0.2461
 3284W        W22138  14.699  13.571   5.308 -0.2055  0.2021  0.1500
 3285W        W22139  12.602   7.651   2.416 -0.3289  0.0019 -0.0420
 3286W        W22140   7.627   1.903   4.661  0.1883  0.0985 -0.0138
 3287W        W22141   1.869   2.073   0.200  0.0038 -0.0774  0.1284
 3288W        W22142  12.670   2.698  12.630 -0.0365  0.0186 -0.1854
 3289W        W22143  17.324  15.601  15.733  0.0889  0.2973  0.0364
 3290W        W22144  11.387   4.512   3.564  0.0537 -0.1655  0.0557
 3291W        W22145   8.254   8.225  14.981  0.5435  0.0563  0.1787
 3292W        W22146   9.493   8.768  15.476 -0.0034 -0.0084  0.1049
 3293W        W22147  11.228  11.341  13.140  0.2115  0.1903  0.2060
 3294W        W22148  12.394   1.041   3.787 -0.0560  0.1372  0.0296
 3295W        W22149   6.830   0.614   3.974 -0.2784 -0.2367 -0.1450
 3296W        W22150  16.479   3.295   3.627 -0.3095  0.0283 -0.1211
 3297W        W22151   0.841  10.522  15.680 -0.0966 -0.6772  0.0379
 3298W        W22152   6.069  17.075   4.533 -0.0158 -0.1712 -0.1289
 3299W        W22153   1.683  13.877  16.044  0.1899  0.0289 -0.0027
 3300W        W22154  16.422  16.377   0.601 -0.1026 -0.1214 -0.1799
 3301W        W22155  13.581   6.199   1.645  0.1045  0.3182  0.0928
 3302W        W22156  13.755  17.244   0.095  0.0112 -0.2958 -0.1318
 3303W        W22157   9.959  13.385  16.682  0.0779  0.0755 -0.2787
 3304W        W22158   9.859  12.746   3.585 -0.0583 -0.1238  0.3838
 3305W        W22159  16.156  15.419  13.547 -0.3133 -0.0180  0.1739
 3306W        W22160   1.259  10.433  12.677 -0.0861  0.2428 -0.0921
 3307W        W22161   9.380   1.224  12.580 -0.0261  0.1127 -0.1417
 3308W        W22162  16.937  16.288  15.177 -0.1548  0.2886 -0.3797
 3309W        W22163  12.377   7.290  14.159  0.1812  0.3733  0.0629
 3310W        W22164   3.800  13.446  12.548 -0.2228  0.0410  0.3390
 3311W        W22165   2.964  13.299  16.359  0.1140  0.1832  0.0393
 3312W        W22166   6.469   7.892   2.765 -0.0466 -0.2055 -0.0109
 3313W        W22167   5.219  11.182   4.280 -0.0845 -0.0757 -0.2299
 3314W        W22168  17.396   2.046  14.892  0.0384 -0.0342 -0.0382
 3315W        W22169  14.216   1.917  15.624  0.3482 -0.1515  0.1714
 3316W        W22170   0.208  16.702  17.185 -0.1620  0.0484 -0.2887
 3317W        W22171   7.795   2.319   3.216 -0.2473 -0.0150  0.1033
 3318W        W22172  11.673   6.781  14.754 -0.2790 -0.1282 -0.1130
 3319W        W22173   0.430  11.344  12.486 -0.3468 -0.2474  0.1557
 3320W        W22174   6.689  15.543  14.328 -0.1305 -0.1867  0.3888
 3321W        W22175   4.915  10.972   0.091  0.0012  0.1129  0.0611
 3322W        W22176   1.698  16.509   4.195  0.2057  0.2018  0.0390
 3323W        W22177   0.876   5.301  17.393 -0.1915 -0.0718  0.1078
 3324W        W22178  13.072   4.157   5.105  0.0466  0.3605 -0.0740
 3325W        W22179   0.618  13.082  14.084 -0.0254 -0.0781 -0.2995
 3326W        W22180  14.613   3.131  12.669  0.0150 -0.1323 -0.1463
 3327W        W22181   5.651  17.309  14.200 -0.2964 -0.3368 -0.0459
 3328W        W22182   9.070   9.173   2.013 -0.0383 -0.1324 -0.0341
 3329W        W22183  11.069  15.976   5.283  0.1577 -0.0405  0.3338
 3330W        W22184  13.045   9.609   0.104 -0.0115 -0.1261  0.1612
 3331W        W22185  11.355  16.410  15.928  0.0228 -0.0411 -0.1347
 3332W        W22186  10.262   7.490  14.781 -0.1973  0.0443 -0.0069
 3333W        W22187   9.905   0.211  11.372 -0.0909 -0.1111 -0.2176
 3334W        W22188  16.080  10.756  15.932 -0.1133  0.0892  0.2159
 3335W        W22189   4.518   8.447  13.631  0.1619 -0.1205 -0.0079
 3336W        W22190   2.327  14.868   3.475  0.0443 -0.0278  0.0388
 3337W        W22191  16.212  12.393  14.270  0.0525 -0.0162  0.2388
 3338W        W22192  17.295   2.098  13.879 -0.0404 -0.2462 -0.0131
 3339W        W22193   3.987  16.432  16.909 -0.3118  0.2662 -0.1410
 3340W        W22194   5.934   7.861  14.730  0.2754 -0.0343 -0.1319
 3341W        W22195   8.682  15.816  17.105 -0.0924  0.1167  0.1977
 3342W        W22196   2.910  12.113  15.859  0.3747  0.1127 -0.2934
 3343W        W22197  10.149   6.670   1.787  0.1416  0.2374 -0.1530
 3344W        W22198   5.086   7.921  14.013  0.0628  0.0550  0.0169
 3345W        W22199   0.025   5.648   3.566  0.2390  0.1738 -0.4113
 3346W        W22200  11.632   6.945  12.411 -0.1134 -0.2666 -0.0039
 3347W        W22201   6.256   9.361   3.776  0.0049  0.0615 -0.2075
 3348W        W22202   6.307   3.726  12.168 -0.2858 -0.3536  0.0389
 3349W        W22203  10.572  17.149  14.906 -0.1356  0.1669  0.4767
 3350W        W22204   9.599   7.936  13.211  0.1392 -0.2467 -0.4700
 3351W        W22205   1.494  15.588   5.427  0.2127 -0.1279  0.0462
 3352W        W22206  17.012   8.185  15.361  0.2152  0.0927 -0.1273
 3353W        W22207   8.770   4.473   4.736 -0.0536 -0.0856  0.1274
 3354W        W22208  15.805   9.327  12.939  0.1227 -0.1685  0.0337
 3355W        W22209   7.833   0.040  15.607 -0.1094 -0.1718 -0.0138
 3356W        W22210  10.782  10.342   0.440 -0.1621 -0.1111 -0.1667
 3357W        W22211   8.274   2.771   4.581  0.0096  0.0768  0.1620
 3358W        W22212  14.078   3.731  13.868  0.1939 -0.1886 -0.2477
 3359W        W22213   9.297   5.702   3.088  0.0548  0.0432 -0.2077
 3360W        W22214   9.505   1.357  16.903  0.2195  0.4224 -0.0629
 3361W        W22215  11.356   9.817   2.809 -0.0141  0.1465 -0.2919
 3362W        W22216  15.173  17.290   4.161 -0.0161  0.0117 -0.3492
 3363W        W22217  13.514   8.208  16.838 -0.0128  0.3087 -0.3323
 3364W        W22218   5.394   1.554   2.043  0.1810  0.0455 -0.2614
 3365W        W22219  11.566   1.793   2.023 -0.0106 -0.5428 -0.0291
 3366W        W22220  11.435  15.338  16.231  0.2918 -0.2596  0.2093
 3367W        W22221  12.489  15.132  16.521 -0.0692  0.1724 -0.1669
 3368W        W22222   4.630   0.822  14.585  0.1588 -0.0740  0.2695
 3369W        W22223   7.524  14.717  14.165  0.0181  0.1327  0.1374
 3370W        W22224   2.221  13.069   4.365  0.1676 -0.2027  0.2810
 3371W        W22225   0.509   0.226   4.854  0.0150  0.1797 -0.1245
 3372W        W22226   4.805  10.802  16.096 -0.1529 -0.1283  0.1336
 3373W        W22227   1.540  14.334   2.059 -0.1248  0.0289  0.1545
 3374W        W22228  17.370   4.291   3.249  0.4618  0.0756 -0.0922
 3375W        W22229  12.383  12.580   2.954  0.1606  0.0218 -0.2546
 3376W        W22230   8.574   5.503   2.246 -0.0053  0.1332  0.1693
 3377W        W22231   6.414  17.218   0.639 -0.0449 -0.2584  0.2241
 3378W        W22232   7.919  15.607   2.412 -0.2431 -0.1683  0.1582
 3379W        W22233  15.468   1.521   2.121  0.0141 -0.0558 -0.0301
 3380W        W22234  10.335  14.044   0.232 -0.0911 -0.0526  0.0189
 3381W        W22235   2.669   8.299  15.634  0.3197  0.0952 -0.1808
 3382W        W22236   5.333  12.851  13.229  0.1988  0.0246  0.0229
 3383W        W22237   0.580   6.818  12.557 -0.0051 -0.2392 -0.0010
 3384W        W22238   3.271  15.697   0.580  0.0708 -0.1164 -0.0318
 3385W        W22239  10.544   4.764   5.130  0.1721  0.1232 -0.2625
 3386W        W22240  13.112   5.074   2.384 -0.0315  0.1659 -0.3104
 3387W        W22241  16.037   7.783  14.187 -0.0587  0.3453  0.0078
 3388W        W22242   3.987   1.927  12.835  0.0505 -0.2249 -0.1196
 3389W        W22243   9.416  11.279  15.474  0.2096  0.0879  0.0693
 3390W        W22244   4.302   0.889   3.369 -0.2885  0.1043 -0.1113
 3391W        W22245   7.192  12.255   4.771 -0.2184  0.1226  0.0420
 3392W        W22246   6.309   3.524   3.247 -0.2729  0.1428  0.0109
 3393W        W22247   8.526   3.544  15.312 -0.0654 -0.0432 -0.2132
 3394W        W22248  12.767   4.632  16.696 -0.0115 -0.1213 -0.1004
 3395W        W22249  12.086   9.841   5.078 -0.2881 -0.0908  0.0134
 3396W        W22250   7.735  14.765  12.329  0.1482  0.0030  0.1476
 3397W        W22251  15.811   1.768   4.873  0.1890  0.1306  0.0941
 3398W        W22252  10.652   8.432   4.657  0.2741  0.1970 -0.2582
 3399W        W22253   8.734   9.316  13.669 -0.1659 -0.2383  0.1744
 3400W        W22254  15.212  14.403  15.309 -0.3591  0.0018 -0.0425
 3401W        W22255  13.915   9.717   2.501  0.0352  0.1180  0.2326
 3402W        W22256  11.095  14.363   0.007  0.1186  0.1511 -0.0955
 3403W        W22257  16.561   0.096  13.939  0.1459  0.3347  0.1070
 3404W        W22258   9.947  10.810   0.203 -0.0611 -0.1282 -0.1114
 3405W        W22259   3.197  13.160   5.244 -0.2023  0.0352  0.0137
 3406W        W22260   1.726  15.080   0.218 -0.0333 -0.1823 -0.1844
 3407W        W22261  14.023  12.076   4.960  0.0481 -0.2143  0.1040
 3408W        W22262   9.849  11.973   3.841  0.2378 -0.1296 -0.0094
 3409W        W22263   7.826   1.697   2.319  0.0302 -0.1992  0.1192
 3410W        W22264  14.695   3.506   3.182 -0.1221  0.2485 -0.0013
 3411W        W22265  15.698   3.666   0.547 -0.2383  0.2471 -0.0348
 3412W        W22266  13.106   5.702   0.214  0.0087  0.2238  0.0758
 3413W        W22267   1.846   7.812   3.241  0.2027  0.1388  0.3436
 3414W        W22268   4.734   2.880   0.597  0.0954 -0.2956 -0.0451
 3415W        W22269   4.219  16.441   0.456 -0.4129  0.0732  0.1120
 3416W        W22270  12.349   3.692  15.205 -0.1820  0.0729 -0.0564
 3417W        W22271   6.970   7.381   4.900  0.1252 -0.2441  0.3744
 3418W        W22272  14.910  16.564  17.097  0.0608  0.0960 -0.1547
 3419W        W22273   6.488   2.983  12.263  0.0042 -0.1601  0.2713
 3420W        W22274  14.816   8.156   2.060 -0.2029  0.1746  0.0071
 3421W        W22275   1.447   9.027   2.772 -0.3767 -0.0708 -0.0113
 3422W        W22276  10.033  10.485  16.338 -0.1591  0.1090  0.2802
 3423W        W22277  14.914   2.258  14.876  0.0001  0.0545  0.0268
 3424W        W22278   5.188   1.650  14.964 -0.1708  0.0374  0.2393
 3425W        W22279   5.959   2.037  12.469  0.0426 -0.2832  0.2170
 3426W        W22280   5.266  10.916  15.357 -0.4572  0.0314  0.0760
 3427W        W22281  11.661   6.066  13.687  0.0147 -0.2123 -0.3351
 3428W        W22282   3.050   9.477  14.209 -0.0055  0.5425 -0.2431
 3429W        W22283   8.065   3.709   4.045 -0.0263 -0.2278 -0.0400
 3430W        W22284   9.206   0.393  17.041  0.0143  0.2103  0.3225
 3431W        W22285  16.193  11.851   5.208  0.0771  0.3776 -0.0176
 3432W        W22286  12.465   0.673  12.366  0.1794  0.2075  0.1978
 3433W        W22287  10.088   0.002  12.971  0.0811  0.1657  0.1756
 3434W        W22288   9.543   8.737   3.984 -0.2135 -0.0304 -0.1860
 3435W        W22289  13.092  13.084   4.027 -0.0824 -0.0550 -0.2928
 3436W        W22290   7.598  13.704   0.380  0.0556 -0.0419  0.1311
 3437W        W22291   2.947   7.063   1.459  0.0295 -0.0519  0.0061
 3438W        W22292   0.954   1.253  12.437  0.3332  0.2934 -0.1174
 3439W        W22293  16.463   1.421  16.079 -0.1063  0.1138  0.0307
 3440W        W22294   3.863   0.875   2.047  0.3040 -0.1523  0.0082
 3441W        W22295  10.270   2.055   3.272  0.0228 -0.1507 -0.1379
 3442W        W22296   3.536   6.882  15.698 -0.0588 -0.1346  0.3447
 3443W        W22297   0.934   6.417   4.820  0.0671  0.3439  0.1486
 3444W        W22298  12.085   6.186   0.092 -0.0090 -0.1744 -0.2580
 3445W        W22299   2.203   2.239   3.188  0.2566 -0.0842  0.0634
 3446W        W22300   5.490   2.258   2.874 -0.2788 -0.3259 -0.2634
 3447W        W22301   4.782   9.089   0.118  0.0411  0.0427  0.4011
 3448W        W22302  10.570  12.185  14.841 -0.1402 -0.2001 -0.2662
 3449W        W22303  15.498   8.801  15.078  0.2830  0.0823 -0.2386
 3450W        W22304   6.110   6.317   3.219 -0.1168  0.0343 -0.0719
 3451W        W22305   3.712   4.304   1.295 -0.1796 -0.1094 -0.0843
 3452W        W22306   9.196  14.961   2.534  0.0546  0.1717 -0.1344
 3453W        W22307  11.941   2.469  14.736  0.0554  0.1121  0.2090
 3454W        W22308   3.767   1.738   1.734  0.2760  0.1380 -0.0258
 3455W        W22309   3.795   5.754   4.148 -0.3114 -0.1308  0.0670
 3456W        W22310  11.490  12.660  15.847  0.0203  0.0625 -0.2995
 3457W        W22311   3.543   6.803   0.533  0.0071  0.2163 -0.0451
 3458W        W22312  15.025  10.539   1.328 -0.2480 -0.2915  0.1943
 3459W        W22313  11.366   1.712  13.223 -0.1666  0.2211 -0.0397
 3460W        W22314   3.493   0.506   1.753 -0.0683  0.1667  0.4084
 3461W        W22315   5.098   7.809   4.316 -0.3339  0.2762 -0.2938
 3462W        W22316  11.671   3.250   5.642 -0.2299 -0.0467 -0.0706
 3463W        W22317   7.557   7.499  16.645 -0.1395 -0.3704 -0.1319
 3464W        W22318   8.804   0.297   2.286  0.1503  0.2214 -0.0306
 3465W        W22319  10.419   8.329   3.632 -0.0886  0.0625 -0.0915
 3466W        W22320   5.211   6.467  13.936 -0.0481  0.2640  0.0590
 3467W        W22321  14.982   7.956   3.957  0.0060 -0.0578  0.4149
 3468W        W22322  15.886  16.344   3.510 -0.2335 -0.2642  0.1621
 3469W        W22323   5.463   0.259  12.962  0.0244 -0.2672 -0.3453
 3470W        W22324  11.147   0.528  15.887 -0.2231 -0.3120  0.1109
 3471W        W22325  14.854   5.107  14.440 -0.3234  0.0815  0.0954
 3472W        W22326   0.624  14.840   0.892 -0.3720 -0.0186  0.1068
 3473W        W22327  16.820   6.111   5.710  0.0800 -0.0815  0.2790
 3474W        W22328   7.626   4.865  16.335  0.0266  0.0213  0.3501
 3475W        W22329   4.175   2.646  11.920 -0.0320  0.0113  0.2104
 3476W        W22330  13.874   4.462  12.326 -0.1273  0.1054 -0.0423
 3477W        W22331   3.578   7.840   2.903  0.2737  0.1725 -0.1845
 3478W        W22332   2.132   7.043   4.252  0.1946  0.1813 -0.0462
 3479W        W22333   7.032   7.183  14.679 -0.0758  0.2252  0.3473
 3480W        W22334  14.128  11.030  14.677  0.1425  0.1354 -0.1282
 3481W        W22335   4.520   7.310   1.778 -0.0802  0.0694  0.1106
 3482W        W22336   1.299   8.818  15.230 -0.1241 -0.0977  0.0744
 3483W        W22337  14.469   6.536   1.197  0.0259 -0.3800  0.2819
 3484W        W22338   1.427  16.443   1.416 -0.2449 -0.0117 -0.1038
 3485W        W22339  12.886   9.762   4.110  0.2414 -0.0758  0.0679
 3486W        W22340   3.689  13.186  14.492 -0.0960 -0.1092 -0.1923
 3487W        W22341   5.425  14.945   1.346 -0.3462 -0.0584 -0.0330
 3488W        W22342  15.164   7.560  16.109 -0.1225 -0.0966  0.2199
 3489W        W22343   4.203   5.637  17.264  0.2763 -0.0231  0.2142
 3490W        W22344   1.986  11.293   4.684  0.1921  0.1544  0.2804
 3491W        W22345   2.285   3.080   2.823  0.0513 -0.0103 -0.0503
 3492W        W22346   4.391  13.448   2.844  0.0916 -0.5122  0.1502
 3493W        W22347  10.874   7.326   2.243 -0.0939  0.2677  0.0183
 3494W        W22348   0.629   2.236  14.918 -0.0360 -0.1818  0.0525
 3495W        W22349   9.477  15.742  16.799 -0.2316 -0.0638  0.0946
 3496W        W22350  13.175   3.036   4.071 -0.0728 -0.1195  0.1521
 3497W        W22351  15.870   2.965   0.062 -0.0409  0.3216 -0.0328
 3498W        W22352   1.488   7.262   3.838  0.0570 -0.2137  0.1662
 3499W        W22353  11.924  16.647   0.610  0.2987 -0.1510 -0.1420
 3500W        W22354  16.076   9.163  15.380 -0.2177  0.0654  0.1103
 3501W        W22355  10.690   1.714   1.495  0.0661 -0.1556 -0.2762
 3502W        W22356   2.448  13.551   0.659  0.2717 -0.1480  0.0753
 3503W        W22357  11.184  12.660   2.165 -0.0995 -0.1141 -0.1021
 3504W        W22358   9.474   8.985  13.504 -0.4948 -0.0210 -0.2241
 3505W        W22359   2.985   9.842  15.200 -0.0203  0.0527 -0.0788
 3506W        W22360  11.050   7.111  15.877  0.3309  0.0031  0.1460
 3507W        W22361  12.872  10.686  15.876 -0.1375 -0.0049 -0.0393
 3508W        W22362   9.790   4.943   2.125 -0.1899 -0.2750  0.0787
 3509W        W22363  14.633  14.369  17.417 -0.0183 -0.1764 -0.0841
 3510W        W22364   8.854  16.775  16.331  0.1218 -0.0229 -0.1511
 3511W        W22365  16.354   3.756   5.202  0.0837 -0.1582  0.2508
 3512W        W22366  17.224   2.649  16.438  0.1998 -0.0996  0.2154
 3513W        W22367   5.810  10.068  16.131 -0.2382 -0.2475  0.0358
 3514W        W22368   1.865   2.429   5.169 -0.2517 -0.0095 -0.1303
 3515W        W22369  12.593  10.129   2.541 -0.3834 -0.0656 -0.0656
 3516W        W22370  13.762  15.319  17.345 -0.1671  0.0334  0.0831
 3517W        W22371   8.241   6.034   1.981  0.0539 -0.0672 -0.0911
 3518W        W22372  10.186  16.443   1.228  0.1927 -0.0427 -0.2374
 3519W        W22373  12.152   2.313  13.447  0.0969 -0.2277 -0.1371
 3520W        W22374  12.413  12.660   4.178 -0.0884 -0.0722 -0.1406
 3521W        W22375   9.084   6.294   0.913  0.0851  0.0210  0.3492
 3522W        W22376  15.325  12.331  16.714 -0.0516  0.0270  0.0332
 3523W        W22377   0.893  14.268  12.534  0.0848 -0.3414  0.0963
 3524W        W22378  12.147  10.824   1.389 -0.1864  0.0607  0.1517
 3525W        W22379  11.826  14.253   2.637 -0.3471  0.1292 -0.1256
 3526W        W22380   6.985   0.244  12.151  0.2906  0.2540 -0.0972
 3527W        W22381  12.998   1.288  14.036 -0.2350  0.1312 -0.1916
 3528W        W22382   2.326   7.754  14.545 -0.1677 -0.0879  0.0559
 3529W        W22383   2.623   4.866   3.356  0.1270 -0.0268  0.0879
 3530W        W22384   3.156  11.768   2.017  0.0108 -0.1638  0.0529
 3531W        W22385  17.240   8.274  13.277 -0.0895 -0.3306 -0.1286
 3532W        W22386  16.552   7.766  14.196  0.0077 -0.2831 -0.1052
 3533W        W22387   1.188   2.117   1.418  0.2890 -0.2421  0.2350
 3534W        W22388  14.363  11.591  14.842 -0.5940 -0.0547 -0.1209
 3535W        W22389   8.691   2.147   5.226  0.1665  0.3016 -0.2475
 3536W        W22390   5.420   6.490   0.314 -0.0672  0.0025  0.1436
 3537W        W22391   0.884  13.934  14.356 -0.1513  0.0149 -0.2235
 3538W        W22392   7.704   7.416   0.388 -0.2354 -0.1025  0.6580
 3539W        W22393   3.557  14.258  15.863  0.1078  0.1242 -0.0586
 3540W        W22394  12.210   0.850   0.019 -0.3258 -0.1343 -0.0474
 3541W        W22395   3.827   6.211   2.536 -0.0377 -0.0961 -0.5048
 3542W        W22396   4.989   4.414   2.701  0.2936 -0.1106  0.0875
 3543W        W22397  11.253  15.548   3.332  0.0582  0.1749  0.0039
 3544W        W22398   8.551   6.915  14.769  0.1836  0.1897 -0.1268
 3545W        W22399   2.255   0.165  15.752  0.1561  0.1706 -0.1669
 3546W        W22400   7.385   3.129   4.424  0.1807 -0.0733  0.0436
 3547W        W22401  11.918   2.718   4.834 -0.2072  0.2019 -0.0469
 3548W        W22402  14.725  10.541  15.681  0.0369 -0.2162 -0.1193
 3549W        W22403   7.111   7.109   4.426  0.1533 -0.0155  0.0979
 3550W        W22404   5.035  11.707  13.111 -0.3149 -0.1815 -0.2374
 3551W        W22405   6.858   0.485  15.861 -0.0237  0.0517 -0.4795
 3552W        W22406   8.071  13.908   0.312 -0.0943 -0.1590  0.1545
 3553W        W22407   9.765  11.996   2.462 -0.0195  0.1893 -0.0361
 3554W        W22408   7.949   5.555   4.320  0.0877  0.2920 -0.0036
 3555W        W22409   7.847  15.670  16.110 -0.2842 -0.0570 -0.1079
 3556W        W22410  14.393   5.298  16.458  0.0455  0.2019 -0.1498
 3557W        W22411   3.204  13.079  14.486  0.0461  0.2453  0.1496
 3558W        W22412   0.112  13.368   2.580 -0.2054  0.2615  0.0982
 3559W        W22413   3.547   0.812  17.049  0.3574  0.1100 -0.0681
 3560W        W22414  11.688   0.210  15.026 -0.2545  0.4016 -0.1166
 3561W        W22415  12.744  17.249   2.620  0.1238 -0.0432 -0.0946
 3562W        W22416   3.690   9.550   1.679  0.3433  0.0581  0.0548
 3563W        W22417  11.806  17.390   4.289  0.1304 -0.2960  0.1046
 3564W        W22418  14.695  17.348   0.679  0.2270  0.0937  0.0453
 3565W        W22419  15.080   9.499   1.935  0.1237 -0.1367 -0.0288
 3566W        W22420   7.983   4.632   0.361 -0.3732 -0.2117 -0.1584
 3567W        W22421   3.062   1.083   2.975 -0.1118  0.1099  0.1107
 3568W        W22422   6.066  16.980  14.116 -0.0259 -0.1239 -0.0232
 3569W        W22423   0.803   6.822  16.743 -0.0786  0.1333  0.0152
 3570W        W22424  16.368   3.786  12.667 -0.2229 -0.0642  0.1642
 3571W        W22425   7.550   1.290  12.287  0.0300 -0.1119 -0.1232
 3572W        W22426   9.882  10.877   4.681  0.0361  0.0282  0.1014
 3573W        W22427  15.027   8.738   1.309 -0.3982  0.0232  0.2331
 3574W        W22428   7.472  10.453   2.591 -0.0918 -0.0902 -0.0992
 3575W        W22429   1.047   9.441   0.787  0.0688 -0.1270  0.1825
 3576W        W22430   5.887   8.550  13.080  0.1822 -0.0207  0.1587
 3577W        W22431   1.358   4.424  16.096 -0.0905 -0.3937 -0.1338
 3578W        W22432   2.878   9.215   0.607 -0.1378 -0.0931  0.0553
 3579W        W22433  16.013  16.541  12.902 -0.0662 -0.2002  0.0622
 3580W        W22434   1.659   7.510  17.481 -0.2382  0.0122 -0.2629
 3581W        W22435   6.309   1.877   0.069 -0.0928 -0.0194 -0.2904
 3582W        W22436  16.958  12.813   3.252  0.0351  0.0965  0.0534
 3583W        W22437   5.507  10.421   3.142  0.0756 -0.1526  0.1361
 3584W        W22438   3.119   4.761   4.661  0.2107 -0.0018 -0.1648
 3585W        W22439   1.630  13.109   2.296  0.1051 -0.3357 -0.2665
 3586W        W22440   8.099  15.300   4.035 -0.2261 -0.0294 -0.1374
 3587W        W22441   6.415  10.551   1.262 -0.1165 -0.0691 -0.0796
 3588W        W22442   6.700   9.612   2.489 -0.0605  0.1544  0.0107
 3589W        W22443  14.702   2.591   0.071  0.0318 -0.1861  0.1943
 3590W        W22444   6.707   3.969  12.043 -0.0940 -0.0746 -0.0061
 3591W        W22445  11.301   2.553   1.048 -0.2823  0.2789 -0.2503
 3592W        W22446  15.476  15.187  16.100 -0.1605  0.2360  0.0449
 3593W        W22447  14.194   2.845   3.795  0.1173  0.0220 -0.2080
 3594W        W22448  15.748  15.584   4.957  0.1277  0.1206 -0.4986
 3595W        W22449   5.785  15.605   3.395  0.0086 -0.0842 -0.0658
 3596W        W22450   1.371   0.354   4.853  0.0491 -0.0970 -0.0669
 3597W        W22451  14.375   3.989   0.214 -0.1675  0.0479 -0.1882
 3598W        W22452   2.270  11.092   2.537  0.0074 -0.0693  0.0760
 3599W        W22453  12.852   7.064  16.183  0.3434  0.0156  0.1629
 3600W        W22454  10.077   7.090   2.109  0.1278 -0.2823 -0.0680
 3601W        W22455   5.311   2.444  16.155 -0.2510  0.1460 -0.3266
 3602W        W22456   0.103  14.915  15.064 -0.0398  0.0732 -0.0035
 3603W        W22457   2.685   1.639  13.539  0.0428 -0.0209 -0.2025
 3604W        W22458  11.219   8.951   2.670 -0.2436 -0.0843 -0.0422
 3605W        W22459  17.171  10.316   5.264 -0.2841 -0.1134  0.2160
 3606W        W22460   7.723   3.676   4.725  0.1076  0.3032 -0.0368
 3607W        W22461  13.652   8.624  12.986 -0.1569  0.0251  0.3212
 3608W        W22462  17.177  10.313  17.090 -0.0687  0.1539  0.0164
 3609W        W22463   3.970  10.171  17.264  0.0559 -0.2610  0.0632
 3610W        W22464  11.133   2.694   5.935 -0.1240  0.2827 -0.0973
 3611W        W22465  15.575   1.313  16.138  0.1902  0.2691 -0.0911
 3612W        W22466  13.396  13.578  16.127  0.1507 -0.0103 -0.0309
 3613W        W22467   1.789   3.908   2.592  0.0826  0.0412  0.2175
 3614W        W22468  16.780  15.993   3.223  0.4437  0.2358  0.3396
 3615W        W22469   1.643  14.693   0.487  0.1368  0.1276 -0.1201
 3616W        W22470  11.472  10.256   0.853 -0.0501  0.0404 -0.4071
 3617W        W22471   3.687   1.081  13.588 -0.2687 -0.0229  0.2188
 3618W        W22472   1.656   4.164   3.085  0.2044  0.1989 -0.0267
 3619W        W22473   2.841   3.794  17.089 -0.1309 -0.2707  0.0818
 3620W        W22474   3.043  15.099   6.384  0.2368  0.1899  0.2586
 3621W        W22475   4.738  10.197   4.311 -0.1899  0.1335 -0.2111
 3622W        W22476   9.432   4.811  15.511  0.0007 -0.1399  0.0338
 3623W        W22477  10.081   0.335  15.483 -0.1548 -0.1113 -0.0634
 3624W        W22478   4.635  13.169   4.603  0.0817  0.2043  0.0839
 3625W        W22479  14.204  15.908   1.542 -0.2185 -0.0713  0.0658
 3626W        W22480   3.426   4.058  14.086 -0.2868 -0.1506  0.2914
 3627W        W22481  13.117   2.498   3.839  0.3372  0.0870 -0.1199
 3628W        W22482   3.213  10.008   2.793  0.1071  0.1452 -0.1099
 3629W        W22483   2.256  17.222  16.180  0.1315  0.2948 -0.3357
 3630W        W22484  16.485  17.291   3.633 -0.0077  0.0124 -0.0864
 3631W        W22485  14.334  11.344   4.531 -0.3277 -0.3074  0.0542
 3632W        W22486  12.588   9.251   4.088 -0.0905  0.0552 -0.0409
 3633W        W22487  13.240  10.114  16.496  0.3567 -0.3048 -0.1599
 3634W        W22488   8.177  16.553   0.868  0.0289 -0.0167  0.1748
 3635W        W22489  15.558   3.598  16.577 -0.0726 -0.0799  0.2099
 3636W        W22490  13.250  12.490   4.060 -0.4472 -0.2389 -0.2024
 3637W        W22491   3.784   4.849  16.630  0.0232 -0.2345 -0.0266
 3638W        W22492   1.293  14.239  16.195  0.1013 -0.0813 -0.1086
 3639W        W22493   5.263  12.427  15.488 -0.0070 -0.2460  0.2223
 3640W        W22494   8.435  10.389   4.987  0.2904 -0.0897 -0.1447
 3641W        W22495   5.719   8.540  12.582 -0.0475  0.1580 -0.0369
 3642W        W22496  12.825  11.754  14.281 -0.3556 -0.2128  0.1333
 3643W        W22497   6.831   2.279   0.191 -0.5830 -0.1108 -0.0039
 3644W        W22498   5.620   6.474  16.247 -0.2451  0.2404 -0.0446
 3645W        W22499   5.351   4.355  17.283 -0.3169  0.1423  0.0943
 3646W        W22500  11.367  16.785  16.980 -0.0029  0.0176 -0.2285
 3647W        W22501   9.235   9.018   4.876  0.0876  0.0231  0.0508
 3648W        W22502   0.441  16.260   0.645 -0.1860  0.0109 -0.0430
 3649W        W22503   9.348   3.112   2.347 -0.1045  0.2755 -0.1449
 3650W        W22504   7.610   9.271  15.246  0.3172 -0.0194 -0.2223
 3651W        W22505   6.221  10.476  14.988 -0.0676 -0.0381 -0.3076
 3652W        W22506  13.900   0.803   4.780  0.1607 -0.2527  0.0510
 3653W        W22507   6.148   4.824   2.660 -0.2273  0.2437  0.1134
 3654W        W22508  13.101  16.540  17.418 -0.0439 -0.0728  0.2013
 3655W        W22509  14.426   7.758   2.644 -0.1288  0.4349  0.0561
 3656W        W22510  13.347   9.684  13.252 -0.0355  0.0884 -0.2418
 3657W        W22511  15.503  16.607   0.066  0.1976  0.0292  0.0794
 3658W        W22512   8.566   4.525   1.137 -0.0041 -0.1480  0.1363
 3659W        W22513  11.603  14.391   0.027  0.1095  0.2329 -0.1287
 3660W        W22514   2.486  16.766   3.405  0.0576 -0.2434  0.1741
 3661W        W22515  12.302   4.498   4.517  0.1778 -0.0404 -0.0048
 3662W        W22516   0.302   4.783  13.532  0.1120 -0.0972 -0.2645
 3663W        W22517  10.221  16.666   5.073 -0.1279 -0.0253 -0.0348
 3664W        W22518   1.978  14.826   3.121 -0.1515  0.0434 -0.1873
 3665W        W22519  14.504   9.398   0.781  0.0747 -0.0494  0.2978
 3666W        W22520   5.523   3.435  17.141 -0.3270 -0.1707  0.2715
 3667W        W22521  16.543   9.594  12.912 -0.1035  0.2499 -0.0431
 3668W        W22522  12.340  16.935   2.081  0.1039 -0.0247 -0.1174
 3669W        W22523   6.099   8.421   3.537 -0.1863 -0.0694 -0.0782
 3670W        W22524  16.742   1.877  12.102 -0.1273  0.3321 -0.2265
 3671W        W22525   5.318  16.864   2.346 -0.0852  0.1500  0.1357
 3672W        W22526   0.361  17.343  14.074  0.3082  0.3579  0.4136
 3673W        W22527  17.192   5.838  15.101 -0.1783 -0.1173 -0.1650
 3674W        W22528   3.419  13.721   1.652 -0.0090  0.1934  0.1803
 3675W        W22529  16.072   1.508   2.392 -0.1648 -0.2204 -0.1701
 3676W        W22530  15.538  14.538  14.356 -0.0380 -0.0028  0.0150
 3677W        W22531   8.317  10.396   2.285  0.1645  0.1167 -0.1936
 3678W        W22532  10.348  10.517   0.712  0.1357  0.0589  0.1260
 3679W        W22533   5.448  13.750   2.011 -0.2791  0.0729  0.0817
 3680W        W22534  16.397  13.127  15.853 -0.0374  0.0035  0.0800
 3681W        W22535  12.632  13.776   4.879  0.0475  0.1424  0.0702
 3682W        W22536   9.236   6.647   0.554 -0.2021  0.0674 -0.1500
 3683W        W22537   7.167  10.054  17.432 -0.0677  0.0442 -0.0815
 3684W        W22538  11.926  11.692   0.356  0.0573 -0.1049  0.0023
 3685W        W22539  15.057  15.731   0.503 -0.0825 -0.1728  0.0512
 3686W        W22540   1.308   1.216   4.456 -0.0136  0.0554 -0.2214
 3687W        W22541  15.265  10.398   0.008  0.1375  0.2451 -0.3147
 3688W        W22542   2.449   0.572   2.177  0.2658  0.0361 -0.0373
 3689W        W22543  13.710   2.489  14.383  0.0109  0.1260 -0.2960
 3690W        W22544  13.426   8.560  15.475 -0.0977  0.0451 -0.0771
 3691W        W22545   8.284  14.884  16.235  0.0289  0.1064  0.1819
 3692W        W22546  11.875  15.825  15.507 -0.2205 -0.1517 -0.3653
 3693W        W22547   3.023   0.418   0.348  0.0524 -0.0786  0.2040
 3694W        W22548  14.616   1.018   4.430 -0.3211  0.0022  0.0114
 3695W        W22549   0.099   7.083  13.776 -0.0459 -0.1437 -0.2933
 3696W        W22550   1.464   5.303  16.787  0.2723 -0.0988  0.2013
 3697W        W22551  12.252  15.920   2.692 -0.2220  0.2477 -0.4331
 3698W        W22552  15.930  13.748   0.812 -0.0699  0.3093  0.1126
 3699W        W22553   0.477   9.607  17.326 -0.1551 -0.0000  0.2547
 3700W        W22554   4.106  15.450  12.671  0.0525  0.1219 -0.1194
 3701W        W22555  17.038   6.557   4.975 -0.0385 -0.0216 -0.0534
 3702W        W22556   4.537   1.304   3.457  0.3363  0.1902  0.3363
 3703W        W22557   6.781  11.103  14.729 -0.2981  0.0327  0.3946
 3704W        W22558   4.041   7.837   3.210 -0.0925 -0.2709 -0.0538
 3705W        W22559   9.298   9.214   1.567 -0.0570 -0.0633 -0.0583
 3706W        W22560   2.945  13.638   5.299 -0.0584 -0.1033  0.0495
 3707W        W22561  15.516   2.750  15.381  0.0135  0.1013  0.1921
 3708W        W22562   0.295   4.372  13.813  0.0353  0.0276 -0.1788
 3709W        W22563   4.801  12.223  15.497  0.2429  0.1348  0.0136
 3710W        W22564  15.180   8.094  16.400  0.3993 -0.1562 -0.1111
 3711W        W22565  10.997   3.035  12.315  0.1683 -0.0647  0.0006
 3712W        W22566   8.902   7.759   2.078 -0.1710  0.2035 -0.1382
 3713W        W22567  13.670   7.130  12.809 -0.1058 -0.0480  0.0584
 3714W        W22568  11.665   7.194   4.942 -0.1231 -0.0980 -0.4082
 3715W        W22569   1.067   3.304   4.016  0.2054  0.0532  0.2186
 3716W        W22570   9.566   0.565  15.439  0.1233  0.0262 -0.4668
 3717W        W22571  16.371   4.211   3.562  0.2104  0.4980  0.2316
 3718W        W22572   2.791  12.207   0.249  0.2822  0.1775 -0.0944
 3719W        W22573  16.521  14.577   1.002  0.1454 -0.0480  0.2773
 3720W        W22574  11.912   1.590  17.140 -0.0073  0.4205  0.0023
 3721W        W22575  12.438  17.288  17.425 -0.0272  0.0015  0.1214
 3722W        W22576   0.846  12.642  14.069  0.4059  0.1107 -0.1766
 3723W        W22577   0.058   3.779  12.676  0.0206 -0.0644  0.0990
 3724W        W22578   3.371  13.952  15.431  0.0996 -0.3209  0.0405
 3725W        W22579   1.754   7.084  14.098 -0.0415 -0.0135  0.1985
 3726W        W22580  15.112   7.673   0.900 -0.1005  0.1040 -0.0096
 3727W        W22581  13.121   4.214  13.603 -0.0693 -0.1494 -0.1328
 3728W        W22582   7.687   6.143  13.080 -0.3624 -0.3038  0.2752
 3729W        W22583   3.160  16.656   6.243 -0.3081  0.1327 -0.2191
 3730W        W22584  12.254  15.524  15.674 -0.0031  0.1575  0.0440
 3731W        W22585   5.643   0.628  15.359 -0.0753 -0.1165 -0.1696
 3732W        W22586   0.730   5.232   3.767 -0.2192  0.0093  0.0951
 3733W        W22587  15.116   6.419  15.368 -0.2850 -0.1558  0.2974
 3734W        W22588   2.394   3.542   1.838  0.0385  0.3032  0.0438
 3735W        W22589   3.267   3.197  16.261 -0.0819 -0.0782  0.1780
 3736W        W22590   1.652   5.516   4.276  0.1593 -0.3635 -0.1032
 3737W        W22591   0.333  14.720   2.434 -0.0055 -0.0736  0.0400
 3738W        W22592   0.860  16.835   4.588  0.1285 -0.2778 -0.1944
 3739W        W22593  17.404   6.793  12.825 -0.0869 -0.0179  0.3109
 3740W        W22594  15.809  13.599   5.507 -0.0749  0.0833 -0.2865
 3741W        W22595   7.515   8.512  13.928 -0.1546  0.1439 -0.1104
 3742W        W22596  10.194   8.360   1.209 -0.1247 -0.1473 -0.0726
 3743W        W22597  15.661   4.086  16.877 -0.2716  0.0115  0.0258
 3744W        W22598  13.603  11.448   2.298  0.3230  0.0868  0.0237
 3745W        W22599  12.571  15.024   2.773  0.0701 -0.4162 -0.1701
 3746W        W22600   3.474  13.999   3.584 -0.0761 -0.0231  0.2375
 3747W        W22601  12.079  10.329   0.022  0.1897 -0.0134  0.0754
 3748W        W22602  12.565   6.323   5.155 -0.0431 -0.1250  0.0497
 3749W        W22603   9.838  13.522  13.534 -0.1571  0.0817 -0.0929
 3750W        W22604   6.013   1.607   5.573  0.1783 -0.0195 -0.1247
 3751W        W22605   6.001  16.096   1.159  0.3235  0.4036  0.0905
 3752W        W22606  16.355  10.120   3.172 -0.0060 -0.1005 -0.1327
 3753W        W22607  14.715   4.693   5.683 -0.0597 -0.1932  0.1978
 3754W        W22608   0.380   7.512   1.778  0.2126 -0.0133  0.1335
 3755W        W22609  13.949  15.057  15.593  0.0331  0.0563 -0.3031
 3756W        W22610   7.805  15.713  16.707  0.0858 -0.0695 -0.1580
 3757W        W22611   9.889   2.416   0.874 -0.1556  0.0681 -0.2100
 3758W        W22612   3.827  10.089  16.299  0.1415  0.0256 -0.2744
 3759W        W22613   8.301  16.531   2.791  0.2497 -0.0141  0.1674
 3760W        W22614   8.255  14.223  17.447  0.0632  0.0910 -0.0571
 3761W        W22615  14.482   8.866   1.528  0.2408 -0.0316  0.0980
 3762W        W22616  14.870   5.738   4.841 -0.1738 -0.3877  0.0703
 3763W        W22617   9.436   8.439  14.346  0.0379  0.0036 -0.1026
 3764W        W22618   6.497  15.294  13.942 -0.0825 -0.1841  0.0491
 3765W        W22619  11.575  17.393  13.079 -0.1435  0.3567 -0.0770
 3766W        W22620  10.360  10.428   3.065  0.0224  0.1492 -0.0371
 3767W        W22621   3.956   7.140   2.471 -0.0317 -0.2475 -0.1133
 3768W        W22622   0.285   3.607  14.546  0.1069  0.3302  0.3957
 3769W        W22623   8.753   7.036   2.623 -0.2929  0.1612 -0.0233
 3770W        W22624  14.430  11.072   4.143  0.1280  0.0320  0.0495
 3771W        W22625  10.882  10.453   1.446 -0.0390  0.0684 -0.0699
 3772W        W22626  13.599  14.402   4.260 -0.0806 -0.1144 -0.2824
 3773W        W22627  11.738   1.835   2.513 -0.1523 -0.0214  0.1624
 3774W        W22628   9.522  13.157  15.883  0.0599  0.0692  0.0177
 3775W        W22629  10.430   2.557  14.139  0.0697 -0.1171 -0.0297
 3776W        W22630   4.710   0.934   2.600  0.2983 -0.0381  0.2146
 3777W        W22631  17.122  17.120   0.778  0.1521 -0.1581  0.1387
 3778W        W22632   2.169  12.393   0.971  0.1258 -0.1418  0.1429
 3779W        W22633  14.698   9.401   0.061 -0.1166 -0.3998 -0.0690
 3780W        W22634  11.490   7.028  15.654  0.0761  0.0026 -0.0260
 3781W        W22635  15.477  13.667   2.524 -0.1795 -0.1137  0.0132
 3782W        W22636  13.613  11.096   4.809 -0.0303 -0.1138 -0.3102
 3783W        W22637   9.611  15.442  17.220 -0.1989  0.2005 -0.1945
 3784W        W22638  12.415   7.655  12.147 -0.1096  0.1931 -0.1283
 3785W        W22639   0.213   1.590  13.056 -0.2049 -0.2650  0.0318
 3786W        W22640   1.447   3.628  15.415 -0.1877 -0.1812 -0.1418
 3787W        W22641   7.077  15.198  14.186  0.2493  0.1113 -0.1693
 3788W        W22642   2.094  10.492  15.598  0.1081  0.1154 -0.2050
 3789W        W22643  15.669  15.013   4.809  0.2313  0.4079 -0.2585
 3790W        W22644  16.153   9.299  17.204 -0.0338 -0.4209  0.6688
 3791W        W22645   2.582  13.628  12.041  0.2830 -0.1878  0.0954
 3792W        W22646   4.620   3.236  16.822 -0.0502 -0.0321  0.0828
 3793W        W22647  14.418   7.135  13.995  0.0394  0.0637  0.0888
 3794W        W22648   1.522  17.029  13.728 -0.0356 -0.0613 -0.1064
 3795W        W22649   0.526   6.837   2.963  0.0264 -0.2202 -0.1872
 3796W        W22650   3.810  11.543   1.423  0.0027 -0.3655  0.1750
 3797W        W22651  12.477  14.147  13.425 -0.2951  0.0577 -0.1084
 3798W        W22652   4.844   5.622   1.394  0.1295 -0.1604  0.0249
 3799W        W22653  12.045  16.994  16.183 -0.0301  0.0338 -0.0593
 3800W        W22654  16.702  16.772  15.043  0.0637 -0.2477 -0.2616
 3801W        W22655  17.298   7.888   2.603  0.1669 -0.2111 -0.2205
 3802W        W22656   7.271   8.459  15.768 -0.2974  0.0927 -0.2770
 3803W        W22657   8.541   1.910  12.795 -0.0037 -0.0006  0.1847
 3804W        W22658  12.776  16.961   0.286 -0.0613  0.1485  0.0480
 3805W        W22659  17.306   2.580  13.775 -0.2796 -0.2257 -0.2144
 3806W        W22660   0.372  12.383  13.333 -0.0275  0.0694 -0.1915
 3807W        W22661  16.466  16.782  17.303 -0.0103  0.0491  0.4082
 3808W        W22662  15.094   5.242   0.995  0.0231 -0.2419  0.1599
 3809W        W22663   8.108   7.816   0.780  0.4342  0.1291  0.1000
 3810W        W22664  14.861  15.733   3.491 -0.0292  0.1940  0.0071
 3811W        W22665   0.671  17.119  14.647  0.1860  0.1265  0.0559
 3812W        W22666   6.025  12.324  14.609 -0.2486 -0.0944  0.1238
 3813W        W22667  11.467  14.274   3.098  0.0334 -0.2235 -0.0679
 3814W        W22668   7.271  10.501  12.687  0.0645  0.0798  0.2980
 3815W        W22669  15.534   3.363  15.302  0.0301 -0.1230  0.0090
 3816W        W22670   1.605  11.512   1.360 -0.0513 -0.0924 -0.1722
 3817W        W22671   2.693  15.752   0.678  0.3681  0.0546 -0.0129
 3818W        W22672   0.835   8.716  15.168 -0.0488 -0.2775  0.2618
 3819W        W22673   4.871   2.902   4.390  0.3509 -0.3861 -0.1869
 3820W        W22674   9.701  12.657  17.152 -0.4752  0.0773 -0.1973
 3821W        W22675   9.998   8.696   1.540 -0.1202  0.3144  0.1585
 3822W        W22676  11.849   7.736   0.025 -0.1919 -0.0236  0.3767
 3823W        W22677  16.620   5.717  13.129  0.0563  0.0353 -0.1736
 3824W        W22678  13.184   3.600  15.781 -0.3730 -0.0639 -0.1144
 3825W        W22679   3.793   6.921   4.738  0.3223 -0.0044  0.0710
 3826W        W22680   7.356   6.235   3.816  0.0344  0.1835  0.1644
 3827W        W22681   2.696   0.486  15.040 -0.0154 -0.1834 -0.0354
 3828W        W22682  13.784  15.874   0.526 -0.3241  0.0813 -0.1488
 3829W        W22683   9.049  12.202  15.326 -0.0111 -0.1010 -0.0027
 3830W        W22684   6.798   5.938  13.472  0.0495  0.1829 -0.1117
 3831W        W22685   4.209  10.478   0.957 -0.1799 -0.3673 -0.0832
 3832W        W22686   3.058  11.685  16.711 -0.0814  0.3003  0.1557
 3833W        W22687  17.034  17.159   4.624  0.3399  0.1063 -0.0764
 3834W        W22688   0.621   0.094  16.777  0.1642 -0.0383 -0.2106
 3835W        W22689  11.436  17.160  14.120 -0.1481 -0.1342  0.0263
 3836W        W22690  16.059  11.975   2.591 -0.2259 -0.4904  0.1943
 3837W        W22691  10.464  14.598   4.425  0.2228  0.0594  0.2376
 3838W        W22692   5.028   4.468  13.748  0.0542  0.1841  0.0683
 3839W        W22693  14.456  13.454   1.514  0.0254  0.0235  0.0661
 3840W        W22694   3.314  13.676   4.428  0.0191 -0.1636 -0.3366
 3841W        W22695   8.680   9.859  17.210  0.3302  0.2088 -0.1086
 3842W        W22696   1.812   7.766   3.796 -0.2017 -0.2846  0.0543
 3843W        W22697   1.361   7.762   2.996  0.0719 -0.4381  0.2645
 3844W        W22698   7.021  10.594  16.125  0.2648  0.1640 -0.0253
 3845W        W22699   8.762  10.015  14.367 -0.0942 -0.1382  0.1388
 3846W        W22700  10.069   3.553  16.886  0.0035  0.0268  0.0486
 3847W        W22701   6.074  13.203  15.251  0.0819 -0.1168 -0.0184
 3848W        W22702   3.897   4.418  14.642  0.1606 -0.3220 -0.2028
 3849W        W22703   4.998  11.607   1.602 -0.0283  0.2183 -0.0544
 3850W        W22704   5.589  10.240   1.565  0.1839  0.1931 -0.0313
 3851W        W22705  15.571   0.718  15.378  0.2959  0.1067  0.0468
 3852W        W22706  14.613   6.329   3.126 -0.4503  0.2021  0.1188
 3853W        W22707   9.764   2.368  15.133  0.0440 -0.0371 -0.1174
 3854W        W22708   0.298  15.774  16.156  0.1343 -0.0774 -0.0257
 3855W        W22709  11.402  10.824  12.763  0.1486 -0.3935  0.4245
 3856W        W22710  15.393  13.420  13.158  0.2251 -0.1873 -0.0436
 3857W        W22711  15.444   1.595   5.430  0.0757 -0.3134 -0.1050
 3858W        W22712   6.060  13.911   1.244 -0.2860 -0.0012 -0.3644
 3859W        W22713  13.552  16.184   2.796  0.2321  0.0729  0.0681
 3860W        W22714   3.377   9.110  13.801  0.3655 -0.0520  0.0597
 3861W        W22715  13.065  10.257   2.965  0.0999 -0.0582 -0.1799
 3862W        W22716   8.422   3.095  14.531  0.0138 -0.2082 -0.1407
 3863W        W22717  13.040  12.844  12.389 -0.4474 -0.3336 -0.4107
 3864W        W22718   7.717  12.144  15.196 -0.0086  0.1786  0.2422
 3865W        W22719  15.969  11.931  12.524  0.0461 -0.3998  0.3211
 3866W        W22720   8.934  12.262  17.405 -0.0923 -0.2158  0.1044
 3867W        W22721   0.659   5.223  15.918 -0.1354  0.2255  0.0105
 3868W        W22722  13.281   0.461  12.316  0.2233 -0.0090  0.0755
 3869W        W22723  10.644  11.480  14.118 -0.2587 -0.2391  0.0335
 3870W        W22724   9.627   8.337   0.374  0.0128 -0.1029  0.1586
 3871W        W22725   6.962  11.862   2.975  0.1554 -0.0230 -0.1115
 3872W        W22726   1.892   7.058  16.741  0.3027  0.0365  0.3725
 3873W        W22727   3.320   1.525  14.645 -0.0035  0.3389 -0.0474
 3874W        W22728  12.565   6.359  14.580  0.1836 -0.1469  0.0550
 3875W        W22729   0.260   5.648  15.917  0.3430  0.2732  0.0261
 3876W        W22730   0.578  12.076  16.680  0.5325 -0.2227  0.1678
 3877W        W22731  12.395  12.602  15.332 -0.2056 -0.2245  0.4375
 3878W        W22732  12.080   5.907   3.415  0.0208  0.1509  0.0687
 3879W        W22733  16.835  14.641  16.280 -0.2434 -0.1299  0.0340
 3880W        W22734  10.094   9.130   0.499  0.1224  0.3058  0.0009
 3881W        W22735   4.029   6.512   4.439 -0.1057  0.0093  0.0235
 3882W        W22736   8.509   5.435   2.734  0.0939  0.1298 -0.0103
 3883W        W22737   9.712   0.240  16.796 -0.0304 -0.1181  0.0630
 3884W        W22738   5.712   3.516   3.353 -0.3020 -0.3750 -0.0577
 3885W        W22739   5.613  15.319   3.871 -0.0204 -0.0091 -0.0393
 3886W        W22740   8.162  10.556  13.469 -0.1206 -0.2864 -0.0232
 3887W        W22741  10.221  11.418  12.600  0.0285 -0.2546  0.1717
 3888W        W22742   4.506   1.466   0.393  0.0442 -0.2153  0.0795
 3889W        W22743   3.669   3.554  14.366  0.0906 -0.4101  0.3234
 3890W        W22744   2.207   8.947   4.082  0.2381 -0.0620 -0.0219
 3891W        W22745  16.412   4.964   4.179 -0.1158 -0.1416  0.0955
 3892W        W22746  12.797   0.735  13.976  0.0260 -0.2432 -0.0753
 3893W        W22747  12.163   9.265   4.964  0.4373 -0.0754 -0.1497
 3894W        W22748   7.002   9.670  15.751 -0.0499 -0.0321 -0.1514
 3895W        W22749  16.338  15.008   0.134 -0.2141  0.1012 -0.0575
 3896W        W22750  11.061  16.979  13.732 -0.0416  0.1659  0.2364
 3897W        W22751  12.167   4.165  15.136  0.1831 -0.1514 -0.0934
 3898W        W22752   9.954  12.425   4.444  0.0181  0.0165  0.1092
 3899W        W22753  17.308   1.779  14.241  0.3202 -0.1762 -0.1788
 3900W        W22754   4.255  17.186  13.035 -0.2371  0.0961  0.1756
 3901W        W22755   4.320  13.560  14.127 -0.1560  0.2429 -0.2329
 3902W        W22756   7.451   9.452  12.482  0.0861  0.1012  0.0582
 3903W        W22757  17.251  15.571   5.260 -0.5051  0.1005  0.1827
 3904W        W22758  14.363   1.336  17.210 -0.5453  0.0568 -0.1814
 3905W        W22759   3.250   8.219  16.699 -0.2154  0.3385  0.2441
 3906W        W22760   7.506  16.928  13.425 -0.0375 -0.3098 -0.0005
 3907W        W22761   4.452   2.742  16.127  0.3541  0.0771  0.0646
 3908W        W22762   7.384   0.340  13.512 -0.0176 -0.2675 -0.0880
 3909W        W22763   6.753   0.507   0.148  0.1808 -0.2382 -0.1963
 3910W        W22764   5.709   6.459   3.543  0.1192  0.0884  0.0676
 3911W        W22765  11.243   1.267  15.488  0.1187 -0.2640 -0.1059
 3912W        W22766   5.973   3.909   2.408 -0.4109 -0.0017 -0.2829
 3913W        W22767   3.012   3.324   2.413  0.2460 -0.2049  0.0248
 3914W        W22768   6.838  14.734  12.854  0.0238  0.1898  0.2257
 3915W        W22769   5.095  10.345   3.517 -0.0060 -0.0322  0.0075
 3916W        W22770  15.008   2.036  15.797  0.2180  0.0382 -0.1537
 3917W        W22771  11.239  15.163  13.554  0.3903 -0.0562 -0.4022
 3918W        W22772  12.589   4.392  14.933  0.1981  0.1212 -0.2126
 3919W        W22773   7.714   4.500   4.384 -0.0677 -0.3977 -0.0273
 3920W        W22774  12.351   2.995  12.352  0.1066 -0.0954 -0.0414
 3921W        W22775  10.469   6.355  14.229  0.0920 -0.1453  0.2474
 3922W        W22776   7.639   2.166  12.826 -0.1452 -0.3161 -0.0709
 3923W        W22777   1.791   5.443  12.627 -0.4024 -0.4606  0.1183
 3924W        W22778  10.421   7.071   4.511 -0.0920  0.1951  0.2080
 3925W        W22779   0.189  12.948  13.227 -0.1339 -0.3112 -0.0366
 3926W        W22780   4.174  14.804  12.436  0.1281 -0.0091  0.0433
 3927W        W22781   3.042   3.230  17.447  0.2041 -0.2281  0.2788
 3928W        W22782  15.263  11.336   4.017  0.0583 -0.2914  0.0166
 3929W        W22783  16.663  14.064   1.133  0.2659 -0.1853  0.0327
 3930W        W22784  14.031  17.157  13.339  0.0775  0.2283 -0.0157
 3931W        W22785  13.952   9.265  17.261  0.2708  0.1720 -0.0119
 3932W        W22786   2.592   4.316   0.919  0.1602 -0.4657  0.2371
 3933W        W22787   3.483   1.053  15.386  0.1166 -0.0322 -0.0342
 3934W        W22788  12.099  11.191  15.149  0.1895 -0.0778 -0.1357
 3935W        W22789   1.805   5.309   2.024  0.1681 -0.2959 -0.2480
 3936W        W22790  10.103  14.360   1.654 -0.0306 -0.0606 -0.1312
 3937W        W22791  13.502  16.418   0.814  0.0989  0.1329  0.1442
 3938W        W22792   5.015   3.196   3.954 -0.0235  0.1507  0.0524
 3939W        W22793  16.468   4.218   4.914  0.0591  0.0613 -0.4236
 3940W        W22794  13.739   2.487   4.455  0.2497  0.0428 -0.1124
 3941W        W22795  17.060   2.402   0.233 -0.0922  0.2909  0.2302
 3942W        W22796   9.276   2.526   4.238  0.0597  0.3027  0.0809
 3943W        W22797   8.128   6.145  13.850  0.1675  0.0219  0.0667
 3944W        W22798   7.867  16.186   1.596 -0.0343 -0.2042  0.0311
 3945W        W22799   3.042  16.125  15.911 -0.0494  0.2981  0.0370
 3946W        W22800   1.281   5.277   2.121 -0.0466  0.0037 -0.1502
 3947W        W22801  11.904  16.769  15.267  0.1903  0.1589 -0.2996
 3948W        W22802   6.589  12.213   1.584 -0.1061  0.0665 -0.2740
 3949W        W22803  10.986  11.165  13.617 -0.0322  0.0987  0.2193
 3950W        W22804  12.092   9.224   5.943 -0.3041 -0.2421 -0.1160
 3951W        W22805   9.405  13.058  17.390  0.0654 -0.0197  0.3019
 3952W        W22806   4.809   8.560   4.636  0.1608 -0.0485 -0.1128
 3953W        W22807   7.973   9.275  14.377 -0.1643 -0.0301 -0.1071
 3954W        W22808  17.287  16.729  14.304 -0.0433 -0.0591 -0.0678
 3955W        W22809   2.511  10.629   2.512 -0.0958 -0.3033 -0.0155
 3956W        W22810  17.341   2.484   1.699 -0.1601 -0.0865  0.2712
 3957W        W22811   4.380  13.371   0.132  0.1133  0.1213 -0.2780
 3958W        W22812   6.433   1.011  15.204  0.2807 -0.1233 -0.4271
 3959W        W22813   7.150   9.920  13.315  0.1757 -0.1036 -0.1745
 3960W        W22814   5.427   7.447   4.295 -0.0343 -0.2537 -0.0605
 3961W        W22815   3.133   5.291   4.221  0.0557 -0.1164  0.1215
 3962W        W22816   1.575   4.190   4.236 -0.1404 -0.0502 -0.2758
 3963W        W22817  13.103  12.858   3.349 -0.0470 -0.1849  0.1153
 3964W        W22818  15.272   8.929  17.129  0.3698 -0.2283 -0.2115
 3965W        W22819   2.583  13.837   5.006 -0.0761 -0.1656  0.1117
 3966W        W22820  16.882  14.814  15.682  0.0205  0.1512 -0.0799
 3967W        W22821  14.247  10.858  13.310 -0.3563 -0.3345  0.6672
 3968W        W22822   7.141  13.672   2.870 -0.1110 -0.1138 -0.1848
 3969W        W22823   3.595  15.597  15.247 -0.2213  0.1294 -0.1874
 3970W        W22824   2.182  12.337  13.761 -0.0338 -0.4563  0.1249
 3971W        W22825  16.875   7.471  15.405 -0.0229 -0.1076  0.1244
 3972W        W22826   5.346  12.996   2.989 -0.0034  0.0756 -0.0052
 3973W        W22827   8.912   0.493   1.849 -0.0404 -0.2678 -0.3946
 3974W        W22828  12.755  15.168  13.228  0.2226  0.0983 -0.1511
 3975W        W22829   3.363  13.908  16.834  0.0908 -0.2154 -0.2169
 3976W        W22830  15.395   3.331  14.333  0.0243  0.1618 -0.0202
 3977W        W22831   3.900   8.824  17.063 -0.1466  0.2495  0.0527
 3978W        W22832  14.022   2.133  17.220  0.1317 -0.2575 -0.0279
 3979W        W22833  16.210   1.375  12.901  0.0362  0.1081 -0.1422
 3980W        W22834   8.236   2.274  14.763  0.2446 -0.1369  0.0395
 3981W        W22835  11.788  14.779   1.238  0.0595  0.1121 -0.0997
 3982W        W22836   0.740  15.585   2.565 -0.0371  0.1156 -0.1595
 3983W        W22837  12.030  15.845   1.409  0.0476  0.0407  0.2179
 3984W        W22838  12.556  11.080  14.995 -0.1809 -0.2372 -0.3662
 3985W        W22839  13.955   7.868   1.101  0.2462  0.0233  0.0243
 3986W        W22840   3.056   0.239  14.535  0.2482 -0.0681  0.2638
 3987W        W22841  10.408   1.206   4.021 -0.0977  0.3799  0.0008
 3988W        W22842  14.416   8.293  16.818 -0.2912 -0.2058  0.3247
 3989W        W22843  16.587   2.984   4.975 -0.3825  0.3836 -0.0476
 3990W        W22844  15.967  15.891  13.814 -0.1063  0.0468 -0.2456
 3991W        W22845   4.360   2.279  13.445 -0.0053  0.0555  0.3729
 3992W        W22846   8.766  10.462  16.556 -0.0900  0.1573 -0.1552
 3993W        W22847  11.646  11.939   4.815 -0.0218  0.0688  0.2059
 3994W        W22848   3.048   8.646  12.444 -0.0358 -0.2427  0.0257
 3995W        W22849   9.110   4.323  12.650  0.0877  0.0172 -0.2074
 3996W        W22850   1.727   6.857   5.282  0.0890 -0.1571 -0.0033
 3997W        W22851   2.181  17.360  12.698  0.0606 -0.3255 -0.2828
 3998W        W22852  16.297  16.734   2.907 -0.0052 -0.3493  0.0827
 3999W        W22853   2.789  11.349   1.746  0.3331 -0.0353 -0.2460
 4000W        W22854   0.817  11.647   1.900 -0.0996  0.5887  0.1645
 4001W        W22855  12.974   3.489  14.575 -0.2756  0.0011 -0.0348
 4002W        W22856  10.752   2.291   2.666 -0.0234  0.3121 -0.0426
 4003W        W22857   8.867  13.903   0.722 -0.1539  0.1586 -0.3794
 4004W        W22858   7.004   2.208   0.884 -0.0354 -0.2669  0.1104
 4005W        W22859   0.981   1.382   0.203 -0.0565  0.1288 -0.0832
 4006W        W22860  14.064  13.320  13.198  0.0900 -0.3195 -0.3161
 4007W        W22861   9.576   0.703   2.829  0.1077  0.1384 -0.0245
 4008W        W22862   9.988   2.959   3.628  0.3413  0.0584  0.0794
 4009W        W22863  10.649   9.680  12.290  0.0680 -0.0164  0.1652
 4010W        W22864  16.478  15.488   4.506 -0.1441 -0.0469 -0.3258
 4011W        W22865   3.195  17.077   3.291  0.3617 -0.2635  0.0407
 4012W        W22866   6.245   7.863  13.289 -0.0367 -0.0059 -0.3656
 4013W        W22867   1.354   4.457   4.575 -0.0531  0.2365 -0.3108
 4014W        W22868   3.102  14.025   0.840  0.2296 -0.1448  0.0388
 4015W        W22869  10.651   7.102  14.427 -0.0099  0.1807  0.1164
 4016W        W22870   9.384   9.658  15.785 -0.2580 -0.0756  0.0269
 4017W        W22871   9.408   0.236   3.547 -0.3542  0.4212 -0.1025
 4018W        W22872   2.352  15.707   4.174 -0.0619  0.2219  0.0929
 4019W        W22873  15.675  11.546  15.032 -0.1612 -0.2159  0.2829
 4020W        W22874   8.767   9.932   2.429 -0.0775  0.3173  0.0846
 4021W        W22875   5.556  13.069   4.833 -0.1124  0.1589 -0.2656
 4022W        W22876   1.657  10.450  14.135  0.2846  0.2136 -0.0298
 4023W        W22877   1.631  14.154   3.485 -0.1140  0.1316  0.0849
 4024W        W22878   2.609   7.401   3.919  0.2688  0.4662  0.2117
 4025W        W22879   2.760  11.245  14.007  0.0697  0.4650  0.2042
 4026W        W22880   1.406   1.081  14.927  0.2750  0.5008 -0.1723
 4027W        W22881  16.176   5.467  13.143 -0.1798 -0.1137  0.2104
 4028W        W22882  14.611   3.202  13.234  0.2135 -0.3613  0.2166
 4029W        W22883   6.114  17.197   3.024  0.1002  0.0651 -0.1390
 4030W        W22884  14.266  17.138   0.421  0.1867 -0.1839  0.3232
 4031W        W22885   8.580   0.190  14.347  0.0514  0.3441  0.0173
 4032W        W22886  13.558   3.622   0.574  0.1068  0.0227  0.1983
 4033W        W22887  12.623  12.077  12.221  0.1340  0.3761 -0.2185
 4034W        W22888   1.967  17.133   5.108  0.1500 -0.0858 -0.3848
 4035W        W22889  12.766   9.179  13.064 -0.0032 -0.0139  0.2827
 4036W        W22890   1.829   3.345   1.687  0.0100  0.5238 -0.0872
 4037W        W22891  14.067   1.957   4.636  0.0459 -0.1675 -0.3399
 4038W        W22892  15.453  17.066  13.356  0.0883 -0.0110  0.2905
 4039W        W22893  14.105  14.277  14.538  0.1576  0.1744 -0.0574
 4040W        W22894  10.511   9.517   0.627  0.3595 -0.3866 -0.1238
 4041W        W22895  15.678  17.392   3.847  0.2487  0.2939 -0.1597
 4042W        W22896   0.983   9.646   4.338 -0.1469  0.1773 -0.0792
 4043W        W22897  16.513   3.671   0.186  0.0658  0.0846 -0.1553
 4044W        W22898   1.729   4.115  12.901 -0.0633  0.0315 -0.1343
 4045W        W22899  16.846   8.939   1.656 -0.0667  0.2296  0.1818
 4046W        W22900   3.095  11.588  15.721 -0.0392  0.2573  0.0253
 4047W        W22901  15.341   2.567  16.534 -0.2513 -0.0492 -0.1407
 4048W        W22902   9.937   5.387  17.378  0.3704  0.4069 -0.1228
 4049W        W22903   3.230   0.854   0.466  0.1995  0.1340  0.0971
 4050W        W22904   0.821   0.808   4.321 -0.0090 -0.0211  0.2183
 4051W        W22905  13.039  11.052   2.582  0.1682  0.0497 -0.0683
 4052W        W22906  15.467   4.743  16.339 -0.0849 -0.0298  0.0016
 4053W        W22907  13.506  11.848  16.503  0.0422  0.0854 -0.1127
 4054W        W22908  10.765   0.241  16.132  0.2922  0.0180  0.5197
 4055W        W22909  15.290  15.325   5.394 -0.0119 -0.3629  0.1294
 4056W        W22910   9.910   2.948   1.646 -0.0570  0.0863 -0.1782
 4057W        W22911   5.003   9.916   1.059 -0.0524 -0.2781 -0.1081
 4058W        W22912  16.374   9.922   5.210  0.0479 -0.0833 -0.1066
 4059W        W22913   2.615   6.708  12.736 -0.0712 -0.0303 -0.1614
 4060W        W22914  12.866  17.009  17.261 -0.1643 -0.0943 -0.0453
 4061W        W22915  12.708   1.338   1.392 -0.5138  0.0827 -0.2343
 4062W        W22916   1.958   3.301  16.695 -0.0065 -0.2425 -0.1883
 4063W        W22917  12.622  14.585   4.034 -0.0337  0.1587  0.1753
 4064W        W22918   3.324  11.376   1.593 -0.0424  0.1003 -0.1331
 4065W        W22919   9.845  16.168   1.974 -0.1216 -0.1879 -0.0418
 4066W        W22920  16.396  17.195   4.103 -0.1078  0.0780  0.1603
 4067W        W22921   1.365   1.655  16.595 -0.0150  0.0374  0.0100
 4068W        W22922   1.491  16.649  15.398  0.1705  0.2981  0.2184
 4069W        W22923  13.699   0.500   2.866  0.2232 -0.1747  0.1698
 4070W        W22924   5.725   3.965   3.571  0.0132 -0.0814 -0.1928
 4071W        W22925   0.717  15.841   3.185 -0.0319  0.0834 -0.0870
 4072W        W22926  12.514   0.913   1.547  0.2450 -0.2229  0.0951
 4073W        W22927  15.872  14.684   2.814  0.3227  0.4247  0.1090
 4074W        W22928  15.657  12.050   5.062 -0.4206 -0.0027  0.1255
 4075W        W22929   2.064   4.705  15.308 -0.1460  0.0649  0.0234
 4076W        W22930  10.362   7.439  14.198 -0.2788  0.0874  0.0249
 4077W        W22931  14.248   6.256   4.413 -0.1328  0.0397  0.0989
 4078W        W22932  10.633  13.513   5.154 -0.0704  0.0466  0.1953
 4079W        W22933   0.034  16.873   4.955  0.2631  0.1472  0.1336
 4080W        W22934   8.658  16.644   0.973  0.0718  0.0211  0.2621
 4081W        W22935  10.442   6.595  17.196  0.1075  0.0696  0.0281
 4082W        W22936   4.788   9.067  14.904 -0.1726  0.0825  0.0752
 4083W        W22937   2.957  15.546  17.144  0.0014  0.4925  0.1383
 4084W        W22938   3.074   6.941  12.944 -0.3203 -0.2241 -0.0933
 4085W        W22939  13.558  11.417  13.739 -0.0852  0.1123 -0.2049
 4086W        W22940   8.137   0.252   5.094  0.1171 -0.1156  0.0111
 4087W        W22941   7.461  13.298   1.336  0.0876 -0.1454 -0.0163
 4088W        W22942   2.031  13.841  15.635  0.0363 -0.1090 -0.1995
 4089W        W22943   0.850   6.951   1.488 -0.0763 -0.0755 -0.1677
 4090W        W22944   3.790  14.657   5.298  0.1254 -0.1233  0.1119
 4091W        W22945   2.320   3.854  13.710 -0.0185  0.1182 -0.0127
 4092W        W22946  13.801  17.251   2.032  0.0787  0.0219 -0.1481
 4093W        W22947  14.595  12.797   2.585 -0.1040  0.0859  0.0381
 4094W        W22948   2.589   1.313   3.656  0.2113  0.0950  0.1146
 4095W        W22949  17.191  15.076   5.497 -0.1847  0.0625 -0.0783
 4096W        W22950  12.068  11.905   2.183  0.0969 -0.1003 -0.0490
 4097W        W22951   0.198   5.582  12.133  0.0052 -0.0864 -0.1600
 4098W        W22952   5.253   4.637   2.299  0.0864  0.1166  0.1416
 4099W        W22953   5.630   1.992   1.859  0.1172 -0.2163 -0.0372
 4100W        W22954  10.456   0.805  12.981 -0.0066 -0.3554 -0.2185
 4101W        W22955   7.269   2.071   0.057  0.0013 -0.3047  0.0849
 4102W        W22956   1.462  10.311  17.087  0.1569 -0.0225 -0.0853
 4103W        W22957   7.525   7.785   2.458 -0.0849  0.0553 -0.0514
 4104W        W22958  11.749  15.149   2.771  0.1630  0.0516 -0.0655
 4105W        W22959  10.047   8.352  12.531  0.2498  0.0250  0.2475
 4106W        W22960   8.551   3.293  14.081 -0.0707  0.1015  0.1865
 4107W        W22961  13.063   1.370   5.233 -0.2436 -0.1581 -0.0767
 4108W        W22962   9.631   4.549  14.240  0.1613  0.0836 -0.2123
 4109W        W22963  14.942  10.756   2.562  0.1909  0.0856  0.0600
 4110W        W22964  11.637  14.164  12.928  0.1824 -0.1009 -0.2076
 4111W        W22965  14.034  15.579   3.708  0.0051 -0.1153 -0.0797
 4112W        W22966  14.125   8.254   2.710 -0.3159  0.1415 -0.0303
 4113W        W22967   7.998  17.165  13.184  0.2109  0.1599  0.1395
 4114W        W22968  13.845   5.348  16.304 -0.0942 -0.2470 -0.1214
 4115W        W22969  11.660  13.146  15.883 -0.3168  0.2411 -0.2327
 4116W        W22970   6.350   3.442   4.608  0.1688 -0.0260 -0.1189
 4117W        W22971   5.626  14.560   1.643  0.1524 -0.2369 -0.3111
 4118W        W22972  12.169   5.405   2.985  0.0518  0.0509  0.0099
 4119W        W22973   8.320   8.579   4.844 -0.1132 -0.0745 -0.0829
 4120W        W22974  10.795  11.599   1.618 -0.0319 -0.1374  0.0245
 4121W        W22975   9.458   6.503  16.745  0.0058  0.0853  0.0606
 4122W        W22976   7.500  12.252  14.300 -0.1210  0.1867 -0.1766
 4123W        W22977  10.815  17.208  12.262  0.1425 -0.0860 -0.1695
 4124W        W22978   9.211   8.229  13.002  0.1681 -0.1180  0.1395
 4125W        W22979   8.779  13.415   0.795  0.0675  0.0002 -0.1251
 4126W        W22980  11.250  15.871   0.284 -0.2902  0.0765 -0.0320
 4127W        W22981   5.135  15.245   4.040  0.2097 -0.1932 -0.3210
 4128W        W22982   6.567   1.446   3.882 -0.0660  0.2603  0.0538
 4129W        W22983  14.843   8.742   2.587  0.3687  0.4644 -0.1751
 4130W        W22984   3.769   3.157  12.477 -0.0832 -0.4570 -0.2175
 4131W        W22985   3.739  11.827  13.433  0.1775 -0.1127 -0.1040
 4132W        W22986   0.809   6.391  13.508  0.1765 -0.1046  0.0751
 4133W        W22987   9.299  16.034  12.722 -0.3681  0.0683 -0.0691
 4134W        W22988   1.261   8.623   2.950 -0.0153  0.1473 -0.0031
 4135W        W22989  11.281   1.146  17.176 -0.2667  0.0830 -0.0823
 4136W        W22990   9.211  14.280  15.713 -0.0548 -0.3060  0.0167
 4137W        W22991  15.272  15.852   3.184  0.0878 -0.1755 -0.2484
 4138W        W22992   5.899   8.029   3.367  0.0714 -0.0650  0.0617
 4139W        W22993   7.577   8.208   4.927 -0.1791 -0.2374  0.1592
 4140W        W22994   6.860  13.015  15.231  0.1607  0.3707  0.0347
 4141W        W22995  10.562   7.786   2.423  0.0159  0.0435 -0.0616
 4142W        W22996   2.019   5.762  12.328 -0.0579 -0.1426  0.0172
 4143W        W22997   7.151  11.513  16.112  0.0457 -0.0905 -0.0703
 4144W        W22998  10.379   8.788  12.475 -0.1847 -0.1645 -0.0021
 4145W        W22999   1.066   2.383  12.734 -0.1102  0.1258 -0.1376
 4146W        W23000   9.527  13.671   0.042  0.1429 -0.2130 -0.2364
 4147W        W23001   0.068  12.063  14.376 -0.3491  0.1842 -0.0772
 4148W        W23002  16.720  15.227   5.279 -0.0403  0.1740  0.0727
 4149W        W23003  12.870  12.698   2.912 -0.1777 -0.0327  0.0246
 4150W        W23004   2.104   8.882  12.475 -0.1149  0.2260 -0.0360
 4151W        W23005   3.061  15.456  16.074 -0.0592  0.2178 -0.1171
 4152W        W23006   2.401   8.652   2.616  0.0452 -0.2058  0.1471
 4153W        W23007  17.136   9.802   5.153 -0.0624 -0.0104 -0.0337
 4154W        W23008   9.945  15.447  15.074 -0.1408  0.0641 -0.0280
 4155W        W23009   6.348   1.225  15.655  0.0462 -0.1285 -0.1333
 4156W        W23010   3.229  12.357   2.100 -0.1412 -0.3273 -0.1245
 4157W        W23011   1.802  16.946  16.854 -0.2484 -0.0039  0.0275
 4158W        W23012   0.089  10.217   1.034  0.1089  0.2754  0.4116
 4159W        W23013  16.069   1.055   0.673 -0.2811 -0.0710 -0.1063
 4160W        W23014   5.797  10.831  13.488 -0.2665  0.0076  0.0310
 4161W        W23015  13.782  12.286   5.359 -0.3891  0.1613 -0.0085
 4162W        W23016   1.857   9.135  11.992  0.1053  0.2308  0.4313
 4163W        W23017   9.251  10.111   4.533 -0.1345 -0.1832 -0.2102
 4164W        W23018  17.253  10.814   5.245  0.0831  0.0567 -0.5291
 4165W        W23019  16.055  10.227  14.022 -0.1311  0.0930  0.2844
 4166W        W23020   8.646   5.354   0.184 -0.1905 -0.1286 -0.0552
 4167W        W23021   3.593   0.341  16.731 -0.0157  0.0357 -0.1299
 4168W        W23022  16.627  11.635  15.224 -0.1834 -0.1751  0.1474
 4169W        W23023  11.697   7.001  16.725  0.2536  0.3727  0.0036
 4170W        W23024   0.898   1.406   3.033  0.0399  0.0859  0.0753
 4171W        W23025  13.232   3.257   0.580 -0.0030  0.0206 -0.3103
 4172W        W23026   5.098   7.849   0.054 -0.1501  0.0946 -0.2929
 4173W        W23027   2.094  16.742  15.387  0.3970  0.1262  0.0359
 4174W        W23028  10.248  13.088   0.558 -0.0298  0.0331 -0.3473
 4175W        W23029   3.823   4.023  12.784  0.2170 -0.1918  0.1327
 4176W        W23030  15.646  15.793   4.349  0.2372  0.0848 -0.0245
 4177W        W23031  13.191  15.338  13.458 -0.2157  0.1662  0.1425
 4178W        W23032   6.820   4.247   3.811  0.1185 -0.0250 -0.1420
 4179W        W23033   2.850   9.772   3.099  0.1034  0.1770 -0.0186
 4180W        W23034  11.053  15.521  14.872  0.2206  0.2242 -0.3302
 4181W        W23035   9.266  17.033   1.980  0.0937  0.0071 -0.0695
 4182W        W23036   7.862   2.553   1.456 -0.1020  0.0271 -0.0099
 4183W        W23037   2.697  16.236   1.980 -0.1469  0.3613  0.1119
 4184W        W23038   3.337   0.902   1.191  0.2321  0.0242 -0.1248
 4185W        W23039   2.101   8.721  16.165 -0.0016  0.0784  0.0649
 4186W        W23040   1.870  12.268   0.070 -0.1046 -0.2074 -0.0697
 4187W        W23041  17.061   2.805  12.468 -0.0208  0.2426 -0.0914
 4188W        W23042   1.889  17.190  17.418  0.0221  0.3365 -0.0876
 4189W        W23043   9.324   5.670   3.909 -0.1494 -0.1206 -0.1655
 4190W        W23044  14.381  12.879   1.932  0.1558  0.0638 -0.0257
 4191W        W23045  15.804  11.221   4.581 -0.2314 -0.1589 -0.0890
 4192W        W23046   8.736   5.156  12.351  0.1728  0.2785 -0.0355
 4193W        W23047   9.562  14.982  12.852 -0.0971  0.0119  0.0945
 4194W        W23048   0.027  16.889   3.041  0.0503  0.0339  0.1527
 4195W        W23049  15.043  13.992   1.807 -0.4933 -0.3199 -0.1237
 4196W        W23050  12.354  14.984   3.863 -0.1603  0.0959 -0.1624
 4197W        W23051   8.383  10.272  15.740  0.1541  0.2634 -0.0968
 4198W        W23052   2.712   3.798  12.909 -0.0975  0.2059 -0.0443
 4199W        W23053  14.850   9.170  14.158  0.0133 -0.1302  0.0745
 4200W        W23054  11.975  13.948  12.532  0.2744 -0.2425 -0.0822
 4201W        W23055   7.698   8.048   0.596  0.0101  0.1095 -0.0520
 4202W        W23056   8.386   7.252   4.949  0.1050  0.0884 -0.1690
 4203W        W23057  16.661  12.220   3.801 -0.0560 -0.1925 -0.3370
 4204W        W23058   8.545   9.693   1.239  0.2055  0.1733  0.1903
 4205W        W23059  11.487   0.911   2.003 -0.2629 -0.1432  0.0860
 4206W        W23060   5.985  13.061  13.790  0.2455  0.0349  0.0846
 4207W        W23061   1.542  15.279   4.511  0.2108  0.0370  0.1572
 4208W        W23062  12.750   3.720   2.720 -0.0138 -0.2443 -0.0459
 4209W        W23063   3.987   9.605  16.581 -0.1217  0.0063  0.1191
 4210W        W23064   9.278   9.652   2.522 -0.1180  0.1108 -0.0565
 4211W        W23065  16.400   9.983  16.518 -0.1554 -0.1433 -0.1543
 4212W        W23066  10.620  12.843  15.926  0.2268 -0.1145  0.1970
 4213W        W23067   1.449   8.795   2.316  0.2385  0.2742  0.2878
 4214W        W23068  16.324  15.508  15.695  0.0013 -0.0442 -0.0193
 4215W        W23069  16.284  14.329   0.157  0.1901  0.0428  0.0332
 4216W        W23070  12.713  14.630  16.504 -0.1084  0.2197 -0.1545
 4217W        W23071   1.924  10.558   0.815 -0.0477  0.1694 -0.1199
 4218W        W23072   2.710   9.221  14.464 -0.0254  0.0576  0.2415
 4219W        W23073  10.229   6.464   3.431  0.1674 -0.1497 -0.1153
 4220W        W23074   6.414   6.014  14.817  0.1653  0.3091  0.0591
 4221W        W23075   9.722   5.458  15.018 -0.0766 -0.1662 -0.1485
 4222W        W23076   7.068   1.327   0.460  0.1308 -0.2061  0.0012
 4223W        W23077  13.673  15.695  14.347 -0.2100  0.1235  0.1285
 4224W        W23078   7.102   3.972   4.951  0.0295 -0.0991 -0.0112
 4225W        W23079   2.010   6.025  16.551  0.3528 -0.0634  0.0330
 4226W        W23080  14.394  12.173   1.309  0.0620 -0.5390  0.2179
 4227W        W23081   4.116  17.205  13.902 -0.3855  0.1402 -0.1072
 4228W        W23082  11.293  11.146  14.542 -0.1834  0.0324  0.0115
 4229W        W23083   3.577  11.572   5.165  0.1753 -0.2078  0.1033
 4230W        W23084   3.122   6.489   5.150  0.0759  0.2030  0.2623
 4231W        W23085  12.032   6.616   0.317 -0.2856 -0.2752  0.0148
 4232W        W23086  13.685   4.441  12.934 -0.0172 -0.0925 -0.2046
 4233W        W23087   7.906   4.222   0.068  0.2190  0.0850 -0.3349
 4234W        W23088   6.578   5.401  13.400  0.2109  0.1599  0.2494
 4235W        W23089  10.130  10.134  16.006  0.0135  0.1907 -0.0463
 4236W        W23090   9.222   4.696  12.976  0.1431 -0.3335 -0.0530
 4237W        W23091   4.482   3.679   5.290  0.0623 -0.0150 -0.1297
 4238W        W23092   5.525   5.813   3.936  0.1722 -0.0047 -0.0840
 4239W        W23093   3.691   6.022  15.920 -0.0824 -0.2980  0.0882
 4240W        W23094  14.973   1.809   2.594  0.0698  0.1413  0.3584
 4241W        W23095   5.971   3.110  16.977 -0.2206  0.1803 -0.2265
 4242W        W23096   9.124   5.604   2.360 -0.0738 -0.1474  0.0957
 4243W        W23097  11.392   2.722   3.651 -0.3149  0.0441 -0.0166
 4244W        W23098   5.000   4.898   3.025 -0.0857  0.2097 -0.0218
 4245W        W23099  12.826  15.066  13.696 -0.4063  0.1770  0.0094
 4246W        W23100   6.708  16.637  15.122  0.1805 -0.1802  0.3093
 4247W        W23101  10.799  12.004  16.130 -0.0149  0.0651 -0.2568
 4248W        W23102   6.749   4.693   3.260 -0.1340 -0.2073 -0.3059
 4249W        W23103  15.324  16.167   0.445  0.4927 -0.1368  0.0952
 4250W        W23104  12.067   8.671   0.821  0.0528 -0.1793 -0.0772
 4251W        W23105  10.076  13.781  14.343  0.2345  0.0145 -0.0833
 4252W        W23106   6.419  15.277  15.788  0.0820 -0.3269 -0.2610
 4253W        W23107  13.604   3.297  14.831 -0.1270  0.1679 -0.0637
 4254W        W23108   4.955   5.586  14.538 -0.2095  0.0844  0.0092
 4255W        W23109   2.685  15.766   1.453 -0.1298  0.2362 -0.0877
 4256W        W23110   3.386   9.691   5.944 -0.1978 -0.2400 -0.0327
 4257W        W23111   4.958  12.306  13.804  0.0230 -0.2637 -0.0567
 4258W        W23112   2.683   9.147   5.401 -0.0079  0.0201  0.1320
 4259W        W23113   5.244  12.949  14.300 -0.0143  0.1208  0.1430
 4260W        W23114  10.921   1.689   4.793 -0.0525 -0.1196 -0.1477
 4261W        W23115  17.218   2.000   5.080 -0.1606  0.0457 -0.0716
 4262W        W23116  16.736   5.742   2.313 -0.0002  0.1131 -0.2317
 4263W        W23117   9.407  14.339  14.681 -0.2599 -0.1266 -0.0448
 4264W        W23118  17.336   3.635  14.189 -0.0423  0.0157 -0.0291
 4265W        W23119   3.890  16.531  14.336  0.0611 -0.2788 -0.2128
 4266W        W23120  11.440   8.583  12.269 -0.3450 -0.0074  0.0041
 4267W        W23121  17.038   9.884   1.197  0.2893  0.1461 -0.0507
 4268W        W23122  10.217   9.473  14.644  0.3939 -0.0608 -0.1555
 4269W        W23123   4.583  12.905   5.032 -0.0428 -0.3980  0.2122
 4270W        W23124  17.117   5.489  12.147  0.2139  0.1747 -0.2902
 4271W        W23125  14.781   4.925  13.916 -0.3503  0.0683 -0.0861
 4272W        W23126  16.541   6.881   2.593  0.3922  0.8122  0.0135
 4273W        W23127  11.369  12.343   1.773 -0.1899  0.0084  0.1350
 4274W        W23128   6.057  16.359   2.867 -0.0646  0.0224 -0.2057
 4275W        W23129  11.895  16.240  14.635 -0.1734 -0.4261 -0.0160
 4276W        W23130   6.895   3.435   3.183 -0.0317  0.2767  0.1579
 4277W        W23131   2.983   3.582  15.228  0.0943  0.0562  0.0265
 4278W        W23132   4.245   8.338  14.549 -0.1015  0.0547  0.2189
 4279W        W23133   8.728   7.350  14.557 -0.1571  0.1973  0.4417
 4280W        W23134  11.485   1.509  12.331  0.1603  0.2415  0.0585
 4281W        W23135   5.592  13.744   0.966 -0.0105  0.2808 -0.0351
 4282W        W23136   5.029   4.240   4.194 -0.0679 -0.1174 -0.1782
 4283W        W23137   5.458   4.877  12.779  0.2365  0.0523 -0.0401
 4284W        W23138  12.289   1.958  17.028 -0.1809 -0.0729 -0.0141
 4285W        W23139   2.022   0.613  13.872 -0.1908  0.1106 -0.4015
 4286W        W23140   7.114  10.664   3.864  0.1811  0.0695  0.0083
 4287W        W23141   6.326  14.116  14.595  0.2847 -0.0450 -0.3706
 4288W        W23142   4.165  11.348  14.766 -0.0741  0.5283 -0.0418
 4289W        W23143   3.939  12.616  16.592 -0.1909 -0.0943  0.2725
 4290W        W23144  11.398   5.612  17.233  0.0530 -0.2588  0.0925
 4291W        W23145  12.912  10.769   1.968 -0.1228 -0.2258  0.0784
 4292W        W23146   9.039   0.112   1.239  0.2455 -0.1298 -0.2544
 4293W        W23147   8.997  10.475  15.232  0.0289  0.1276  0.2519
 4294W        W23148  10.918   1.973  13.827 -0.0215 -0.1091  0.2539
 4295W        W23149   2.061   1.454  16.896 -0.2091 -0.4858 -0.3823
 4296W        W23150   3.848   2.961  13.250 -0.1450  0.2288  0.0419
 4297W        W23151   3.230   7.776  12.957 -0.0448 -0.2159 -0.2173
 4298W        W23152   5.293  13.214   1.121 -0.0963 -0.2803  0.0706
 4299W        W23153   7.957   7.805  14.290  0.3264  0.2271  0.3603
 4300W        W23154   0.748   3.190   1.903  0.0175  0.0098 -0.0435
 4301W        W23155   1.876   7.224   1.006 -0.0211  0.1448  0.0532
 4302W        W23156   0.024  10.823  15.006  0.0706 -0.1355  0.1245
 4303W        W23157   0.116   9.410  15.763  0.0681 -0.0027 -0.0134
 4304W        W23158  13.062   0.767   2.272  0.1479  0.0840  0.0099
 4305W        W23159   3.911   9.032   2.623 -0.0955 -0.1251  0.1090
 4306W        W23160  12.703  15.586   3.837 -0.0021  0.2284 -0.2285
 4307W        W23161  15.151   5.386  13.611  0.0665 -0.0734 -0.1536
 4308W        W23162   1.553  16.792   2.297  0.0924 -0.0883  0.1036
 4309W        W23163   0.711   2.382  13.311  0.3436  0.1143 -0.1131
 4310W        W23164   5.413   0.617   1.788 -0.2033 -0.2332 -0.0274
 4311W        W23165   6.529   3.604   0.029 -0.3159 -0.1446  0.2251
 4312W        W23166  13.790   6.765   2.639 -0.0992  0.1652  0.0768
 4313W        W23167   9.835  14.770   4.649 -0.1205 -0.0823 -0.1632
 4314W        W23168   1.444  14.877  13.106  0.0609  0.1442 -0.0032
 4315W        W23169   3.582   9.060   1.363  0.3400 -0.1494 -0.0703
 4316W        W23170   1.982  12.558   4.965  0.1475  0.3435 -0.2804
 4317W        W23171  15.008  12.765   3.836  0.2542  0.0878  0.3356
 4318W        W23172   9.862  12.403  14.093  0.0823  0.0939 -0.0257
 4319W        W23173  10.271  12.080  16.429  0.0653  0.1329  0.1103
 4320W        W23174  11.565   9.255   3.660  0.0682  0.4463 -0.1114
 4321W        W23175   5.220  11.016   0.484  0.0040 -0.0462 -0.1014
 4322W        W23176   8.019  16.718   1.769  0.0708 -0.1884  0.0585
 4323W        W23177  14.052  11.458   1.601  0.2379  0.0867  0.0426
 4324W        W23178   1.330  10.139   3.359  0.0570 -0.0659  0.1476
 4325W        W23179   7.320   5.840   0.108  0.2218  0.0668 -0.1651
 4326W        W23180  10.571  14.478   2.069 -0.0280 -0.1705 -0.0609
 4327W        W23181   9.751   7.947  12.196  0.1063 -0.1386 -0.2145
 4328W        W23182   3.434  10.932   2.409  0.0229 -0.2677 -0.3386
 4329W        W23183   7.919   3.464  12.765 -0.2679 -0.1534  0.0417
 4330W        W23184  12.115  10.497   3.970 -0.0529  0.1590 -0.0540
 4331W        W23185  15.653   2.560  14.829 -0.0597  0.2810  0.1153
 4332W        W23186  11.265   0.523   1.922 -0.1082 -0.1812 -0.1881
 4333W        W23187   2.264   1.625   4.793 -0.1791  0.0546  0.0533
 4334W        W23188  11.232  17.043   2.978  0.0686  0.0806  0.0373
 4335W        W23189  12.669   3.241   1.263  0.1430  0.4180  0.2351
 4336W        W23190   1.549   4.086   1.554  0.0340  0.1880 -0.2746
 4337W        W23191   8.539  15.233   0.869  0.0633 -0.2284 -0.1698
 4338W        W23192  14.651   4.523   4.355  0.4182 -0.3708 -0.0647
 4339W        W23193  11.976  12.325   2.495 -0.0991 -0.1437  0.0632
 4340W        W23194   5.200  14.196   0.178 -0.0071  0.0404  0.2211
 4341W        W23195   0.548  16.226  14.349 -0.1068 -0.1369  0.0472
 4342W        W23196   1.993   9.021  17.241  0.0499  0.2347 -0.1268
 4343W        W23197   1.011   7.527  14.009 -0.0771  0.0434  0.1476
 4344W        W23198   5.405  12.390   0.583 -0.4345  0.2530  0.1152
 4345W        W23199  10.703  11.962  13.955  0.0043 -0.0801 -0.1102
 4346W        W23200  12.866  10.579   2.529  0.1794 -0.3390  0.3863
 4347W        W23201   1.424   3.211   2.586 -0.3876 -0.2397  0.2777
 4348W        W23202  15.968   0.029   2.866  0.1777 -0.0006 -0.4016
 4349W        W23203   5.655   5.875   1.108  0.1618  0.1336 -0.2067
 4350W        W23204   1.857  15.688   4.017  0.0250  0.1130  0.0215
 4351W        W23205  16.564   3.119   0.238  0.1684 -0.3422 -0.2197
 4352W        W23206   3.259   8.823   0.600 -0.0617  0.1245  0.1564
 4353W        W23207  12.421  11.683   4.540 -0.1895  0.3821 -0.0578
 4354W        W23208   5.691   2.442  14.839  0.0150  0.0056 -0.0806
 4355W        W23209   7.788  12.072  15.672  0.1557 -0.0191 -0.0713
 4356W        W23210  14.461   6.816  13.260 -0.1140 -0.0309  0.1785
 4357W        W23211   7.600  17.308  15.181 -0.3301 -0.2026 -0.0396
 4358W        W23212  11.249  12.034  13.130  0.2000 -0.0955 -0.0643
 4359W        W23213   4.659   1.644  16.726 -0.0942 -0.0742  0.2121
 4360W        W23214   3.752   8.702   0.805  0.2642  0.0077 -0.1156
 4361W        W23215   4.886  13.932  13.333  0.1491  0.1232 -0.0060
 4362W        W23216   4.943   4.871  13.101 -0.0758 -0.1410 -0.0339
 4363W        W23217  12.194   0.214   3.445  0.1218  0.2208 -0.1504
 4364W        W23218  15.833   6.526   3.433 -0.2744 -0.1345  0.2065
 4365W        W23219   6.692   1.360  14.324 -0.3418 -0.0925  0.0682
 4366W        W23220   5.134   6.052   2.601  0.0962 -0.2051  0.0496
 4367W        W23221  11.422   5.405  15.158  0.4546  0.1900  0.0932
 4368W        W23222   1.088  12.077   5.234  0.1073  0.0663  0.0809
 4369W        W23223   7.759   0.970   2.582  0.1675  0.0790  0.3010
 4370W        W23224  16.997   1.874   2.088 -0.1172  0.3058 -0.1677
 4371W        W23225  12.712  17.301  14.099  0.0761  0.0913 -0.1017
 4372W        W23226   5.491  12.047  14.658 -0.3672 -0.1111 -0.1679
 4373W        W23227   5.768   4.315  15.309 -0.0135  0.1733 -0.4053
 4374W        W23228  10.717  15.073  13.697  0.0229 -0.0660 -0.1878
 4375W        W23229   7.479  16.203   3.167 -0.0590  0.5530 -0.1936
 4376W        W23230  14.683   4.878  12.962  0.0342  0.0099 -0.0302
 4377W        W23231  14.238   5.703  14.615 -0.1692 -0.1832 -0.1690
 4378W        W23232   0.142  10.616   4.159 -0.0849  0.0297 -0.1355
 4379W        W23233  12.150  15.012   3.041 -0.3721 -0.0059  0.0129
 4380W        W23234  15.929   5.175  16.844 -0.3980 -0.0037  0.0471
 4381W        W23235   6.536   4.339   2.021  0.0135 -0.1160 -0.0619
 4382W        W23236  13.224   7.539   1.591 -0.1143  0.0780  0.4002
 4383W        W23237   1.765  10.900  15.364 -0.2827  0.1842  0.2157
 4384W        W23238   2.386   0.381   5.185  0.0467 -0.0737  0.0489
 4385W        W23239   2.214  11.303  12.385 -0.1821 -0.0738  0.0882
 4386W        W23240   5.571  10.281  16.525 -0.1413 -0.2006 -0.3618
 4387W        W23241   2.293   0.110  14.878 -0.1354 -0.0655  0.4315
 4388W        W23242  14.897  16.828   5.456 -0.0675 -0.0531  0.0921
 4389W        W23243  12.873  10.613  13.626 -0.3598 -0.1700  0.0149
 4390W        W23244   2.724   6.082   4.993 -0.1800  0.0058 -0.0809
 4391W        W23245  17.193  16.151  13.482 -0.1718  0.1405 -0.0250
 4392W        W23246  17.054   6.750  12.447  0.2965 -0.0101  0.0447
 4393W        W23247  15.970   9.637   4.184  0.1684 -0.0528 -0.0757
 4394W        W23248  14.320   9.353  16.676  0.1319  0.1665  0.2060
 4395W        W23249   4.869   7.452   2.193 -0.0931  0.3601  0.1588
 4396W        W23250  11.038   8.740  15.953 -0.2316  0.1600 -0.0523
 4397W        W23251  11.553   1.342  14.562  0.0403 -0.0646  0.2915
 4398W        W23252   3.130  15.412  13.175 -0.0693 -0.0401 -0.2936
 4399W        W23253  15.434   9.923  13.567  0.0508  0.5179 -0.2236
 4400W        W23254  15.563   6.172   0.713  0.1741  0.1090 -0.0471
 4401W        W23255  10.941   8.889  16.396  0.0129 -0.3003 -0.1517
 4402W        W23256   2.589  15.079  13.199 -0.1590  0.2386 -0.1212
 4403W        W23257   9.015   5.863  14.337  0.1698 -0.4006 -0.1364
 4404W        W23258   8.480   8.134   0.794 -0.1013  0.0181 -0.0665
 4405W        W23259   7.007   1.482  16.818  0.1386  0.1278 -0.0324
 4406W        W23260  13.373  10.512  13.668 -0.0338  0.2790 -0.0920
 4407W        W23261   5.261   1.030   3.367 -0.0510  0.3764  0.2899
 4408W        W23262   8.530   9.634  15.265 -0.1381  0.0561 -0.0013
 4409W        W23263  12.891  10.584  11.740  0.0767  0.0253  0.1055
 4410W        W23264  14.542  13.344  13.009 -0.0002  0.2033  0.1025
 4411W        W23265   4.174  15.373  14.627 -0.0615 -0.2216 -0.2144
 4412W        W23266   1.294   2.894  15.062 -0.0989 -0.0102  0.1952
 4413W        W23267   0.797   3.004  13.805  0.2841  0.1770 -0.2493
 4414W        W23268   1.246  11.674  14.925 -0.1786 -0.0152 -0.0790
 4415W        W23269   5.440  10.686  17.199 -0.0521  0.1116 -0.3199
 4416W        W23270   5.412   3.405  13.740  0.0806 -0.0595  0.4230
 4417W        W23271  10.732   3.570   2.969  0.1939  0.1325  0.0721
 4418W        W23272  14.278   5.320   1.685 -0.0772 -0.1680  0.0797
 4419W        W23273  10.458   2.722   1.443 -0.2862 -0.2483 -0.0605
 4420W        W23274   6.871   5.207  17.407 -0.1600 -0.0124 -0.0724
 4421W        W23275  13.622   1.848   0.038  0.3351 -0.0710 -0.1277
 4422W        W23276   9.868   1.617  15.335 -0.0719  0.1885  0.3390
 4423W        W23277   8.763   1.652  14.886 -0.0660 -0.1049  0.0465
 4424W        W23278  14.449   2.308   2.996  0.0271 -0.1383 -0.1473
 4425W        W23279  14.913  16.080   2.752  0.1521  0.4210 -0.0194
 4426W        W23280   8.387  13.883  15.546 -0.0364  0.0957  0.1572
 4427W        W23281   6.020   5.988   4.134 -0.1950 -0.0936  0.0849
 4428W        W23282   8.191   3.721   0.139 -0.0562  0.0043 -0.0643
 4429W        W23283  16.333   5.724   1.912  0.1705 -0.2153  0.3116
 4430W        W23284  10.906  15.591  13.856  0.3957  0.0960 -0.1548
 4431W        W23285   8.331   4.172  13.083  0.2308 -0.2618 -0.1280
 4432W        W23286  16.391   0.521  12.291 -0.1867  0.2548  0.0182
 4433W        W23287  10.041   2.118  15.412  0.0985 -0.0372 -0.2948
 4434W        W23288   2.731  14.239   1.081 -0.1385 -0.1883  0.0273
 4435W        W23289  15.123   4.574   0.364  0.1032 -0.0559  0.3027
 4436W        W23290  10.144   0.620  16.793 -0.0456  0.1985  0.0199
 4437W        W23291  10.322   6.701   2.556  0.1449  0.2527 -0.0564
 4438W        W23292   6.061   4.786  12.957 -0.0529  0.1238  0.0011
 4439W        W23293   2.111  15.085   2.099  0.0887 -0.1923 -0.0787
 4440W        W23294   1.076  15.938   5.027  0.2655  0.0464 -0.0540
 4441W        W23295   1.247   6.458  14.647 -0.0568  0.0125 -0.0811
 4442W        W23296  15.635  13.762   5.049  0.2040 -0.1234 -0.1002
 4443W        W23297  15.446  12.333  17.445 -0.0204  0.0127  0.0946
 4444W        W23298   7.802  15.690   1.489  0.0432  0.2285  0.1594
 4445W        W23299   9.578   1.349   0.459 -0.0412 -0.1305 -0.2548
 4446W        W23300   0.716   6.102  13.017 -0.2079 -0.0288  0.1914
 4447W        W23301   1.393   3.476   0.258 -0.1151 -0.1611  0.0675
 4448W        W23302   9.714   9.433   2.191  0.1286  0.0132 -0.0938
 4449W        W23303   2.867  10.209   3.597 -0.0659 -0.1196 -0.2509
 4450W        W23304   8.849   9.462  16.104  0.1737 -0.0407  0.2550
 4451W        W23305   9.617   0.815   1.398 -0.0752  0.3319 -0.1667
 4452W        W23306  16.761  14.528   4.670  0.0489  0.2757 -0.0830
 4453W        W23307   0.497  16.935   0.260 -0.3245  0.0437  0.0536
 4454W        W23308   0.047  11.235  15.888 -0.3376  0.1988 -0.0268
 4455W        W23309   2.438  11.682   5.390  0.1189  0.1906 -0.1675
 4456W        W23310  16.079  10.791   3.825 -0.0952 -0.2562  0.1516
 4457W        W23311   8.858   8.632   3.367 -0.3283  0.2027  0.4348
 4458W        W23312   9.658  16.249   4.321 -0.0726  0.2008  0.2056
 4459W        W23313   9.969  11.819  16.059  0.0174  0.2404 -0.0465
 4460W        W23314   8.854   5.070   1.003 -0.2471  0.0004  0.1511
 4461W        W23315   7.558  16.360  14.799 -0.3042  0.0465 -0.1348
 4462W        W23316   7.134   1.693  15.790  0.0915  0.0175  0.1758
 4463W        W23317   1.390  14.020  14.274 -0.1442  0.0879  0.2298
 4464W        W23318   1.187   3.387  17.287 -0.1318 -0.4197 -0.0924
 4465W        W23319   8.670  10.926  16.437 -0.0569 -0.1486  0.1581
 4466W        W23320  15.025  13.841  16.067 -0.2295  0.1584  0.2619
 4467W        W23321   0.650   2.063   1.162  0.0576  0.1942  0.1333
 4468W        W23322   8.437  11.793  12.297 -0.1643 -0.0303 -0.0839
 4469W        W23323   7.037   0.242   4.193  0.1884  0.2455  0.0757
 4470W        W23324   6.628  11.822   0.782 -0.0817  0.0847 -0.1342
 4471W        W23325  15.633   7.508  15.882 -0.0677 -0.0118  0.1742
 4472W        W23326   6.543   0.624   1.627 -0.0297 -0.1947 -0.0600
 4473W        W23327  12.359   4.804  14.270  0.0191  0.0450  0.2053
 4474W        W23328   4.490  14.658   1.448 -0.1101 -0.0381 -0.1958
 4475W        W23329  12.662  13.099  15.981  0.0096 -0.1862 -0.2026
 4476W        W23330   1.450  12.269  13.131  0.1827  0.1749  0.0123
 4477W        W23331   8.277  12.066   3.790  0.2148 -0.0881 -0.1370
 4478W        W23332  17.063   6.192   2.657  0.0644 -0.0072 -0.0451
 4479W        W23333   4.752   6.253  16.629  0.2813 -0.0954 -0.1904
 4480W        W23334   9.528   8.233  16.654  0.1178 -0.0531 -0.1712
 4481W        W23335  14.354   9.127  16.242  0.1807 -0.0285  0.2157
 4482W        W23336  13.520   7.515  15.776 -0.0743  0.1337  0.1461
 4483W        W23337   6.979  14.534   4.271  0.0228  0.1068  0.1320
 4484W        W23338   7.919   8.373  12.680 -0.3747  0.1933 -0.3211
 4485W        W23339   7.945   7.492   3.100 -0.3474 -0.1564  0.1905
 4486W        W23340  14.719   4.009  12.849 -0.0477 -0.0101 -0.0117
 4487W        W23341   5.068   5.211  16.770 -0.0632  0.0904 -0.1366
 4488W        W23342  16.550   7.043  16.165  0.0134  0.2253  0.3069
 4489W        W23343   7.942  13.827  15.781 -0.1567 -0.0527 -0.0786
 4490W        W23344   7.620   4.523  17.206  0.1261 -0.2866  0.0578
 4491W        W23345  14.246  16.650  13.491 -0.1460 -0.0476 -0.4996
 4492W        W23346  13.343   6.184   4.117  0.2466  0.1321 -0.0755
 4493W        W23347   1.277  16.227  17.214 -0.0625 -0.1515 -0.1241
 4494W        W23348   7.872  12.446   0.645  0.0978 -0.1556 -0.2938
 4495W        W23349  15.186   1.713   4.995  0.3664  0.3239  0.0175
 4496W        W23350   3.291  16.838  16.920  0.0168 -0.1901  0.0064
 4497W        W23351  11.405   7.792   1.702 -0.1827 -0.0773  0.0545
 4498W        W23352  12.210  12.282   0.681 -0.1567 -0.1211  0.2523
 4499W        W23353   4.820  10.455  13.655  0.2289 -0.2395 -0.2078
 4500W        W23354   3.185   8.918   0.102 -0.0677  0.0966 -0.0145
 4501W        W23355   0.917   0.546  14.087 -0.3926  0.1243  0.1364
 4502W        W23356   9.860   2.753   2.741 -0.0927  0.2586  0.0536
 4503W        W23357  12.897  12.704   0.063  0.0250 -0.0425  0.1421
 4504W        W23358   7.037  16.242   3.043  0.0971 -0.3526 -0.0462
 4505W        W23359  15.026  16.255  13.841 -0.2616 -0.1259 -0.4632
 4506W        W23360   4.942  11.620  14.337 -0.0931 -0.3154 -0.0190
 4507W        W23361   5.165   5.113  14.297  0.0406 -0.1405 -0.2508
 4508W        W23362  16.080  14.771   1.936  0.0613 -0.1435 -0.0010
 4509W        W23363  16.676  14.040  17.436  0.0508  0.2352 -0.1654
 4510W        W23364  15.278   6.937   2.636 -0.1020  0.1960  0.2080
 4511W        W23365   6.434   7.763  14.810 -0.1437  0.0682 -0.0195
 4512W        W23366  12.610   6.534  13.689 -0.0262 -0.1484  0.1369
 4513W        W23367  16.897   1.645  15.204 -0.0145  0.1759 -0.0368
 4514W        W23368   0.287  16.742   0.770  0.1321 -0.0481  0.1413
 4515W        W23369  14.820   1.859   1.596  0.0322  0.0562 -0.0304
 4516W        W23370   5.336  11.638   1.151  0.1908  0.0168 -0.1002
 4517W        W23371  10.699  17.033   2.285  0.1924  0.1074 -0.2461
 4518W        W23372   1.597   8.384  14.212 -0.1036  0.1638 -0.0195
 4519W        W23373   8.799  15.470   5.221 -0.1221 -0.1412  0.0727
 4520W        W23374   8.184   0.654  15.224  0.1233  0.0161 -0.1332
 4521W        W23375  12.635   0.277   4.888 -0.0178  0.0024 -0.2347
 4522W        W23376  13.828   2.131   2.272  0.0088 -0.1098  0.1504
 4523W        W23377  15.730  16.012   0.786 -0.1817 -0.3580 -0.1192
 4524W        W23378   3.222   3.359  16.879 -0.0445  0.1642  0.1146
 4525W        W23379   5.287   6.855   1.494 -0.0737  0.0430  0.3389
 4526W        W23380   9.974  13.923  12.338  0.0817 -0.0698 -0.4269
 4527W        W23381   5.031  17.383  12.334  0.2005  0.0609 -0.0187
 4528W        W23382  16.081   3.242   1.824  0.1061  0.0599 -0.2386
 4529W        W23383  15.178   5.756  16.293  0.1543 -0.0294  0.0403
 4530W        W23384   8.015   4.838   2.691 -0.1240 -0.0189  0.0062
 4531W        W23385   2.736  14.124   0.086 -0.0553  0.0224 -0.2721
 4532W        W23386  11.272  14.233  14.131  0.1070 -0.2682 -0.0711
 4533W        W23387  13.786  13.828  16.722 -0.1974  0.2371  0.0052
 4534W        W23388  10.830   6.714  14.057  0.0464 -0.0825 -0.4661
 4535W        W23389  17.232  14.268   4.459  0.1099 -0.2231 -0.2535
 4536W        W23390  15.843   5.465   2.931 -0.1207 -0.0822 -0.1564
 4537W        W23391   0.955   2.305  17.267 -0.2292  0.0375 -0.0771
 4538W        W23392  16.101   3.254   2.568  0.2733 -0.1752 -0.0535
 4539W        W23393   3.253   5.566  13.383 -0.0056  0.1059  0.1942
 4540W        W23394   2.473  16.435   3.821 -0.0211  0.2458 -0.0839
 4541W        W23395   9.497   2.301   0.052  0.0887  0.2217  0.0075
 4542W        W23396   3.113  14.378  15.772  0.0482 -0.0587  0.2598
 4543W        W23397   7.096   6.687  12.775 -0.0793  0.2324 -0.3512
 4544W        W23398   4.324  14.459   2.598  0.0592 -0.0739  0.0408
 4545W        W23399  16.844   2.992   3.467  0.0038 -0.1425  0.3442
 4546W        W23400   8.516   9.838  14.813  0.0329  0.0418 -0.1971
 4547W        W23401  13.162   5.650  12.606 -0.1561 -0.0499  0.0099
 4548W        W23402   8.457  14.369  16.302  0.1276 -0.1042  0.1009
 4549W        W23403   4.081   8.532   3.487 -0.2383 -0.2583 -0.2316
 4550W        W23404   8.716  12.924  15.821  0.0075  0.1004 -0.0028
 4551W        W23405   1.840   6.295  11.903 -0.1718  0.1117 -0.0348
 4552W        W23406   3.226  10.560   0.843  0.1373 -0.0986 -0.1792
 4553W        W23407   3.955  15.256  15.419 -0.3306 -0.2221 -0.0424
 4554W        W23408  10.148   4.372  14.861 -0.0173  0.0633 -0.0548
 4555W        W23409   4.355   1.543  15.677  0.2008 -0.0658  0.1629
 4556W        W23410   6.678   7.980   3.730  0.1841  0.2583  0.0324
 4557W        W23411   0.300  14.441   3.204 -0.2092  0.1032 -0.2374
 4558W        W23412   9.859   3.583  14.302  0.0986 -0.0555  0.2328
 4559W        W23413   0.713  15.495   4.972 -0.2079  0.0017 -0.0323
 4560W        W23414   7.956  11.089   5.352 -0.1038  0.0615  0.0712
 4561W        W23415  10.006   5.980   4.714 -0.1506 -0.2142 -0.3269
 4562W        W23416   2.251  12.071  16.261  0.0591 -0.2689 -0.0130
 4563W        W23417  10.749   1.363  15.311 -0.3266  0.0045 -0.1121
 4564W        W23418   4.494   6.343   4.737 -0.0030 -0.0885  0.0338
 4565W        W23419   8.651   5.743   5.108  0.0901 -0.0309  0.5598
 4566W        W23420  15.917   4.741  16.584 -0.2315 -0.1952  0.1768
 4567W        W23421  10.515   3.463  14.236  0.0134  0.3401  0.1818
 4568W        W23422  15.653   3.810  14.397  0.1372 -0.2871  0.1647
 4569W        W23423   5.848   1.410  16.186 -0.0206 -0.1891  0.0938
 4570W        W23424  15.420   2.167  16.192  0.0181 -0.0342 -0.0974
 4571W        W23425   2.426   2.450  14.887 -0.3271  0.0841  0.0709
 4572W        W23426   1.783   0.990  14.078  0.1256 -0.3685  0.1060
 4573W        W23427   1.479   5.299  13.114  0.0430  0.1430  0.1805
 4574W        W23428   6.896   7.365   2.940 -0.1077 -0.0378 -0.1218
 4575W        W23429  16.174  13.439   2.254 -0.0495  0.3001 -0.0701
 4576W        W23430   5.934   4.413   3.602 -0.2045  0.2472  0.2776
 4577W        W23431  12.600   3.804  12.340  0.1018 -0.2319  0.2917
 4578W        W23432   2.703   0.787  13.159  0.4634 -0.0054  0.0452
 4579W        W23433  13.679   3.267   0.287  0.0837  0.2995  0.3942
 4580W        W23434   0.558   7.968  16.265  0.1814  0.0208  0.0347
 4581W        W23435   3.172   3.067   1.883  0.0533 -0.2228 -0.0835
 4582W        W23436  14.981  12.492   0.100 -0.2392 -0.1455 -0.0384
 4583W        W23437   5.397   3.550   3.683 -0.1721  0.0491  0.3124
 4584W        W23438   5.077  17.342   4.279 -0.0510  0.2851  0.2057
 4585W        W23439  16.867  14.956   2.873  0.1016 -0.0408 -0.1944
 4586W        W23440   3.643   8.871   0.276 -0.1684 -0.1070 -0.0396
 4587W        W23441  16.476   0.666  15.441  0.0039 -0.0969 -0.1696
 4588W        W23442  15.016   8.068  13.172  0.2002  0.1894  0.1173
 4589W        W23443   1.019   9.644  16.338  0.1557  0.0736  0.2670
 4590W        W23444  11.787  14.446  11.569  0.0484 -0.2548 -0.1136
 4591W        W23445   8.233   1.764  16.434 -0.0990  0.3096 -0.0034
 4592W        W23446  16.908   9.128   3.770 -0.1522  0.1907 -0.1401
 4593W        W23447  15.052  15.335   5.833 -0.1694 -0.0114 -0.0753
 4594W        W23448  13.666   6.332  15.408 -0.0356  0.0389  0.0751
 4595W        W23449   4.142   0.181   2.766  0.3237 -0.0880  0.0666
 4596W        W23450  13.026   5.494  16.258 -0.0770 -0.1260  0.0821
 4597W        W23451   9.283   7.566  13.860  0.3549 -0.1417 -0.5112
 4598W        W23452   3.400   9.496   4.523 -0.0889  0.5065 -0.2028
 4599W        W23453   5.068   8.304   0.256 -0.0476 -0.1565 -0.0831
 4600W        W23454  14.157   9.619  14.365 -0.0070 -0.2947 -0.3722
 4601W        W23455   4.873   9.382  16.387 -0.1877  0.4142  0.3625
 4602W        W23456  12.246  14.666   5.636  0.0232  0.1541 -0.2565
 4603W        W23457   2.318   1.273  12.900  0.3449  0.3911  0.0687
 4604W        W23458   8.701  15.556  13.906  0.2127 -0.0357 -0.0216
 4605W        W23459  16.364   9.536  15.690  0.2591 -0.0717 -0.1543
 4606W        W23460   6.017  16.239   3.936  0.3691  0.1399 -0.2331
 4607W        W23461   3.154   3.395   4.293 -0.1277  0.1797 -0.3112
 4608W        W23462  16.877  11.247  14.302  0.1907  0.0092 -0.1610
 4609W        W23463  16.997  12.611   4.478 -0.1840  0.2641 -0.0635
 4610W        W23464   3.808   7.308  17.023  0.0216  0.1412 -0.1348
 4611W        W23465   5.935  13.383  17.450 -0.0872  0.2285 -0.0193
 4612W        W23466   5.853  13.690  17.071 -0.0652 -0.2020  0.2800
 4613W        W23467  12.617  15.264   4.203  0.0815  0.0028  0.0098
 4614W        W23468   1.006  10.681   0.368  0.0055  0.0583  0.4139
 4615W        W23469   1.764  13.653  17.248  0.3583 -0.0066  0.1672
 4616W        W23470  13.400  14.021  15.220  0.0453  0.0202 -0.0930
 4617W        W23471   0.159   4.098  16.945 -0.2259  0.0382  0.0706
 4618W        W23472   9.568  10.532   0.935 -0.1884  0.0092 -0.0090
 4619W        W23473   4.111   2.268   2.448  0.1072 -0.1420  0.1120
 4620W        W23474  12.873  13.967  15.230 -0.0670  0.0766  0.1103
 4621W        W23475   7.134   3.762  12.150 -0.0763  0.4013  0.0675
 4622W        W23476  14.772   2.804  15.899  0.1198  0.0458  0.0137
 4623W        W23477  15.465  16.952   4.653 -0.1727 -0.0465  0.2905
 4624W        W23478  11.764   9.191  15.776  0.1151  0.1641  0.0760
 4625W        W23479   0.927   5.486  12.287  0.0776  0.0629 -0.1222
 4626W        W23480   4.143   1.016  16.319  0.2448 -0.2166  0.0533
 4627W        W23481   3.945   7.388   4.708 -0.2411 -0.2682 -0.4139
 4628W        W23482  16.839  12.709  13.193 -0.0418  0.2806 -0.0355
 4629W        W23483  17.075   7.040   5.213 -0.1058 -0.0787 -0.3293
 4630W        W23484  13.392  10.742  15.858 -0.3084  0.1043 -0.0430
 4631W        W23485   5.223  11.597  17.328  0.2503  0.2258  0.0957
 4632W        W23486  15.501   9.001  16.244  0.3572  0.0968  0.0970
 4633W        W23487   0.477   5.508   4.156  0.0282  0.1080 -0.0232
 4634W        W23488  13.220   2.006  15.037 -0.1909  0.0353  0.0163
 4635W        W23489  11.638   7.011  16.126 -0.3316 -0.3246  0.0039
 4636W        W23490  15.417   5.037  16.780 -0.4390  0.2501 -0.1263
 4637W        W23491   3.900  12.664  14.440  0.0251  0.0468  0.0339
 4638W        W23492   6.276  14.475  16.792 -0.2950  0.0063  0.2638
 4639W        W23493  11.881   1.051   3.908 -0.1811  0.1640  0.1333
 4640W        W23494   2.928   2.946  13.245 -0.0117  0.0005 -0.1323
 4641W        W23495   0.741   0.906   3.125 -0.4040 -0.3323  0.0140
 4642W        W23496   3.166  10.305   3.141  0.2017 -0.0016 -0.0778
 4643W        W23497  16.475  11.038  16.819 -0.0927  0.0571  0.0827
 4644W        W23498  14.818   4.107   4.034 -0.0780  0.0252  0.3304
 4645W        W23499  11.765   6.456  16.825 -0.1890 -0.2114  0.0714
 4646W        W23500   2.230   3.397  13.569  0.2527  0.1392  0.0896
 4647W        W23501   7.183  15.299   3.874 -0.0862 -0.0716 -0.1256
 4648W        W23502   9.517   7.078  13.836 -0.0313  0.2234 -0.0158
 4649W        W23503  15.963  14.345  14.473  0.2416 -0.4733 -0.0207
 4650W        W23504   7.629  10.047  14.853 -0.1544  0.2611 -0.1496
 4651W        W23505   0.754   9.138  13.938 -0.0044  0.1439  0.0410
 4652W        W23506   6.023  16.830  12.836  0.1971  0.2954 -0.4122
 4653W        W23507  15.462   7.662  12.079  0.0393  0.0725 -0.3791
 4654W        W23508  16.518   7.456  12.369 -0.3114  0.1984  0.3105
 4655W        W23509   2.768  12.616   3.665  0.1009  0.3122 -0.0344
 4656W        W23510   5.110  10.264  15.328 -0.1734 -0.2339  0.0663
 4657W        W23511   1.280   5.264  12.638 -0.0096  0.0363  0.1159
 4658W        W23512   5.364   4.939   4.071 -0.1558  0.0453  0.4137
 4659W        W23513   8.807   4.955  14.906 -0.1791  0.0961 -0.0230
 4660W        W23514   7.222  10.902  13.183  0.1663 -0.3980  0.1793
 4661W        W23515  17.235   8.160   5.019  0.2909  0.1239 -0.2077
 4662W        W23516  11.744   2.485   0.230 -0.2813 -0.1692 -0.0445
 4663W        W23517   9.138   4.838  17.445  0.0165 -0.0325 -0.0762
 4664W        W23518   7.278   6.071  13.833 -0.2428  0.2038 -0.0264
 4665W        W23519  14.493  14.665   1.259  0.1551 -0.2656  0.1976
 4666W        W23520  11.727   8.877   2.939 -0.1839 -0.0490  0.0960
 4667W        W23521   2.773  14.079  15.496  0.4033 -0.2178 -0.1265
 4668W        W23522   0.137   4.853   3.182 -0.2642 -0.2384 -0.2377
 4669W        W23523   8.846   5.187   2.503  0.3972  0.0825 -0.3151
 4670W        W23524  11.727   8.469  17.321  0.0342  0.2082 -0.0996
 4671W        W23525   4.666   3.762  16.019 -0.4293  0.1140  0.1463
 4672W        W23526  11.289  15.707   1.141  0.2054 -0.1145  0.2259
 4673W        W23527  16.133   1.868  13.982 -0.3414 -0.2699  0.3422
 4674W        W23528  12.170  12.792   3.685 -0.1838  0.2457  0.1783
 4675W        W23529   7.921   7.665   1.184 -0.1229  0.0296 -0.0944
 4676W        W23530   3.035   1.130   3.872 -0.1122  0.3400  0.1362
 4677W        W23531  16.559   1.095  16.432  0.0516  0.0500 -0.0523
 4678W        W23532  13.066  16.413  11.317 -0.2317 -0.2631 -0.1246
 4679W        W23533  16.374   0.783  14.956 -0.0283 -0.1521  0.0812
 4680W        W23534   2.280   5.055  17.424 -0.0746 -0.0469 -0.1196
 4681W        W23535   6.528   3.126   6.362  0.1738  0.0114  0.0834
 4682W        W23536   9.197   1.556   4.618  0.0755  0.2720  0.1423
 4683W        W23537   1.843  13.352   1.875  0.0440  0.1423  0.0859
 4684W        W23538   6.269  13.237   0.763  0.2618  0.1904  0.1511
 4685W        W23539   6.273   4.200   1.447  0.3069 -0.1091 -0.1956
 4686W        W23540   4.808   9.764   5.350  0.1689 -0.1115  0.1368
 4687W        W23541  12.344  12.229   4.496  0.2150 -0.2095 -0.1402
 4688W        W23542   5.234  14.424   2.260  0.2543  0.2295  0.0014
 4689W        W23543  15.737  11.814  15.452  0.0907 -0.1046 -0.2513
 4690W        W23544  15.420   0.577  13.750 -0.2442 -0.1601 -0.3075
 4691W        W23545  15.924   5.303   3.558  0.1753  0.0048  0.0751
 4692W        W23546   0.548  10.012   0.192  0.0340  0.0650  0.0748
 4693W        W23547  10.723   8.164   2.856 -0.1791  0.1510  0.2258
 4694W        W23548  14.971   5.978   2.357 -0.0066  0.0757  0.0370
 4695W        W23549  12.290   6.477  15.586 -0.4510 -0.2117  0.0428
 4696W        W23550  10.138   4.526   5.340  0.0610  0.0224 -0.2602
 4697W        W23551   1.007  13.096  13.744  0.0969  0.1960 -0.0512
 4698W        W23552   3.319  15.834  13.922 -0.2606 -0.2134  0.1597
 4699W        W23553   6.939  12.698  13.584 -0.1981 -0.1824  0.2319
 4700W        W23554  15.790  12.672  17.032  0.0003 -0.0145  0.1955
 4701W        W23555   8.321   3.021  13.486 -0.1340 -0.1036 -0.0336
 4702W        W23556   7.022   8.357  13.751  0.4991  0.0775  0.0431
 4703W        W23557  11.665   6.461  12.472  0.3085  0.1946  0.0782
 4704W        W23558   6.724  13.582  16.670  0.1227 -0.3603 -0.1454
 4705W        W23559  12.517   1.084  14.824 -0.3343 -0.0875 -0.2274
 4706W        W23560   4.030   8.029   2.676 -0.1489 -0.2674  0.1664
 4707W        W23561   7.767   0.705  13.518  0.2993  0.1890 -0.2681
 4708W        W23562   4.057   4.354   0.002 -0.0533 -0.1981  0.3817
 4709W        W23563   2.440  10.940  16.652  0.2583  0.0716  0.0768
 4710W        W23564   7.513   4.503  12.464  0.3198  0.1033  0.5056
 4711W        W23565   9.466  16.187   3.142 -0.3549  0.0615 -0.2423
 4712W        W23566   9.691   5.191   4.920  0.0754  0.0644 -0.0336
 4713W        W23567   3.202   4.792   4.128  0.0454  0.3847 -0.0691
 4714W        W23568  14.313  13.597  14.581  0.1706 -0.2501  0.1991
 4715W        W23569   9.746   1.437  17.472  0.0358 -0.1283  0.0089
 4716W        W23570   5.307   6.774  12.603  0.3404 -0.0141  0.1634
 4717W        W23571  12.567   5.217  14.421  0.1133 -0.0403 -0.4341
 4718W        W23572  14.931  15.273   3.789 -0.0044 -0.2070 -0.0006
 4719W        W23573   5.270  13.437  16.307 -0.0658  0.2853  0.0639
 4720W        W23574   7.598   0.839  16.182  0.3368  0.0564 -0.2257
 4721W        W23575  15.229  14.723  15.760 -0.1842  0.3658  0.0833
 4722W        W23576   1.231   6.023  17.464 -0.1140  0.0642  0.0645
 4723W        W23577   1.839   9.350   0.900 -0.1361  0.1794  0.0064
 4724W        W23578   4.432   5.224   0.552 -0.2658  0.0203  0.1092
 4725W        W23579  11.077   8.684   3.067 -0.1450  0.0109 -0.0221
 4726W        W23580  12.522   0.601  13.001 -0.0914 -0.2575  0.0445
 4727W        W23581   4.011   8.009  14.149  0.1098  0.2943 -0.1160
 4728W        W23582  14.846  12.104   5.565  0.2486  0.0706  0.0094
 4729W        W23583  17.051   1.848  14.629  0.1173 -0.0591  0.2796
 4730W        W23584  17.227  13.999   5.293 -0.1134  0.0818 -0.1641
 4731W        W23585  15.379  14.272  13.148 -0.0931  0.0526  0.1392
 4732W        W23586   0.274  11.313   0.811  0.0093  0.3412 -0.2576
 4733W        W23587  14.385  10.550  13.754 -0.2465 -0.2274 -0.1116
 4734W        W23588  16.430   5.578  12.600  0.2411  0.0557  0.0472
 4735W        W23589   8.772   5.916   2.309 -0.1053 -0.1841  0.2841
 4736W        W23590   8.840  17.019   1.194 -0.0931  0.2130  0.1426
 4737W        W23591   8.784   4.188  14.796  0.0288 -0.0327 -0.3083
 4738W        W23592   6.607   7.678   2.007  0.1471 -0.0446  0.1397
 4739W        W23593   2.874  16.483   1.207 -0.0666  0.3283 -0.1857
 4740W        W23594   8.453   5.263   0.687  0.1989 -0.1412 -0.2853
 4741W        W23595   2.234   6.961   4.743 -0.0160 -0.0075  0.0791
 4742W        W23596   3.618  13.601   2.572  0.1137 -0.0977  0.3363
 4743W        W23597   8.281   5.164  12.691  0.2017  0.0261  0.3242
 4744W        W23598   3.035   3.109   3.428  0.3351 -0.0778  0.1362
 4745W        W23599  15.790  11.936  14.088 -0.1297 -0.2165  0.1677
 4746W        W23600  17.269   4.808   5.263  0.0565  0.1707  0.2311
 4747W        W23601   3.773   9.254  15.271  0.0175  0.0825  0.1167
 4748W        W23602  11.352  10.869  13.272 -0.0239  0.0606 -0.1583
 4749W        W23603  11.372  16.454   4.512  0.0363  0.2498 -0.1129
 4750W        W23604  17.138   3.056   2.440 -0.2218  0.1056 -0.3452
 4751W        W23605  10.781   2.490  13.751  0.1243 -0.2607  0.2577
 4752W        W23606  12.912  10.471   3.390 -0.1910  0.1605  0.0337
 4753W        W23607   2.266  16.937   2.971 -0.0479  0.2772 -0.5098
 4754W        W23608   3.836   3.994  13.559 -0.1264  0.1116 -0.0049
 4755W        W23609   3.529  10.817   3.261  0.0702 -0.0709  0.3103
 4756W        W23610   4.688   6.418  16.035 -0.0661 -0.0578  0.2753
 4757W        W23611  15.348   8.561  17.461  0.2731  0.0466 -0.0223
 4758W        W23612   9.514   7.490  12.295 -0.2098 -0.0284 -0.1480
 4759W        W23613  11.068   1.380   1.531  0.1032 -0.0893 -0.0496
 4760W        W23614   7.337   5.947   2.836  0.1786 -0.0770  0.0982
 4761W        W23615  16.917   9.985   4.097  0.2369 -0.2089 -0.0263
 4762W        W23616   3.692  10.628   5.226 -0.1994  0.1165 -0.0380
 4763W        W23617   3.737  14.328   1.071 -0.1687  0.1509 -0.1624
 4764W        W23618  10.933   5.139   5.160  0.0142  0.1396  0.0789
 4765W        W23619   3.990   8.274  12.698  0.0725  0.0920 -0.1866
 4766W        W23620   3.206   5.716   1.263 -0.1220  0.0737 -0.1718
 4767W        W23621  11.706  13.587   3.908 -0.1592  0.0488 -0.1049
 4768W        W23622  13.311  15.614  13.902 -0.1461  0.2686  0.2534
 4769W        W23623  14.277   1.107   5.008 -0.1443 -0.0202 -0.0964
 4770W        W23624  15.114  12.695   1.733  0.4420 -0.1298  0.1707
 4771W        W23625   1.000  13.844  15.330  0.0931  0.1200 -0.1932
 4772W        W23626  12.347   0.525   3.801 -0.2360  0.1836 -0.1030
 4773W        W23627   4.924  10.621   2.214  0.2409  0.0395  0.4071
 4774W        W23628   7.252   4.034  12.707  0.0859  0.4962  0.0409
 4775W        W23629   4.258   7.019   5.172 -0.1287 -0.1323 -0.0767
 4776W        W23630  17.238   3.158  15.369  0.3315  0.3786 -0.0689
 4777W        W23631  17.232   7.288   3.821  0.0012 -0.2504 -0.0983
 4778W        W23632  13.445   1.749   2.199 -0.0668 -0.0753  0.2850
 4779W        W23633  16.181  14.079   1.143 -0.0960  0.0891  0.4006
 4780W        W23634  10.644  11.010   2.371 -0.0791  0.1086 -0.0482
 4781W        W23635  11.047  15.614  12.261 -0.0250 -0.0487 -0.4501
 4782W        W23636  16.957  12.444   5.557  0.0330 -0.0359 -0.1821
 4783W        W23637   6.631  11.010   1.159 -0.3285 -0.0115 -0.0487
 4784W        W23638   3.484  11.765   4.120 -0.1634 -0.1085 -0.0386
 4785W        W23639   0.632  13.589  16.529  0.2792 -0.0602 -0.0045
 4786W        W23640  14.969   0.204  12.027  0.0785  0.0570  0.0160
 4787W        W23641   1.705   9.007  14.980  0.1866 -0.0512  0.0780
 4788W        W23642  10.150   9.593   0.341 -0.0925 -0.2724  0.1305
 4789W        W23643   1.840   5.024   4.123  0.1237  0.2725  0.0232
 4790W        W23644   2.818  15.470   4.785 -0.0751  0.0364  0.2096
 4791W        W23645   1.165   1.879  16.997  0.0442 -0.0948  0.3365
 4792W        W23646   3.289  12.879   1.951 -0.1975 -0.0176 -0.1931
 4793W        W23647  17.015   9.014  13.761 -0.1121  0.2443 -0.3496
 4794W        W23648  15.912   0.653  14.362  0.0952 -0.2099 -0.1632
 4795W        W23649  10.835   1.451  14.705  0.3570 -0.3024  0.0486
 4796W        W23650  12.195   1.899  12.564 -0.1123 -0.2186  0.0821
 4797W        W23651   4.541   0.920  12.438  0.4129 -0.0327 -0.0138
 4798W        W23652   1.793  13.435  13.100  0.1401 -0.1754 -0.3057
 4799W        W23653  16.022   0.652   1.411  0.1778 -0.1658  0.0038
 4800W        W23654  12.023   6.936  14.009  0.3895  0.0086 -0.0456
 4801W        W23655  16.204   6.946  14.329 -0.0972 -0.0686 -0.1382
 4802W        W23656   8.465  13.531  12.309  0.4660 -0.0579 -0.1861
 4803W        W23657  15.136  13.449   0.181  0.3109 -0.1319  0.0979
 4804W        W23658   3.052   6.727  12.481 -0.1781 -0.2124 -0.0976
 4805W        W23659  13.177  15.173  15.590  0.0052  0.0122 -0.3127
 4806W        W23660   4.787  13.076   2.721 -0.0443 -0.1129  0.0605
 4807W        W23661  15.979  14.167   5.313  0.3370  0.0049 -0.2077
 4808W        W23662   1.766   7.251  16.245 -0.1541 -0.2468 -0.0505
 4809W        W23663   2.561  14.134  13.951  0.2832  0.1913  0.1882
 4810W        W23664   5.632  10.203   0.338  0.4388  0.2472 -0.2385
 4811W        W23665   7.388   4.123  14.511 -0.0982 -0.0944 -0.0762
 4812W        W23666  16.779   4.836   2.760 -0.0093 -0.1050  0.1828
 4813W        W23667   5.544   5.298   4.807 -0.1182 -0.0100  0.0252
 4814W        W23668  11.965  13.852  14.020 -0.0796  0.0602 -0.2162
 4815W        W23669  10.422  11.277   2.781  0.1859 -0.2261 -0.0218
 4816W        W23670   3.079   7.375  12.633  0.2492  0.2109  0.1185
 4817W        W23671   7.803   1.745   3.353  0.0515 -0.1557 -0.0362
 4818W        W23672  11.841  10.256   3.614  0.1764  0.3302  0.0175
 4819W        W23673   4.682   3.342   0.291  0.1944 -0.1543 -0.0078
 4820W        W23674  11.797  14.425  12.493  0.0665 -0.0855 -0.3095
 4821W        W23675   1.130   4.695   0.848  0.1729 -0.0897  0.2227
 4822W        W23676  11.245   1.434  14.988  0.1995 -0.0912 -0.2729
 4823W        W23677  12.935  10.811  14.152  0.0421  0.0646  0.0718
 4824W        W23678   8.548  15.370   4.421 -0.3332  0.0058  0.0180
 4825W        W23679   2.528  10.696  15.778  0.1140 -0.1641  0.0555
 4826W        W23680   2.440   9.895   2.029  0.1668  0.2877  0.0667
 4827W        W23681  13.967   0.465   4.347  0.2030  0.0104 -0.0351
 4828W        W23682   8.125   0.782   5.146  0.1789  0.3834  0.0545
 4829W        W23683   6.099   0.089  16.407  0.0252 -0.4327  0.1433
 4830W        W23684   4.064   7.880   2.188 -0.0479 -0.1087 -0.1121
 4831W        W23685   9.562  14.968   1.252 -0.1888 -0.1515  0.2574
 4832W        W23686   5.104  16.113   3.704  0.0379  0.0973  0.2032
 4833W        W23687  15.851  12.912   3.118 -0.2818  0.0375  0.0025
 4834W        W23688   8.763  13.094  16.414  0.2744 -0.0277 -0.3532
 4835W        W23689  16.954   1.031   0.844 -0.0273 -0.4138  0.2790
 4836W        W23690   4.133   9.614   4.804 -0.1691  0.4093 -0.0954
 4837W        W23691   5.026  16.124  13.959  0.1771  0.2514 -0.2041
 4838W        W23692   4.257   0.117  16.241  0.1594 -0.3237  0.2617
 4839W        W23693  15.146  11.888   1.006 -0.0790  0.1487 -0.2018
 4840W        W23694   4.482  12.102   6.062  0.1023 -0.0182  0.2195
 4841W        W23695  12.629   7.475  16.321 -0.0611 -0.0076  0.1945
 4842W        W23696   1.029  11.047  14.446 -0.0268  0.2161  0.2765
 4843W        W23697  15.681   0.105   0.328  0.3698  0.0447  0.1752
 4844W        W23698  15.982  11.922  13.500 -0.1965  0.2635 -0.2096
 4845W        W23699  13.407  16.484  14.273 -0.0122 -0.1724 -0.2172
 4846W        W23700   4.355   4.993  13.801  0.2033  0.3658 -0.0167
 4847W        W23701   5.658  11.066  15.697 -0.1008 -0.3441 -0.0012
 4848W        W23702  12.636  14.074  14.739 -0.2145  0.1268 -0.2432
 4849W        W23703   2.391  15.872  14.192  0.1921 -0.1674 -0.0324
 4850W        W23704  14.512  11.814   4.438 -0.1943 -0.1892  0.0189
 4851W        W23705  16.597   2.577   3.629 -0.0492 -0.1603 -0.0593
 4852W        W23706  12.724  14.237  15.619  0.2407  0.2460 -0.1419
 4853W        W23707  11.888  16.054  12.837 -0.0260  0.0584  0.1559
 4854W        W23708  11.741   4.213  16.933 -0.0176 -0.3234 -0.3603
 4855W        W23709  13.782  12.297   1.179  0.0753  0.0906 -0.3065
 4856W        W23710   3.789  11.714  17.159  0.1486 -0.0259 -0.3881
 4857W        W23711   0.956   4.893  15.596  0.2036 -0.0637  0.0251
 4858W        W23712  14.189   3.272   3.261 -0.0906 -0.0381  0.0964
 4859W        W23713   8.787  10.549  12.246 -0.0727 -0.1236 -0.0882
 4860W        W23714  15.101   5.060  15.534 -0.0931  0.0404  0.0519
 4861W        W23715   8.951  11.602  13.944 -0.1699  0.1570 -0.1347
 4862W        W23716   4.803  12.480   3.220  0.1241 -0.1343  0.1504
 4863W        W23717   5.907   0.097   4.778 -0.0723  0.1468  0.0579
 4864W        W23718   5.434   1.444   0.788  0.3303 -0.1524 -0.0366
 4865W        W23719   8.070   1.618   4.831  0.2117 -0.0875  0.2179
 4866W        W23720  11.512  16.236   4.952  0.2450 -0.0487 -0.0649
 4867W        W23721   8.061   3.393   1.821 -0.0257  0.1926 -0.0019
 4868W        W23722  13.186   4.360   1.166  0.2052 -0.0009 -0.2289
 4869W        W23723   8.779   7.838  14.339  0.0045 -0.0288 -0.0636
 4870W        W23724   0.863  12.792   1.365 -0.1002  0.1864  0.1672
 4871W        W23725  10.472  16.342  13.690 -0.3559 -0.0516  0.1852
 4872W        W23726   5.376   3.741  16.691  0.1823 -0.1372 -0.3593
 4873W        W23727   1.857  11.470  12.752 -0.0616  0.0331 -0.3017
 4874W        W23728   0.319   2.561  14.166  0.0013 -0.1055 -0.1207
 4875W        W23729   9.633  14.508  12.961  0.0384  0.0660  0.2296
 4876W        W23730   9.145  10.559  12.938 -0.0181  0.2246 -0.1078
 4877W        W23731  13.890   8.822  13.849  0.2080 -0.1920  0.1812
 4878W        W23732   3.179   7.187  16.979 -0.1255  0.3009  0.1545
 4879W        W23733  15.401   6.147   5.612  0.1097  0.1987 -0.2300
 4880W        W23734  10.020  16.961   3.293 -0.1703  0.3890  0.0304
 4881W        W23735  11.492   8.558   2.318 -0.1960 -0.0073 -0.1511
 4882W        W23736   5.879   9.096  15.288 -0.1931  0.1391  0.3140
 4883W        W23737   4.817  11.957  14.693 -0.0082  0.1258 -0.1575
 4884W        W23738   4.652  13.495   5.657 -0.3501 -0.1224  0.0370
 4885W        W23739   2.185   5.910  11.877 -0.0814 -0.1107  0.0710
 4886W        W23740   5.635  16.420   0.473  0.3810  0.0568  0.2058
 4887W        W23741   8.739   5.270   4.974 -0.1690 -0.2788 -0.0772
 4888W        W23742  10.048   7.609   2.317  0.0482 -0.0301 -0.1009
 4889W        W23743   5.203   3.926  13.816  0.1142  0.0673  0.0901
 4890W        W23744  10.268   6.627  16.048 -0.1270  0.4419 -0.2402
 4891W        W23745   6.688   4.245  17.185  0.2656 -0.0903  0.3432
 4892W        W23746   2.245  12.448  16.780  0.0867  0.1409  0.1238
 4893W        W23747  12.793   6.205  15.812 -0.0531  0.0560 -0.3990
 4894W        W23748   5.063   7.976   5.259 -0.0383  0.0617 -0.1376
 4895W        W23749  12.884  11.683   0.216 -0.1491 -0.3098  0.1232
 4896W        W23750  16.090   0.793  16.292 -0.3658  0.0332  0.0340
 4897W        W23751   3.971   6.211  12.439 -0.3084 -0.0977 -0.3116
 4898W        W23752  14.579   6.698   4.285  0.0484  0.0200  0.2924
 4899W        W23753  16.641  14.683  16.805  0.0718  0.1471 -0.0692
 4900W        W23754   7.826   8.706  15.198 -0.0330  0.3766 -0.0261
 4901W        W23755   9.546   0.934   0.835  0.4775  0.3850  0.0185
 4902W        W23756   2.028   6.154  13.391 -0.2422  0.1156  0.0328
 4903W        W23757   6.237   4.784   2.182 -0.0745  0.4036  0.0604
 4904W        W23758   7.361  14.381   6.382  0.2906  0.1994  0.2520
 4905W        W23759   7.472   1.844   3.826  0.0600  0.2467 -0.0159
 4906W        W23760  10.193  17.271  13.902 -0.0727 -0.2572  0.0741
 4907W        W23761  14.202  13.169   2.499  0.2276 -0.2219 -0.0432
 4908W        W23762  16.532   2.427   0.308  0.1275  0.0411  0.0681
 4909W        W23763  11.013   5.868   1.871  0.1422  0.2558 -0.0469
 4910W        W23764   6.652   0.680  14.176 -0.1038  0.0135  0.0393
 4911W        W23765  15.520   3.792  17.393 -0.2323 -0.4441  0.1577
 4912W        W23766  12.863  13.797   1.476  0.0726  0.1173 -0.1055
 4913W        W23767   5.470  16.970   3.906 -0.3586  0.0078 -0.0718
 4914W        W23768   9.879   7.040   5.441 -0.1067  0.0907  0.0394
 4915W        W23769   3.006  15.385  14.588  0.3821 -0.2075 -0.0428
 4916W        W23770  11.618  13.176  12.849  0.0441 -0.0936 -0.1842
 4917W        W23771   6.940   6.235   4.230 -0.2198  0.1592 -0.2169
 4918W        W23772   7.393   8.860  15.445  0.2067  0.0801  0.2889
 4919W        W23773   2.074  12.509  12.977  0.2701  0.1990 -0.0781
 4920W        W23774  11.116  10.987   1.416  0.0979  0.0068  0.1418
 4921W        W23775  15.858  16.971  17.030 -0.3993 -0.1756  0.0770
 4922W        W23776   3.802  11.513  13.874  0.1210 -0.0728  0.2234
 4923W        W23777  11.538   7.474  12.417  0.1533  0.1284 -0.0330
 4924W        W23778   6.722  12.798   1.328 -0.3091 -0.0937  0.2936
 4925W        W23779  16.619   0.416   4.223 -0.1160  0.1168  0.1039
 4926W        W23780  11.694   1.937  13.597 -0.1662 -0.0645  0.1510
 4927W        W23781  15.219   9.642   1.442  0.0195  0.1248  0.0820
 4928W        W23782   9.371   3.979  15.610  0.1887 -0.2432  0.4867
 4929W        W23783   3.053   0.602   3.021  0.1676  0.0422  0.1292
 4930W        W23784  10.577   6.031   0.254  0.2441 -0.3454  0.1632
 4931W        W23785   6.142   2.629  17.008  0.1656  0.1247 -0.0965
 4932W        W23786   5.155  11.807  15.008 -0.0067  0.1508  0.2427
 4933W        W23787   6.180   1.630  12.994  0.0109 -0.1205 -0.2739
 4934W        W23788  16.207   6.105   2.380 -0.0070  0.1041 -0.2529
 4935W        W23789   8.250   0.964   2.877  0.4547  0.0946  0.2707
 4936W        W23790   2.233  16.510  14.980 -0.2515  0.0103 -0.1781
 4937W        W23791  11.545  16.797   2.006  0.1861  0.2107  0.1196
 4938W        W23792  15.441  11.767   3.874  0.1010  0.0272 -0.3483
 4939W        W23793   3.526  16.370  13.982 -0.0791  0.1739 -0.1722
 4940W        W23794   6.429  15.420   2.769  0.0743 -0.0554 -0.0253
 4941W        W23795   6.649  12.855   2.056 -0.0101 -0.0486  0.1563
 4942W        W23796   8.427  15.124  13.914 -0.0518  0.0127 -0.1906
 4943W        W23797  17.219   3.028   2.969 -0.0064 -0.1544  0.3394
 4944W        W23798  14.908   8.402  17.315 -0.0173  0.3061  0.1220
 4945W        W23799   6.388   8.908  12.644  0.3174 -0.2585 -0.1626
 4946W        W23800   5.178  12.758  13.727 -0.2931 -0.0773  0.0420
 4947W        W23801   5.328  16.917   3.378 -0.0198 -0.4115 -0.1554
 4948W        W23802  12.480   5.279  12.546  0.1097  0.2473  0.0337
 4949W        W23803   1.483   3.839  12.493 -0.3026 -0.0408 -0.0891
 4950W        W23804   9.260   0.539   1.116 -0.2105  0.0645  0.0064
 4951W        W23805   3.217   6.559  13.237  0.1746 -0.3427 -0.2460
 4952W        W23806   1.831  11.747   2.713 -0.2476 -0.2499 -0.0908
 4953W        W23807   1.389   5.537  13.941 -0.1071 -0.1034 -0.0160
 4954W        W23808   2.261   8.755   0.064 -0.2368 -0.1293 -0.1775
 4955W        W23809   9.179   3.279   3.354 -0.3516  0.2643 -0.0429
 4956W        W23810   9.815   4.227  17.194 -0.0889  0.1643  0.0736
 4957W        W23811   0.406   4.312  14.717 -0.0173 -0.0695 -0.0991
 4958W        W23812  12.309   0.379  17.160 -0.0101 -0.0247  0.1184
 4959W        W23813   8.952  14.792   3.667  0.1345 -0.0486 -0.0897
 4960W        W23814  11.770   6.543  17.332 -0.1142  0.1820 -0.1819
 4961W        W23815  15.917  16.445   4.991  0.1021 -0.1021 -0.0680
 4962W        W23816   6.521   1.860  14.798  0.0083  0.1184  0.0903
 4963W        W23817   7.658   6.024   3.455 -0.1669 -0.0700 -0.2215
 4964W        W23818  17.324  14.745   4.621  0.2408 -0.1303 -0.1625
 4965W        W23819   0.003   1.260   0.634  0.0440  0.1506  0.1191
 4966W        W23820   8.214   6.899   3.911 -0.1069  0.2774  0.1108
 4967W        W23821   8.289   0.173   2.862  0.3422  0.0557 -0.2547
 4968W        W23822   6.016   6.948  16.415  0.1894  0.0551 -0.0245
 4969W        W23823   6.923  17.051   4.554  0.0090  0.0597 -0.1870
 4970W        W23824   1.596  16.121  15.734 -0.2194  0.2959  0.0249
 4971W        W23825  16.237  17.316   2.060  0.1154 -0.2119 -0.1280
 4972W        W23826   6.518   8.959   0.969  0.2584  0.1102 -0.0294
 4973W        W23827   7.851   7.201   5.104  0.0562 -0.1768 -0.1748
 4974W        W23828   8.368  13.770   1.533  0.0998  0.0045  0.1510
 4975W        W23829  15.917   9.458  12.440  0.0417 -0.1796 -0.1525
 4976W        W23830   8.798  13.979  15.251 -0.0146 -0.0224  0.1207
 4977W        W23831   1.017  11.760  14.336  0.1018  0.2713  0.1295
 4978W        W23832   8.503  16.001  16.706  0.0673 -0.0796  0.0424
 4979W        W23833   1.816   0.256   5.213 -0.2026  0.1115 -0.2579
 4980W        W23834  16.520   3.299   4.388  0.3122  0.0616 -0.2453
 4981W        W23835  12.272   7.416   2.135  0.1771 -0.2051 -0.0333
 4982W        W23836   9.845  10.080   2.606  0.0446 -0.2403  0.1307
 4983W        W23837   5.997  14.190   2.738 -0.0888 -0.3010 -0.0954
 4984W        W23838  13.161   1.496   4.712 -0.4072 -0.0814  0.1250
 4985W        W23839   0.890   6.373  14.976 -0.3501  0.1818  0.0635
 4986W        W23840   3.858  12.492   4.241  0.0034  0.0473  0.1353
 4987W        W23841   0.057  10.613  14.075 -0.1637  0.0135 -0.1968
 4988W        W23842   1.086  16.713  14.921 -0.3414 -0.2265  0.2418
 4989W        W23843  12.045  15.403   0.773 -0.1860  0.1069  0.0512
 4990W        W23844  12.894  16.955   0.773 -0.1511  0.1711 -0.2955
 4991W        W23845  10.001  15.741   0.502  0.1309 -0.1924  0.0804
 4992W        W23846   2.792   1.626   4.035 -0.0402 -0.1582  0.0359
 4993W        W23847   4.268   0.323  14.604 -0.0311  0.0179  0.4041
 4994W        W23848   4.745   5.011  17.188 -0.0463 -0.2422 -0.3604
 4995W        W23849  14.605  17.391  12.327  0.0884 -0.1569 -0.2630
 4996W        W23850   2.693  13.993   0.570 -0.1639  0.1034  0.0047
 4997W        W23851  16.130   7.563   3.320 -0.0917  0.1322  0.3909
 4998W        W23852  14.460  11.596   3.534 -0.0525  0.1264 -0.2096
 4999W        W23853   4.593  16.992  13.716 -0.1729 -0.0997  0.1063
 5000W        W23854  11.795   3.501   0.211 -0.0367 -0.1219 -0.4165
 5001W        W23855  11.364  13.021  13.963  0.3153  0.1878  0.1279
 5002W        W23856   0.135   7.836   2.083 -0.1138 -0.4204 -0.0804
 5003W        W23857   6.333   8.270   4.207  0.0694  0.2650 -0.0757
 5004W        W23858   9.492  15.795  15.108  0.0183 -0.2375  0.1793
 5005W        W23859   6.684   2.984  14.801 -0.1690 -0.0999  0.0514
 5006W        W23860  11.978  12.349  13.801  0.0294  0.0757  0.1671
 5007W        W23861   6.531  15.423  14.865 -0.0580 -0.1134  0.0460
 5008W        W23862   3.689   5.036  17.176 -0.2911 -0.2142 -0.3546
 5009W        W23863  15.164   8.202   0.272  0.1041 -0.6389 -0.0503
 5010W        W23864  14.520   8.521   1.190 -0.4601 -0.2165 -0.0297
 5011W        W23865   0.257  11.119   4.911 -0.0685  0.1518  0.0936
 5012W        W23866   9.027   2.998   1.947  0.2935  0.0438  0.0187
 5013W        W23867   6.763   0.784   2.045 -0.2116  0.2300 -0.0495
 5014W        W23868  14.751  16.022   5.331  0.0439 -0.2283  0.0474
 5015W        W23869   6.296   8.369  13.221 -0.0160 -0.1738  0.2535
 5016W        W23870   6.279   0.366  17.444 -0.0459 -0.1321 -0.2191
 5017W        W23871   2.733  13.739  14.523  0.0845  0.0359 -0.0662
 5018W        W23872  10.299   0.629   4.103 -0.2230  0.0954 -0.1091
 5019W        W23873   3.530  11.339  15.833  0.1088 -0.0047 -0.3221
 5020W        W23874   9.644   4.978   2.688  0.1780 -0.1330 -0.3208
 5021W        W23875   5.254  14.278   1.736  0.6208  0.1798  0.1106
 5022W        W23876   6.835   6.168   3.213 -0.2966  0.1133  0.0804
 5023W        W23877   5.685   1.835   3.081  0.0512  0.0156 -0.0103
 5024W        W23878   2.357   8.432  14.447  0.0152  0.1424  0.0251
 5025W        W23879   6.891   2.099  15.042  0.0846 -0.0949 -0.0360
 5026W        W23880  14.944   6.690  14.932 -0.0176  0.1306  0.3569
 5027W        W23881  11.139  12.133  14.258  0.2642  0.0587 -0.3527
 5028W        W23882  11.611   9.264  14.097  0.2793  0.2616 -0.0843
 5029W        W23883   5.603  17.093  12.005 -0.2536 -0.0925  0.0557
 5030W        W23884  11.262  12.573  15.330 -0.2400  0.1823  0.2763
 5031W        W23885  14.162  15.213  16.103 -0.1506 -0.2863  0.0848
 5032W        W23886   2.499   3.735   0.959 -0.3766  0.0493  0.0018
 5033W        W23887   6.776  14.095  16.636  0.0085  0.1013  0.3383
 5034W        W23888   8.418  11.872  16.198  0.1521 -0.0926 -0.3054
 5035W        W23889  15.566   5.314   0.673  0.1087 -0.2626 -0.0626
 5036W        W23890   6.643  15.665   2.376 -0.1517 -0.3215  0.1211
 5037W        W23891  17.343  12.778  17.096 -0.0875 -0.1659  0.0834
 5038W        W23892   3.766  15.180  14.417  0.1608  0.2700 -0.0603
 5039W        W23893   3.094  12.820  13.752 -0.1675  0.0977  0.1041
 5040W        W23894   7.491   5.043  16.859 -0.2192  0.3816 -0.0314
 5041W        W23895   5.696   5.748   4.797  0.0812  0.1725  0.3868
 5042W        W23896  16.635   8.106  16.802 -0.1587 -0.0411 -0.2189
 5043W        W23897   8.456  12.268  16.605 -0.0303 -0.0633 -0.0050
 5044W        W23898   3.459  12.303   3.973 -0.1917 -0.2319 -0.1593
 5045W        W23899   8.786   2.739  14.659  0.0642  0.0459 -0.1407
 5046W        W23900   2.730   0.076   1.081  0.0341  0.1764  0.1281
 5047W        W23901  13.119   7.052   1.757  0.2037  0.0095 -0.0869
 5048W        W23902   4.146  13.244   1.917 -0.0831  0.2615 -0.0723
 5049W        W23903   9.232   6.062   1.927  0.0029  0.0598  0.2079
 5050W        W23904   9.640   2.868  15.390 -0.1146  0.3652 -0.1328
 5051W        W23905  11.627  16.087   1.918 -0.0480 -0.1877  0.1843
 5052W        W23906   2.922  10.897   3.042  0.1345 -0.1212  0.4662
 5053W        W23907   1.164  17.094  14.571 -0.2193 -0.1310  0.2143
 5054W        W23908   9.172  10.121   3.959 -0.0799  0.1210  0.0230
 5055W        W23909  15.236   4.550   4.999  0.1728  0.1283 -0.1715
 5056W        W23910  10.143   5.272   2.238 -0.0961  0.3130 -0.1095
 5057W        W23911  14.023   7.265   4.566 -0.1819  0.1586 -0.0831
 5058W        W23912   5.458   8.921   2.376  0.0699 -0.1953 -0.0037
 5059W        W23913  12.739  15.077  14.843 -0.0012  0.0121  0.1818
 5060W        W23914  14.482   4.126  14.031 -0.0737  0.1331  0.3517
 5061W        W23915   5.746  13.733  13.254 -0.0027  0.1593  0.2434
 5062W        W23916   6.019   5.743   0.257 -0.1332  0.0305  0.0237
 5063W        W23917   3.524   1.592   3.045  0.2487  0.1918 -0.1382
 5064W        W23918   4.754   1.805  15.686  0.1331  0.0247 -0.1820
 5065W        W23919   1.516   6.834   2.227 -0.2298 -0.0986  0.1809
 5066W        W23920  13.620  17.002   2.448 -0.2846 -0.1353 -0.1120
 5067W        W23921   8.950   3.074   4.210 -0.5498  0.0540  0.1817
 5068W        W23922  12.084  10.030   0.832 -0.2797  0.1178 -0.2598
 5069W        W23923  11.192   9.981   0.504  0.0888  0.0967  0.1971
 5070W        W23924  15.438   5.993   2.929 -0.0976  0.2796  0.1014
 5071W        W23925   8.811   6.576  13.444  0.0020  0.3699  0.0781
 5072W        W23926   0.604   5.902  12.307  0.1454 -0.0078 -0.1473
 5073W        W23927   7.951  16.252   3.510 -0.3572  0.0043 -0.2276
 5074W        W23928   5.317  16.793   4.990 -0.2114  0.4332  0.0108
 5075W        W23929  15.331  16.815  17.098 -0.1040 -0.1317  0.1468
 5076W        W23930   5.644   8.865  11.511 -0.2205 -0.2324  0.0494
 5077W        W23931   2.514   5.962  14.707 -0.0275  0.2052 -0.0404
 5078W        W23932   6.608   3.391  15.110 -0.0804 -0.2300 -0.1179
 5079W        W23933  12.610   8.910  16.989  0.1578  0.0390 -0.1770
 5080W        W23934  12.964   8.481  12.507  0.1378  0.1781  0.0580
 5081W        W23935  11.431   4.005  14.412  0.0109 -0.1371  0.2538
 5082W        W23936  17.307   3.420  12.971 -0.0564  0.1952 -0.0315
 5083W        W23937   9.006   6.607  16.996 -0.0442  0.0547  0.0291
 5084W        W23938  15.702   2.076   3.474 -0.0912 -0.0744 -0.1378
 5085W        W23939  12.696  13.744  15.596 -0.0562  0.1279 -0.1795
 5086W        W23940   0.357  15.206   4.885 -0.1503  0.4391 -0.1863
 5087W        W23941   0.726   4.959   0.524  0.2361 -0.0274 -0.0673
 5088W        W23942  10.839   5.309   0.752  0.3133  0.2334 -0.2862
 5089W        W23943   5.646   9.062  16.094 -0.3268  0.2179 -0.0787
 5090W        W23944   4.310   1.841   3.495 -0.0499  0.0797 -0.2753
 5091W        W23945  10.123   1.119   2.515  0.1707 -0.0694 -0.0228
 5092W        W23946   3.117   0.153  15.043 -0.2367 -0.1585 -0.5363
 5093W        W23947   3.915   6.725  13.888  0.1013 -0.0484 -0.0950
 5094W        W23948   8.814   1.731   0.284  0.0131 -0.2164 -0.4839
 5095W        W23949   2.436  15.224  16.544 -0.0471  0.0483 -0.0457
 5096W        W23950  16.453  13.248   1.718  0.2562 -0.1310  0.2750
 5097W        W23951  15.371   3.953   1.217  0.0419 -0.0703 -0.0592
 5098W        W23952  15.307  17.019   5.122  0.2241  0.0699  0.1037
 5099W        W23953  14.019  12.122  17.368  0.1751  0.4734  0.2369
 5100W        W23954   0.170   2.279  12.773  0.1503 -0.0027 -0.1214
 5101W        W23955   0.645  13.616   0.607  0.3590  0.4481  0.1743
 5102W        W23956  15.600  13.285   3.390  0.3060 -0.1635  0.1915
 5103W        W23957  13.786   0.626   0.776 -0.0190 -0.1799  0.2187
 5104W        W23958   9.400   6.203  15.378  0.0251 -0.2150 -0.0661
 5105W        W23959  13.817  14.353   2.992  0.0686  0.1082  0.0206
 5106W        W23960   0.894   1.812   3.665 -0.1264  0.0949 -0.0105
 5107W        W23961  11.822   9.749   3.664  0.0949 -0.1022  0.1061
 5108W        W23962   7.591   2.766  16.452 -0.3671 -0.0473 -0.0359
 5109W        W23963   6.072  11.251   5.380  0.0568 -0.0345  0.0442
 5110W        W23964  16.207   1.493  13.430 -0.0513 -0.2191 -0.0967
 5111W        W23965   1.882   3.694  15.616  0.2043 -0.0590  0.0124
 5112W        W23966   6.236   5.948  12.267  0.1117  0.1374  0.1624
 5113W        W23967   2.267   2.727  16.101 -0.1248  0.1571 -0.0580
 5114W        W23968  13.155   5.139   3.112  0.0250 -0.4007  0.0152
 5115W        W23969   9.596   2.918   3.271 -0.0585 -0.1450  0.1665
 5116W        W23970  13.191   1.360   0.419  0.0087  0.1481 -0.0594
 5117W        W23971   3.978  13.668  14.532 -0.1348 -0.3145  0.1487
 5118W        W23972  14.095   5.568   3.594  0.1279 -0.0593  0.2672
 5119W        W23973   0.204  15.368   0.501 -0.2172 -0.1249  0.0108
 5120W        W23974   2.644   1.116   4.707  0.0863  0.5273  0.1455
 5121W        W23975   2.860   5.592   3.944  0.0066 -0.1251 -0.0968
 5122W        W23976   2.501  11.620   4.393  0.2018  0.0467  0.0381
 5123W        W23977  14.720  13.548  16.476  0.2237  0.3312 -0.0416
 5124W        W23978   4.471  17.212  16.680 -0.0704  0.0503 -0.0233
 5125W        W23979  16.429  16.201  15.820 -0.3410 -0.1774  0.1896
 5126W        W23980   3.341  10.026  17.027 -0.0656  0.1712  0.1318
 5127W        W23981   5.610  11.394   2.049  0.1052 -0.1820 -0.1406
 5128W        W23982  16.932   9.325  17.302 -0.2170 -0.0382 -0.0376
 5129W        W23983   0.726   9.471  14.885  0.3211  0.2507 -0.1635
 5130W        W23984   6.567  11.941   3.800 -0.1462  0.0363 -0.2574
 5131W        W23985  10.645   9.097  13.868 -0.0795  0.1051 -0.2852
 5132W        W23986   3.583  12.929   1.252 -0.1935 -0.1335  0.1391
 5133W        W23987  15.508   2.234   0.652  0.2671 -0.2978 -0.0135
 5134W        W23988   7.663  14.693  13.439  0.3395  0.1730 -0.3115
 5135W        W23989  13.010   0.620  13.272  0.4049  0.0030  0.0481
 5136W        W23990   3.332  16.842   3.699  0.1018 -0.1696 -0.3052
 5137W        W23991  11.162   2.021   0.794  0.1490  0.1332 -0.0128
 5138W        W23992  10.456   8.635  16.560 -0.1554 -0.1971  0.0859
 5139W        W23993   7.403   7.050  16.293  0.3718  0.1365 -0.1857
 5140W        W23994   5.144   4.770  15.376  0.2796  0.3524  0.3333
 5141W        W23995  11.331  15.457  14.319 -0.0533  0.1581 -0.1052
 5142W        W23996  10.515   4.806   3.954 -0.0236 -0.0487 -0.0825
 5143W        W23997  12.986  16.440   0.955 -0.1852 -0.1395  0.1926
 5144W        W23998   5.659  15.835  12.503 -0.0393  0.1529 -0.1170
 5145W        W23999  10.172  16.722  13.780 -0.0750  0.0818 -0.0367
 5146W        W24000  15.131   4.877   5.480 -0.0970 -0.2911  0.1151
 5147W        W24001   6.206  15.726  12.583 -0.2570  0.2651 -0.0724
 5148W        W24002   1.567   3.461   4.410  0.0631 -0.2270 -0.0592
 5149W        W24003   8.728   6.222   1.856 -0.2993  0.2833 -0.1880
 5150W        W24004  11.624   3.545  14.149 -0.0443 -0.1495  0.0145
 5151W        W24005   7.653  10.679   1.267 -0.0670 -0.1418  0.0090
 5152W        W24006   8.056   8.024   3.704 -0.3027 -0.0969 -0.1355
 5153W        W24007   1.331  14.430  13.718 -0.2213  0.0238  0.0410
 5154W        W24008   9.781   4.148   1.790  0.2539 -0.2312 -0.0680
 5155W        W24009   1.094  14.199  11.879  0.1480  0.0559 -0.0222
 5156W        W24010   8.360  10.165  16.208 -0.1774  0.0760  0.1809
 5157W        W24011  14.431  15.859  16.216 -0.1794  0.0770  0.4406
 5158W        W24012   8.171   9.501  12.220  0.1078  0.1945  0.2331
 5159W        W24013  10.867  17.295   1.586 -0.2312 -0.1270 -0.0662
 5160W        W24014  14.019   3.452  15.227 -0.0248 -0.2320 -0.0443
 5161W        W24015   7.720  10.716   1.790 -0.0398 -0.2190  0.0180
 5162W        W24016  12.912   4.564  12.721 -0.0534  0.0089 -0.1226
 5163W        W24017  10.632  15.490   1.827 -0.1019 -0.2335 -0.0408
 5164W        W24018  14.530  14.412  16.346  0.1127 -0.1120 -0.1004
 5165W        W24019  12.186  11.919   1.191 -0.2792  0.0456  0.1750
 5166W        W24020  11.524   7.524  15.330 -0.0680 -0.5490 -0.0248
 5167W        W24021   9.002   9.783  15.097  0.1366  0.0900  0.2408
 5168W        W24022   9.932  13.400  13.992  0.1702  0.1904  0.1822
 5169W        W24023   0.780   8.665  14.550  0.0135 -0.0428  0.3190
 5170W        W24024  13.199  13.453   3.296 -0.3277  0.0211  0.0005
 5171W        W24025  10.521  13.329  16.305 -0.2085  0.0283  0.0163
 5172W        W24026  15.579   7.856  16.239 -0.0830  0.1611  0.0070
 5173W        W24027  14.227  13.168   1.118  0.0389 -0.1463  0.2600
 5174W        W24028   4.385   2.933   0.286 -0.3540  0.0250 -0.0339
 5175W        W24029   6.503  11.198  17.223 -0.0093  0.1263  0.0276
 5176W        W24030  10.752   6.131  13.931 -0.0753 -0.0375  0.0959
 5177W        W24031   5.048   2.167   1.059  0.3680 -0.0916  0.3175
 5178W        W24032   1.163   6.249   1.092  0.0946 -0.2268 -0.1082
 5179W        W24033  11.946   1.307  16.615  0.1512 -0.2723  0.1942
 5180W        W24034   8.239   6.910   1.664 -0.1493  0.0198  0.2103
 5181W        W24035  15.706   1.461   0.537 -0.0909 -0.2498  0.1357
 5182W        W24036  16.460  11.759  14.218 -0.1102 -0.1078  0.0663
 5183W        W24037   5.325  13.273   2.397 -0.0344 -0.0382 -0.3275
 5184W        W24038  13.681   3.495   4.531  0.2513  0.0813  0.1167
 5185W        W24039   1.578   2.429  12.929  0.0495 -0.0065 -0.0160
 5186W        W24040   9.544  17.328   2.716  0.0794  0.0033 -0.0509
 5187W        W24041   1.713  13.270   3.731 -0.3181  0.0839  0.1358
 5188W        W24042   1.522   1.626   4.229  0.2124  0.2114 -0.1674
 5189W        W24043   7.004   3.682  15.197 -0.0609  0.1037 -0.0335
 5190W        W24044  16.602  10.830   3.756 -0.3608  0.1688 -0.0160
 5191W        W24045  11.893  13.484  16.677  0.0517  0.0388  0.2067
 5192W        W24046   4.821  14.696  14.658 -0.2979  0.1234 -0.1947
 5193W        W24047   7.320   9.081   2.062  0.0471 -0.0369  0.1973
 5194W        W24048  16.539   6.401   2.819  0.0013 -0.1514  0.1777
 5195W        W24049   7.222   0.983   2.566  0.2304 -0.2774  0.0194
 5196W        W24050   8.066   6.255  12.760 -0.1284 -0.0066 -0.0894
 5197W        W24051   3.883  15.176   1.194 -0.0837  0.1322 -0.0749
 5198W        W24052   7.093   7.602   4.465  0.0477 -0.2313 -0.0535
 5199W        W24053   3.529   3.572  12.675  0.1674  0.1199  0.0029
 5200W        W24054  16.761   9.831  16.208  0.0031  0.0262 -0.0434
 5201W        W24055   2.405   2.724  17.454 -0.3937  0.0627  0.0027
 5202W        W24056  10.506  14.883  14.555 -0.1289 -0.0292  0.3312
 5203W        W24057  16.386  14.586  14.679 -0.0143  0.0268 -0.0122
 5204W        W24058   9.822  12.200   0.379 -0.1713 -0.1057  0.0864
 5205W        W24059   2.669   1.641   0.727  0.1303  0.0914  0.2245
 5206W        W24060   9.269  15.453   4.291  0.0175  0.0777  0.0509
 5207W        W24061   2.891   7.654   0.648  0.3787  0.0156 -0.0151
 5208W        W24062  11.119  13.975   4.314  0.0109 -0.1994  0.2143
 5209W        W24063   3.633   3.756  15.961 -0.0869  0.2008 -0.1440
 5210W        W24064   8.253   7.728  15.170  0.1275 -0.1700  0.1210
 5211W        W24065   3.881  13.956   1.416  0.0508  0.0629 -0.0389
 5212W        W24066   7.883   7.977  14.730 -0.1899  0.0636 -0.1436
 5213W        W24067   7.041   9.250  13.159 -0.2590  0.2117 -0.1341
 5214W        W24068   5.965   5.216   0.225  0.0839  0.0181 -0.0482
 5215W        W24069   3.418  10.339  15.461 -0.2146 -0.1822  0.1945
 5216W        W24070  11.714  10.746  15.245  0.1345 -0.1646 -0.0055
 5217W        W24071   4.000   6.558   0.714  0.0683 -0.0531  0.0731
 5218W        W24072   2.663   5.451  13.486 -0.0280 -0.3048  0.2498
 5219W        W24073   4.216   7.097  16.406 -0.1613  0.0599 -0.2767
 5220W        W24074   9.413   0.566   4.536  0.0914 -0.0397 -0.0841
 5221W        W24075   2.852   2.180  15.308 -0.3730 -0.2620 -0.0055
 5222W        W24076   6.131  11.086   1.098 -0.0575  0.5408  0.1392
 5223W        W24077  12.775   1.806  14.798 -0.0262  0.3993  0.2120
 5224W        W24078   0.227  13.374  16.276 -0.0811 -0.0711 -0.3624
 5225W        W24079   6.572   5.174  14.872  0.2910 -0.0141 -0.2236
 5226W        W24080   0.955   5.697  14.096 -0.1946  0.2422  0.2382
 5227W        W24081   8.556  14.559   0.245 -0.1717 -0.2303  0.2461
 5228W        W24082  15.850  12.152  17.231 -0.0211  0.1363 -0.2840
 5229W        W24083  16.775   0.787  17.192  0.1315 -0.0657  0.0052
 5230W        W24084   3.771   6.899   1.010  0.2022 -0.2139 -0.2430
 5231W        W24085  14.232   1.508   0.549 -0.2414 -0.1383  0.2151
 5232W        W24086   5.587   0.204  16.285  0.2446  0.1233 -0.2533
 5233W        W24087   1.464   2.300  15.351 -0.0643 -0.0004 -0.0792
 5234W        W24088  17.106   0.462  17.005  0.0014 -0.3080  0.2058
 5235W        W24089  10.416   3.243   3.835 -0.2843  0.0216  0.3534
 5236W        W24090  12.801   6.531   0.531 -0.1227 -0.0470 -0.2018
 5237W        W24091   2.290   1.956  12.666 -0.0053  0.0614 -0.1000
 5238W        W24092   9.447   3.047   1.423 -0.2034 -0.1971  0.3416
 5239W        W24093   1.340  15.200  14.247  0.1316  0.0781  0.0485
 5240W        W24094  13.696   9.510  15.452  0.0878 -0.1316  0.2251
 5241W        W24095  11.681  10.149   2.616 -0.0743 -0.0693 -0.1059
 5242W        W24096   6.012   7.565  14.243 -0.0895 -0.3939 -0.0576
 5243W        W24097   1.820   5.879  12.966  0.0625  0.0709 -0.0447
 5244W        W24098   6.867  14.338   2.350 -0.0273 -0.1079 -0.1166
 5245W        W24099   1.516   4.133   3.733 -0.1483  0.0175  0.1190
 5246W        W24100  13.444  10.777   5.292  0.1094 -0.3195  0.0194
 5247W        W24101   4.904   6.402   0.367 -0.1435  0.3121 -0.1041
 5248W        W24102  16.324   2.737  13.216 -0.3287  0.2582 -0.0041
 5249W        W24103  14.506   7.448  14.873  0.0313  0.2524 -0.0436
 5250W        W24104  12.314   4.787   0.013  0.2326 -0.1436 -0.0693
 5251W        W24105  10.428  12.617   3.715  0.0364 -0.0065 -0.1987
 5252W        W24106  13.836   6.117  13.122  0.1958 -0.1953  0.2794
 5253W        W24107  13.074   3.921  15.416 -0.0407 -0.0848 -0.0635
 5254W        W24108  13.183   4.155  14.552  0.1067  0.2496  0.1923
 5255W        W24109  15.510  16.306  14.658 -0.3496  0.3664  0.0836
 5256W        W24110   8.002  16.092   2.527  0.0079 -0.0350 -0.2246
 5257W        W24111  13.586  10.766   3.887 -0.1522  0.3521  0.0357
 5258W        W24112   4.402  12.695  16.811  0.2371  0.0795  0.0832
 5259W        W24113  16.802  11.494  13.324  0.0101  0.2258 -0.1060
 5260W        W24114  15.058  10.107  13.889  0.0311  0.2878  0.1217
 5261W        W24115   6.668   4.923  16.614 -0.0567 -0.0766 -0.1663
 5262W        W24116   7.403  12.276  14.791  0.2297 -0.3325  0.1232
 5263W        W24117   7.424  14.483  15.373 -0.0313 -0.1375 -0.1107
 5264W        W24118  17.273  12.978   2.814  0.2491  0.1356  0.0721
 5265W        W24119  13.294  10.592   1.661  0.0664  0.1855 -0.3718
 5266W        W24120   1.574   4.601  13.739  0.1411  0.0311  0.0080
 5267W        W24121   0.947   0.583  14.655 -0.1437  0.0628  0.0765
 5268W        W24122   2.720   4.008  15.069  0.0182  0.3935  0.2686
 5269W        W24123  17.061   9.969  15.672 -0.0431  0.4866 -0.0626
 5270W        W24124  16.031   4.450  13.039  0.2146 -0.2133  0.0893
 5271W        W24125   2.466   9.665  16.077 -0.1815  0.3227 -0.0842
 5272W        W24126  16.996  16.937  16.595 -0.3114  0.2670  0.1319
 5273W        W24127  15.559   7.630   4.644  0.0897 -0.1058  0.1266
 5274W        W24128  14.081  15.446  14.514 -0.0190  0.1749 -0.3616
 5275W        W24129  12.794   0.340   1.836 -0.1359  0.0746  0.0850
 5276W        W24130  15.968   5.796  12.667 -0.1940  0.1155 -0.0161
 5277W        W24131  10.000   9.585  13.254  0.0658 -0.0150 -0.1335
 5278W        W24132  12.573   9.322  11.971 -0.0432 -0.1324  0.1279
 5279W        W24133  14.213  14.733   2.275  0.2141 -0.1489  0.0678
 5280W        W24134  17.033  14.595   3.677  0.0561 -0.0880 -0.0589
 5281W        W24135   0.441  11.212  16.277  0.0236 -0.0256 -0.2139
 5282W        W24136   0.581   4.393  13.409 -0.0410 -0.1589 -0.1280
 5283W        W24137   3.412   8.833  16.138 -0.0485 -0.1146 -0.0480
 5284W        W24138  14.663   0.084   1.589 -0.3019  0.1609 -0.1174
 5285W        W24139   4.436   1.093   0.128 -0.1155 -0.0646  0.3825
 5286W        W24140  13.773   9.320  14.050 -0.4952  0.2413 -0.0838
 5287W        W24141  11.092   9.645  17.374  0.1437  0.1407  0.1417
 5288W        W24142   7.464   8.973   1.599 -0.2182  0.0159 -0.0395
 5289W        W24143  15.010  17.079  13.596  0.0322  0.1690 -0.2099
 5290W        W24144  13.311   7.438  12.690 -0.0288  0.3257  0.0874
 5291W        W24145   0.085   5.653  13.377  0.3453  0.2484 -0.0579
 5292W        W24146  14.450  16.849   2.308 -0.0634 -0.0879 -0.1196
 5293W        W24147  10.599   9.017   0.479  0.0734  0.0731  0.2038
 5294W        W24148  16.673  16.046  16.318  0.2225  0.5020  0.3479
 5295W        W24149  10.116   8.509   2.033  0.0994 -0.2204  0.2361
 5296W        W24150   2.890  17.040  16.699 -0.0623 -0.0617  0.0239
 5297W        W24151  10.172  14.067   1.248  0.0943 -0.1729  0.2849
 5298W        W24152   5.923   5.936  15.084 -0.1130 -0.3418 -0.1396
 5299W        W24153   7.375   2.423  14.219 -0.1700 -0.0421 -0.2137
 5300W        W24154   7.972   7.510   3.687  0.1575  0.1205  0.3030
 5301W        W24155  15.554  12.256   3.281  0.1702 -0.0449 -0.1478
 5302W        W24156   3.570   2.284  12.898  0.0237 -0.0751  0.2253
 5303W        W24157  12.856   0.749   2.853 -0.2103 -0.1397 -0.3257
 5304W        W24158  10.030  11.125  14.664 -0.0227  0.0666 -0.0040
 5305W        W24159  16.238   7.418  14.521 -0.0471  0.1825 -0.1263
 5306W        W24160   6.091   2.965   0.760 -0.1151  0.1517  0.1026
 5307W        W24161  16.748   6.710  16.540 -0.1026  0.1833 -0.2520
 5308W        W24162   0.803  10.175   4.472 -0.2335 -0.0683 -0.0211
 5309W        W24163  17.049  15.116   1.699 -0.0051  0.0840 -0.1777
 5310W        W24164  10.058   4.852   4.938  0.1994 -0.1968 -0.0419
 5311W        W24165   5.626   9.115  13.350 -0.1858 -0.0460  0.1398
 5312W        W24166  12.927  12.841  14.763  0.0384 -0.0284  0.2596
 5313W        W24167   8.853   3.122   2.436 -0.0815 -0.1541  0.2233
 5314W        W24168   2.660  13.080   0.763  0.2055  0.2446  0.2856
 5315W        W24169  17.304  16.353   3.036 -0.1358 -0.3101  0.0698
 5316W        W24170   4.245   3.340  13.489 -0.0929  0.1221  0.0172
 5317W        W24171  13.674   4.027   2.821  0.1442 -0.1898 -0.2815
 5318W        W24172   2.034   3.366   3.225  0.2708 -0.1822  0.1041
 5319W        W24173   0.719   8.278  15.449 -0.2356 -0.0014 -0.1147
 5320W        W24174  16.034   2.418   0.613  0.0648  0.0231  0.1099
 5321W        W24175  13.180   2.690  14.436  0.0067  0.0097  0.0303
 5322W        W24176  11.988   6.081   3.906 -0.2336  0.2909  0.1111
 5323W        W24177   3.922   5.799  12.125 -0.4103 -0.1150 -0.1237
 5324W        W24178   1.646   4.252  16.997  0.1383 -0.2058  0.0548
 5325W        W24179   0.213  15.875   5.522 -0.0302  0.0325  0.0621
 5326W        W24180   9.560   1.150  13.564  0.1745 -0.0527 -0.0781
 5327W        W24181   0.522  13.891  13.091 -0.2795  0.0326 -0.4026
 5328W        W24182   8.846   3.859  14.360  0.0538  0.0610  0.2246
 5329W        W24183  12.838   6.152  16.697 -0.0885 -0.2156  0.3879
 5330W        W24184  15.447   5.504  16.606 -0.2851  0.1244 -0.0986
 5331W        W24185   7.245   7.085  14.188  0.4017 -0.1072 -0.2074
 5332W        W24186  13.526  14.866   4.479  0.1116 -0.0913 -0.1848
 5333W        W24187  16.814   9.330  14.557  0.3505 -0.0005  0.0987
 5334W        W24188  11.941  10.001   4.110  0.0906  0.0001 -0.0649
 5335W        W24189  15.054   0.150  16.045 -0.1169  0.2176  0.0507
 5336W        W24190   6.290   6.591   4.752 -0.2075 -0.2825  0.0246
 5337W        W24191  12.000   6.441  13.805  0.1411  0.0403 -0.0766
 5338W        W24192   0.331   6.434   3.735  0.0239 -0.2577  0.1191
 5339W        W24193  15.505  16.999   1.534  0.2729 -0.0129  0.0767
 5340W        W24194  14.549  15.441  15.247  0.0120  0.2572 -0.0950
 5341W        W24195   9.966   4.885  14.211 -0.1906 -0.1048  0.0917
 5342W        W24196   3.439   8.254   1.897 -0.1434 -0.1670  0.0649
 5343W        W24197   8.959   0.811  12.234 -0.0942  0.1133 -0.5392
 5344W        W24198  10.744   7.555   0.978  0.0845  0.1253  0.1361
 5345W        W24199  12.401  10.677  16.199  0.3078  0.0218 -0.0009
 5346W        W24200  15.864   1.724  14.398  0.2329  0.0494  0.1016
 5347W        W24201  10.805   6.445   2.781  0.2300  0.2585 -0.1482
 5348W        W24202   8.396   5.738  13.692 -0.1250 -0.0479 -0.0376
 5349W        W24203  13.406  10.322   3.480  0.0262 -0.3956  0.0817
 5350W        W24204   7.045  11.859  12.274 -0.3144 -0.0663 -0.0368
 5351W        W24205   1.143   0.878  15.960  0.1970 -0.0356  0.0782
 5352W        W24206  14.518   5.791  15.650 -0.3613 -0.0199 -0.0208
 5353W        W24207   8.541  11.605   2.149  0.0917  0.1242 -0.0679
 5354W        W24208  10.245   0.696   1.253 -0.2000  0.0307 -0.1497
 5355W        W24209   3.485   4.352   3.336 -0.2284 -0.0166 -0.0658
 5356W        W24210   6.976   1.177   2.219  0.1061 -0.0302  0.2622
 5357W        W24211   7.249   6.443   0.305 -0.0285 -0.1708 -0.2157
 5358W        W24212  15.824  13.660   4.619  0.0480  0.0473  0.0043
 5359W        W24213   9.385   6.228  11.750  0.0187  0.2821 -0.1839
 5360W        W24214   4.688  10.108   2.000  0.0288  0.1207  0.1507
 5361W        W24215   2.111   0.933   0.829 -0.2467 -0.0210  0.0134
 5362W        W24216  12.025  11.428  16.513  0.0918 -0.2134 -0.1123
 5363W        W24217   5.373   3.519   4.254  0.2504  0.3303  0.0641
 5364W        W24218  16.356   0.981   1.137 -0.2186 -0.1963  0.2615
 5365W        W24219   1.752  13.130  14.706 -0.0220  0.0641  0.2277
 5366W        W24220   0.406   0.992   3.619 -0.1004 -0.1032  0.0216
 5367W        W24221   2.045   5.651  15.927  0.0970 -0.0154 -0.1769
 5368W        W24222   8.045   1.387   2.670  0.1077  0.0139 -0.1344
 5369W        W24223   1.141   2.275  14.599 -0.1937  0.1432 -0.2313
 5370W        W24224   7.678  14.016   2.145 -0.0953  0.1760 -0.5129
 5371W        W24225   7.600   4.736   1.746 -0.1265 -0.1199 -0.0867
 5372W        W24226  12.081   8.502  13.819  0.2253 -0.1442  0.2400
 5373W        W24227  17.345   8.873   3.564  0.0607  0.2129  0.1694
 5374W        W24228  16.462   1.374   2.643 -0.3820 -0.0594 -0.1086
 5375W        W24229  13.135   3.755  14.113  0.1935  0.0818  0.0330
 5376W        W24230  10.139   3.716  15.204  0.1729  0.1963  0.0633
 5377W        W24231   4.644  11.282  13.270  0.3393  0.1461 -0.0089
 5378W        W24232  17.360  16.200   0.012 -0.0164 -0.1593 -0.1038
 5379W        W24233   6.214  13.578  16.675 -0.0959 -0.3823 -0.0222
 5380W        W24234   8.711   6.875  16.700  0.1277 -0.0056  0.2550
 5381W        W24235  16.338   6.110   3.445  0.0561 -0.2094  0.0404
 5382W        W24236  10.087   9.048   2.181 -0.1525  0.2320  0.0796
 5383W        W24237   2.426   8.730  15.386  0.1605  0.2484 -0.1241
 5384W        W24238  15.208   9.924   3.802  0.3550 -0.0406  0.3097
 5385W        W24239  11.821   5.083   3.790  0.1842  0.1053 -0.1293
 5386W        W24240  12.329   9.193   1.875 -0.2448 -0.0758  0.2150
 5387W        W24241   4.774  11.750  16.474 -0.0747 -0.3703 -0.2334
 5388W        W24242   8.671  11.873   0.144 -0.2124  0.1217 -0.1961
 5389W        W24243   5.267  15.819   0.470  0.3270  0.3690  0.0237
 5390W        W24244   2.763   4.201   4.035 -0.0664  0.1910  0.0820
 5391W        W24245  13.743   3.272   3.529 -0.3073 -0.0436 -0.0333
 5392W        W24246   5.782   6.819  14.816  0.0809  0.0135 -0.0036
 5393W        W24247   9.517  15.428   2.488  0.0203  0.0944  0.2155
 5394W        W24248   9.507   5.737  17.440 -0.0230 -0.0082 -0.0699
 5395W        W24249  17.257   1.582   1.607 -0.1626 -0.1771  0.1072
 5396W        W24250  17.024  10.912  15.539  0.0447  0.2833 -0.0069
 5397W        W24251   1.676   7.780  17.084  0.0461 -0.0434 -0.0319
 5398W        W24252  12.188  12.568  11.548 -0.0615  0.1162  0.0353
 5399W        W24253  16.594  12.855  16.378 -0.3119 -0.1878 -0.0322
 5400W        W24254  13.975   8.358  16.444  0.1453  0.2169  0.2282
 5401W        W24255   8.565   3.543  13.429 -0.0671  0.0947  0.0188
 5402W        W24256   1.722  12.395   1.406  0.0495  0.0613 -0.1674
 5403W        W24257  11.541   4.455   1.616  0.2160 -0.0065  0.1874
 5404W        W24258   7.058   8.085   0.813  0.0456  0.0202 -0.1744
 5405W        W24259  11.632  10.954   0.173  0.0840 -0.2765 -0.0169
 5406W        W24260   9.060  14.523  13.759 -0.1192 -0.3257  0.1236
 5407W        W24261   9.882   1.072   3.011  0.4543 -0.0745  0.1350
 5408W        W24262  12.059   0.378   4.529  0.2881  0.0629  0.1753
 5409W        W24263   6.179   0.948   2.551  0.5080 -0.1146  0.3041
 5410W        W24264   7.481   3.522  15.388  0.0394  0.1452 -0.2290
 5411W        W24265  15.380   1.968   2.974  0.1305  0.1303  0.1437
 5412W        W24266   3.340   1.384   2.610  0.3434  0.3019  0.2720
 5413W        W24267   7.718  17.390  14.697  0.1679  0.0092 -0.3414
 5414W        W24268   2.457  10.219   3.915 -0.1635  0.1281  0.1036
 5415W        W24269   5.970  12.308  15.151  0.0045 -0.0122  0.1719
 5416W        W24270  16.353  10.807  16.365 -0.4273 -0.0763  0.0155
 5417W        W24271   2.480   2.696   2.308 -0.1198 -0.1387  0.3047
 5418W        W24272   3.235   3.925  16.791  0.1335 -0.0907  0.1483
 5419W        W24273  12.188   6.413   3.079 -0.1333 -0.0342 -0.2312
 5420W        W24274  10.845   8.816  16.885 -0.0705 -0.0597  0.1248
 5421W        W24275   8.312  15.042  12.291 -0.1842 -0.0966 -0.1667
 5422W        W24276  12.227  15.481   4.014  0.0127 -0.1068 -0.3344
 5423W        W24277  16.043  15.035  15.451  0.1829  0.0679 -0.2275
 5424W        W24278  11.030  16.795   1.664 -0.0124 -0.1275 -0.2134
 5425W        W24279   5.348   5.235  13.448 -0.0003  0.2774 -0.0531
 5426W        W24280   0.880   9.126   3.150  0.5207 -0.0166 -0.2617
 5427W        W24281  12.320  11.971  15.693 -0.3562 -0.0769 -0.1717
 5428W        W24282   5.162  16.321   2.301  0.0756  0.0631  0.0468
 5429W        W24283   5.086   2.610  13.872  0.0034  0.2942 -0.2507
 5430W        W24284  17.261  13.352  12.839  0.0607 -0.0661  0.0205
 5431W        W24285  12.025   6.538   1.645 -0.1076 -0.0225  0.1923
 5432W        W24286   6.802   4.987  16.141 -0.2040  0.1447 -0.0689
 5433W        W24287   6.557  13.439  13.152 -0.0054  0.2053  0.2153
 5434W        W24288  10.981  15.439   1.450  0.3436  0.1715 -0.0047
 5435W        W24289   2.224   4.815  15.828 -0.2417  0.1488 -0.0655
 5436W        W24290   3.499  15.061   5.146  0.2242  0.1648  0.2056
 5437W        W24291   8.572  10.068   6.326  0.2251 -0.0616 -0.1276
 5438W        W24292   7.802  11.056   4.800 -0.1720  0.3895 -0.1505
 5439W        W24293   0.300  11.486  15.411  0.0663 -0.1494  0.1751
 5440W        W24294  13.658   0.497   3.380  0.1081  0.1868  0.0609
 5441W        W24295   3.439  16.927  15.507 -0.0547  0.1074 -0.0666
 5442W        W24296   6.595   2.946   0.884  0.0944  0.1077 -0.3139
 5443W        W24297   8.588   8.075  15.310  0.1943  0.2489  0.0484
 5444W        W24298   1.175   3.229   1.685 -0.0278  0.0344 -0.0820
 5445W        W24299   5.910  12.299  12.246  0.0612 -0.1260  0.2078
 5446W        W24300  11.483   3.971  17.267  0.4195  0.2225  0.1036
 5447W        W24301  15.101   5.141   5.059  0.2007 -0.0384 -0.0133
 5448W        W24302  12.151   0.518   2.268  0.0446 -0.1072 -0.1071
 5449W        W24303   0.732   4.445   1.744 -0.0425  0.2190 -0.1332
 5450W        W24304  10.629  10.004   4.824 -0.0066 -0.0370 -0.0855
 5451W        W24305   5.198  11.426   2.532 -0.1106 -0.0991 -0.2795
 5452W        W24306   9.808   0.401   3.808  0.0882  0.2335  0.2359
 5453W        W24307   4.538  10.624   1.826 -0.0560  0.3141  0.3334
 5454W        W24308   8.032  12.708   5.129  0.0499 -0.1446  0.2928
 5455W        W24309   0.142   5.187  15.106 -0.1405 -0.1494 -0.0937
 5456W        W24310  14.698  14.064  13.397 -0.0535 -0.3001  0.1343
 5457W        W24311  15.646   9.058   3.397 -0.1656  0.1421 -0.1341
 5458W        W24312   0.134   7.548  13.991 -0.0856 -0.0408  0.1793
 5459W        W24313  10.878  12.245  13.377 -0.1401  0.0868 -0.0356
 5460W        W24314   8.544  11.615   2.663 -0.3291 -0.3187  0.0647
 5461W        W24315   1.318  11.777  11.469  0.0948  0.0186  0.1384
 5462W        W24316   0.832  12.778  16.937  0.1296  0.0837  0.1670
 5463W        W24317   8.447   1.762   1.304  0.0724  0.0744  0.0701
 5464W        W24318   7.995  10.537  16.054 -0.0148 -0.0258  0.0396
 5465W        W24319  14.017   7.660  14.961 -0.0124  0.1086 -0.0337
 5466W        W24320  15.843   6.149  14.812  0.1180  0.3678  0.0576
 5467W        W24321   5.518   7.539  15.942  0.1051  0.4412 -0.0948
 5468W        W24322  15.787   7.753   5.114 -0.2365  0.0746 -0.1258
 5469W        W24323  12.623  11.037  12.833  0.2136 -0.0801 -0.1639
 5470W        W24324  14.751  12.588  15.351  0.2037  0.0878 -0.4244
 5471W        W24325   1.853   4.150  15.287 -0.0043  0.0349  0.0180
 5472W        W24326   0.678   5.533  16.828 -0.1184  0.0906 -0.1088
 5473W        W24327   1.526  14.550   0.009 -0.0772 -0.0698  0.0316
 5474W        W24328  15.265   1.738   1.231  0.2759 -0.1912  0.1757
 5475W        W24329   5.251   3.600   5.176  0.1567 -0.2304  0.1699
 5476W        W24330   8.195   9.207  15.349  0.0419 -0.0756 -0.0567
 5477W        W24331   2.869   1.722   1.688 -0.2268 -0.1566  0.1688
 5478W        W24332  12.738  11.367  14.571 -0.1335  0.1226  0.0077
 5479W        W24333  11.735   8.045   4.096 -0.2945  0.0668  0.0210
 5480W        W24334   7.299  10.716   5.906 -0.1207 -0.4388 -0.0027
 5481W        W24335   4.748  14.430   1.844 -0.0584 -0.1696  0.1693
 5482W        W24336   0.676   8.117   0.112 -0.2384  0.2463  0.1518
 5483W        W24337   8.407  12.790  13.838 -0.1145 -0.0238 -0.4705
 5484W        W24338  17.303   1.682  15.530  0.1444 -0.3934  0.1027
 5485W        W24339  16.382   5.352  15.443  0.1529 -0.0918 -0.1741
 5486W        W24340   8.405  12.383   0.013  0.1631 -0.1807  0.0611
 5487W        W24341   0.573   3.248   4.154 -0.0937 -0.1225  0.2462
 5488W        W24342  16.856  17.384   3.951  0.0573 -0.1423  0.1398
 5489W        W24343   2.418  13.873   2.367 -0.1099 -0.0233  0.1535
 5490W        W24344  17.397   7.584  16.539  0.1331 -0.4223  0.1696
 5491W        W24345   5.446   2.307   0.812  0.0715 -0.2310  0.3676
 5492W        W24346  11.384  14.690   2.727  0.0855 -0.2818 -0.2389
 5493W        W24347   1.890   4.069   2.110 -0.0547 -0.0348 -0.0549
 5494W        W24348   3.198  16.338  12.037  0.0385 -0.1186 -0.3181
 5495W        W24349   7.928   8.589   3.284  0.0205 -0.0042 -0.0077
 5496W        W24350   7.887   9.342  13.369 -0.0174 -0.2195  0.1383
 5497W        W24351  14.971   1.067  15.441 -0.1838  0.0979 -0.1159
 5498W        W24352  11.931   0.602  15.214 -0.1325 -0.1052 -0.2802
 5499W        W24353   0.561  12.768  13.696  0.0043 -0.0664  0.0990
 5500W        W24354   8.425   8.023   2.295  0.2330 -0.2230  0.1637
 5501W        W24355   5.182  13.314  15.801 -0.0189 -0.0155  0.0523
 5502W        W24356   1.925   7.150  13.544  0.1336 -0.2533  0.0346
 5503W        W24357  15.966   4.002  14.708  0.0718 -0.2923 -0.0926
 5504W        W24358   9.309  15.226  13.240 -0.0212 -0.4134 -0.2071
 5505W        W24359  10.062  15.920  14.221 -0.1580  0.0061 -0.2340
 5506W        W24360   2.091   6.747  16.264  0.0383 -0.1997 -0.3241
 5507W        W24361  15.248  12.400  15.188 -0.2292 -0.2212 -0.0437
 5508W        W24362  17.350   3.607  16.633 -0.1093 -0.0427 -0.2734
 5509W        W24363   3.496  12.658   0.859 -0.4349  0.2755 -0.0452
 5510W        W24364  16.826   7.039  17.001  0.1375  0.4149 -0.1372
 5511W        W24365  12.768  11.330   4.667 -0.0895 -0.3170  0.1510
 5512W        W24366   1.828  10.700   0.051  0.0451  0.1542  0.2337
 5513W        W24367  17.189   3.597  14.697 -0.1258 -0.0370  0.1930
 5514W        W24368  16.226  10.618   0.292  0.6265 -0.1628  0.0757
 5515W        W24369   9.512   8.786   1.472 -0.5546  0.1884 -0.0633
 5516W        W24370  11.319   3.829  13.758  0.1175 -0.0377  0.0044
 5517W        W24371   6.878   0.081  14.996 -0.0310 -0.1961 -0.1352
 5518W        W24372   9.853   2.866   2.213 -0.1535  0.0560 -0.2696
 5519W        W24373  13.442   9.514   3.287  0.5041 -0.1281  0.0067
 5520W        W24374   3.690  10.167   0.545 -0.1562 -0.3616  0.1779
 5521W        W24375  10.368  15.002   4.671 -0.0234  0.0405  0.0541
 5522W        W24376  16.797  13.337   0.977  0.0390 -0.3090 -0.2025
 5523W        W24377  13.885  10.937  16.241 -0.3664 -0.3533 -0.2492
 5524W        W24378  16.741   1.723  13.058 -0.1719  0.0131 -0.0227
 5525W        W24379   4.213  12.919   2.772 -0.0615 -0.3017  0.0727
 5526W        W24380   6.161   2.300  15.606  0.0612  0.1390 -0.1569
 5527W        W24381  17.015   7.326   1.017  0.3678 -0.1423 -0.2831
 5528W        W24382  14.134   5.054  16.051 -0.0789 -0.2524  0.0465
 5529W        W24383   2.568   0.607  13.980 -0.0645  0.4070  0.0634
 5530W        W24384  16.964   0.714   2.905  0.0260 -0.3842 -0.4109
 5531W        W24385   3.126   7.190  15.951 -0.1193  0.0418  0.2707
 5532W        W24386  16.237  16.815   0.636  0.0400 -0.0599  0.2165
 5533W        W24387   2.823  12.921   2.731 -0.0642  0.1746 -0.1877
 5534W        W24388   0.769   8.423  13.773  0.1763 -0.2692  0.3464
 5535W        W24389  16.601  14.899  14.964 -0.2852 -0.1973 -0.2045
 5536W        W24390   5.579  14.189  12.598 -0.0302 -0.0767  0.3123
 5537W        W24391   6.205  11.763  15.659 -0.0477 -0.0342 -0.1780
 5538W        W24392  11.691  15.118   1.783  0.2369 -0.0011 -0.0486
 5539W        W24393   3.847   3.938   4.192  0.2061  0.0082 -0.1275
 5540W        W24394   2.366   7.753  16.871  0.1375  0.4151  0.0545
 5541W        W24395   0.865   8.725  17.345  0.1476 -0.1982  0.0487
 5542W        W24396   7.523  15.183  14.364 -0.1129  0.1222  0.0292
 5543W        W24397   8.564  15.862  13.115  0.3179  0.1327  0.1144
 5544W        W24398   5.169  14.796   4.281 -0.0703  0.1712  0.0540
 5545W        W24399  17.349   3.698   2.484  0.0796  0.2913  0.2397
 5546W        W24400   8.004   5.230  13.599 -0.2866 -0.1554  0.1110
 5547W        W24401  15.776   9.551  15.425  0.0985 -0.1014 -0.0397
 5548W        W24402  15.435   7.095  13.038  0.2071 -0.4570  0.0985
 5549W        W24403  13.625   5.948   0.215  0.0026  0.1187 -0.0982
 5550W        W24404  10.375  13.658  13.968 -0.3028 -0.0702  0.0500
 5551W        W24405   5.833   7.267  13.782 -0.1312 -0.0550 -0.0138
 5552W        W24406  13.691  12.464   0.118 -0.0756 -0.1159 -0.1565
 5553W        W24407  10.223   9.014   0.021  0.1496  0.0282 -0.0950
 5554W        W24408  12.584   5.212  16.196 -0.0462 -0.0342 -0.0946
 5555W        W24409  16.810   3.320  15.656  0.0666  0.1651 -0.2324
 5556W        W24410  15.784   9.456   4.704 -0.1498  0.0055 -0.0823
 5557W        W24411   5.118   2.417  16.930 -0.0268 -0.0128 -0.2516
 5558W        W24412   0.840   1.626  16.732  0.1266 -0.0777  0.0641
 5559W        W24413   9.195   9.397   3.035 -0.1455 -0.0175  0.0155
 5560W        W24414   1.721  12.582  13.520 -0.0521  0.0762 -0.2274
 5561W        W24415  12.563   3.689   2.063  0.1529 -0.3146 -0.0816
 5562W        W24416   7.847   1.018  15.122  0.1176 -0.0569 -0.1132
 5563W        W24417   9.722  14.704  14.508  0.2474 -0.0096  0.0517
 5564W        W24418   5.019   8.548   0.775  0.1900 -0.1704  0.1404
 5565W        W24419   6.853  16.796   4.040 -0.0278  0.1761  0.2651
 5566W        W24420  10.796  14.282   2.491  0.0149 -0.1554  0.0858
 5567W        W24421   1.785  10.973   1.177  0.1631  0.0163 -0.1255
 5568W        W24422   1.331   1.133   2.925 -0.2252 -0.0351  0.0566
 5569W        W24423  13.064   3.820  16.644  0.1702  0.1881  0.3057
 5570W        W24424  15.509   3.450  12.970  0.0684  0.2851  0.0795
 5571W        W24425   8.924   6.349  14.371  0.0419 -0.1783 -0.1971
 5572W        W24426  13.387   2.748  13.056 -0.1623 -0.3470  0.3102
 5573W        W24427   4.083  11.076  14.097  0.1459  0.0066  0.0452
 5574W        W24428   9.073  17.403   3.925  0.0226  0.1054  0.1772
 5575W        W24429   6.914  13.297  15.664 -0.0647 -0.0651 -0.0902
 5576W        W24430  11.575  10.298  16.548 -0.0089  0.1755 -0.0531
 5577W        W24431   4.607  15.432   0.126 -0.2399 -0.3060 -0.0162
 5578W        W24432   2.350   9.944  16.894 -0.1852 -0.2966 -0.0157
 5579W        W24433  15.306   0.421   4.408  0.2895 -0.0799  0.3595
 5580W        W24434  12.783   8.843   0.320 -0.2011  0.1020 -0.2512
 5581W        W24435   0.444  10.917   0.306 -0.4805  0.4078  0.0858
 5582W        W24436  14.463  14.328   4.672  0.1984 -0.2314  0.0386
 5583W        W24437   5.721   1.961   5.168 -0.3533 -0.1693 -0.1856
 5584W        W24438  15.304  13.748   5.565  0.3221 -0.0382 -0.0704
 5585W        W24439  16.270  10.044  15.974 -0.4504  0.0818  0.2068
 5586W        W24440   1.216  16.771  12.337  0.1677  0.1048 -0.2929
 5587W        W24441  16.876  12.137  17.359  0.3834 -0.4065 -0.3543
 5588W        W24442  17.384  17.142  16.360 -0.0239  0.1171 -0.3660
 5589W        W24443   2.737  13.211  15.439  0.3029  0.0087  0.2766
 5590W        W24444  15.526  11.337   0.462 -0.1695  0.1485 -0.0156
 5591W        W24445  16.516  10.684   0.844 -0.1591 -0.1080 -0.0636
 5592W        W24446   1.590   8.593  12.267  0.2501  0.0177  0.2558
 5593W        W24447   4.046  12.486   0.102  0.0665 -0.2269  0.3110
 5594W        W24448  14.544   8.764  14.249 -0.1701 -0.0339 -0.0073
 5595W        W24449  15.005   9.661  12.391  0.1295 -0.0082 -0.0892
 5596W        W24450  10.001   9.509  17.264  0.0029  0.2800 -0.2593
 5597W        W24451   9.314   0.837   1.813 -0.2722 -0.2046  0.2633
 5598W        W24452   4.571  12.208  13.453 -0.1102 -0.2307  0.0626
 5599W        W24453   1.917   0.454   4.780  0.0115 -0.2980 -0.1685
 5600W        W24454  15.158   9.483   0.342  0.0653  0.2335  0.1571
 5601W        W24455   6.312   0.388   3.916 -0.1485 -0.0120 -0.1023
 5602W        W24456   6.113  11.555  14.001  0.0404 -0.6674  0.0905
 5603W        W24457  15.733   1.183  14.302  0.0597  0.1141 -0.0419
 5604W        W24458  10.660   5.694   3.258 -0.1617  0.0447 -0.0702
 5605W        W24459   0.952   2.225   4.524  0.4420  0.0406  0.2260
 5606W        W24460   2.265   6.293  12.284  0.1492  0.2647  0.1444
 5607W        W24461  14.955   9.951  13.203 -0.1355  0.0221  0.2011
 5608W        W24462   4.384   9.905   0.011 -0.2633  0.3690  0.1810
 5609W        W24463  13.266   4.397   2.754 -0.1646 -0.1198 -0.1334
 5610W        W24464   7.667   0.576   5.020 -0.1004  0.2584 -0.3274
 5611W        W24465   8.856  12.160   2.291 -0.1329  0.1222 -0.1048
 5612W        W24466   8.071   2.236  16.180 -0.1216  0.1350 -0.1877
 5613W        W24467   9.438  16.682  14.404  0.2805  0.1239 -0.0842
 5614W        W24468   3.884   3.962   0.812 -0.2656  0.2816  0.0899
 5615W        W24469  11.501  15.662   2.177  0.2300  0.0893  0.0136
 5616W        W24470   3.636   6.666  12.951  0.0250  0.1353  0.0330
 5617W        W24471  16.181   2.837   2.862  0.1222 -0.1898  0.3302
 5618W        W24472   2.552   7.831   3.120 -0.1665  0.0217  0.0590
 5619W        W24473  15.282   4.871   2.624 -0.2499  0.1580 -0.0557
 5620W        W24474  16.450  12.703   5.049 -0.1252  0.2837  0.0024
 5621W        W24475  17.308   6.467  13.195 -0.2445  0.1523 -0.0923
 5622W        W24476   5.507  10.445  13.839  0.1712 -0.0337 -0.0814
 5623W        W24477   9.751   3.371  15.541 -0.0384 -0.1119 -0.0412
 5624W        W24478   0.431   7.479  15.561  0.1525  0.0420 -0.0918
 5625W        W24479   0.270  13.122   0.236 -0.1856 -0.1631 -0.2434
 5626W        W24480   8.745  14.809  16.382 -0.2193  0.0761  0.1411
 5627W        W24481   4.859  14.384  12.513  0.1588 -0.0899 -0.2869
 5628W        W24482   5.745  11.388  16.593  0.2388 -0.0545 -0.2178
 5629W        W24483   0.421   1.090  15.802 -0.1460  0.1706 -0.0242
 5630W        W24484  15.446  10.289  13.081 -0.0512 -0.3516 -0.0736
 5631W        W24485  13.774   0.930  13.108 -0.1927 -0.0114  0.2160
 5632W        W24486  14.704   5.918  17.240  0.0236  0.2158  0.2025
 5633W        W24487  15.670   5.289  13.260 -0.2856 -0.1233  0.2246
 5634W        W24488  13.193  12.009  15.379 -0.0201 -0.2459 -0.1582
 5635W        W24489   6.212   5.628   3.817  0.1533  0.0395 -0.1546
 5636W        W24490   2.950   2.491  16.761 -0.0255 -0.3005 -0.1918
 5637W        W24491   7.750  13.197   2.470 -0.0360  0.6034  0.1110
 5638W        W24492   6.299  17.400  14.816  0.0633  0.2402 -0.0450
 5639W        W24493  16.510  13.539   2.750  0.0272  0.0421 -0.0728
 5640W        W24494  12.998   9.577   2.353 -0.0236 -0.2617  0.2031
 5641W        W24495  10.095   9.689  12.717  0.0152  0.1438 -0.1875
 5642W        W24496   0.829  14.044  17.247  0.0782  0.0257  0.0487
 5643W        W24497   0.511  15.727  15.314  0.0916  0.5356 -0.0032
 5644W        W24498   1.890   8.180  16.051  0.1505  0.2557 -0.1886
 5645W        W24499   5.598  17.164   3.042 -0.1627  0.0295  0.0977
 5646W        W24500  13.839   6.001  13.693  0.1195  0.1878 -0.1698
 5647W        W24501   9.637   5.430   1.327  0.1096  0.0536 -0.2483
 5648W        W24502   4.125  16.887   5.270 -0.2005  0.0572 -0.1203
 5649W        W24503  15.863   6.387  12.557 -0.0310  0.1421 -0.2949
 5650W        W24504  16.885   0.419   2.393 -0.2332  0.0241 -0.0665
 5651W        W24505  12.652  10.351   2.139 -0.1579  0.0041  0.2539
 5652W        W24506   6.653   7.602  13.442 -0.1460  0.1359 -0.1136
 5653W        W24507  13.546   5.018  14.332 -0.3999  0.1218  0.2010
 5654W        W24508  16.349   4.688   5.366  0.4703  0.1104  0.1356
 5655W        W24509  14.782   4.976   4.172  0.2388 -0.2701 -0.0477
 5656W        W24510   3.772  12.045   0.135  0.0867  0.0094 -0.3686
 5657W        W24511  11.595   8.689  13.924  0.2381 -0.1437  0.0520
 5658W        W24512  17.350   5.580  12.944 -0.0148  0.1063 -0.0185
 5659W        W24513   0.496   6.327  17.345  0.0417 -0.2402  0.0173
 5660W        W24514  16.714  14.814   1.390  0.1380 -0.0541 -0.2600
 5661W        W24515   7.630  16.369  12.239 -0.2306 -0.0398  0.1462
 5662W        W24516   1.379   6.612  15.085  0.0325  0.2861 -0.1584
 5663W        W24517  11.936  10.494   1.662 -0.3401 -0.2594 -0.0608
 5664W        W24518  16.166   2.273  13.588  0.0749  0.1308  0.0680
 5665W        W24519  15.444  10.146  15.600 -0.0505  0.1562  0.1185
 5666W        W24520   7.313   9.946  12.484 -0.1859  0.4444 -0.0117
 5667W        W24521   8.262  14.200  14.049  0.1287 -0.3875 -0.1986
 5668W        W24522  12.299  13.309  16.949  0.2752  0.0760  0.1244
 5669W        W24523  13.841  14.748  17.166 -0.1650 -0.0023 -0.1949
 5670W        W24524   7.892  12.052  17.133  0.0131  0.0145  0.3905
 5671W        W24525  15.373  15.419  15.097 -0.0905 -0.1351  0.1957
 5672W        W24526   6.701  16.210   0.679  0.0013 -0.1109  0.0569
 5673W        W24527   2.285   1.198  13.386  0.2608 -0.1097  0.0465
 5674W        W24528  12.077   0.517  13.722 -0.0812  0.4943  0.0012
 5675W        W24529   4.446   2.505   5.963 -0.2953 -0.1461  0.4419
 5676W        W24530  11.029   0.848  12.904  0.1064  0.0095  0.4032
 5677W        W24531   2.641   4.123   5.241  0.0299  0.0003  0.2103
 5678W        W24532   5.602   2.332   0.312  0.0193 -0.2320 -0.1558
 5679W        W24533  16.899  16.048  16.904 -0.2188  0.0978 -0.2002
 5680W        W24534  13.897   6.799   3.780 -0.0278  0.0860 -0.1367
 5681W        W24535   4.073   6.949  13.463  0.1202 -0.1065 -0.0120
 5682W        W24536  13.145   8.824  13.047 -0.1533  0.0277  0.3089
 5683W        W24537  11.819   3.051   2.108  0.2898  0.0399  0.0730
 5684W        W24538   1.728  13.831   2.011 -0.2251 -0.0238 -0.3174
 5685W        W24539  17.177  11.810   0.308 -0.1264  0.1865  0.2004
 5686W        W24540  13.516  10.113  16.079  0.0628 -0.0946 -0.0386
 5687W        W24541   5.187  11.828  13.738 -0.1346  0.3551  0.2081
 5688W        W24542  13.515  13.352   0.046  0.3024 -0.3381 -0.0108
 5689W        W24543  12.979   2.420   0.325  0.1587  0.1768 -0.2288
 5690W        W24544  10.392   0.014   1.786 -0.2126  0.0350 -0.0457
 5691W        W24545   6.067   7.355   5.350  0.2548  0.1147 -0.0906
 5692W        W24546  10.756   2.579   0.130  0.0183  0.1520 -0.0486
 5693W        W24547  15.000   0.615  13.470 -0.0415  0.0979  0.1280
 5694W        W24548  12.813   5.314  14.902  0.1156  0.0706 -0.3273
 5695W        W24549  13.286  13.207  14.781  0.0325  0.2682  0.2403
 5696W        W24550  15.321  15.411   4.806 -0.1088  0.0801 -0.1780
 5697W        W24551   3.804  12.019  11.843 -0.1882 -0.0095 -0.0064
 5698W        W24552   3.018   4.928   1.479 -0.0700 -0.0233 -0.1172
 5699W        W24553   5.185   7.740  12.495 -0.0812 -0.1675  0.1382
 5700W        W24554  12.327   4.386  13.018 -0.1080 -0.1898  0.0205
 5701W        W24555   5.553  16.665  15.930 -0.3736  0.0416 -0.1496
 5702W        W24556  11.468   1.244   1.080  0.1391  0.3812 -0.0409
 5703W        W24557  11.275   0.140   2.284 -0.0468  0.1297 -0.0760
 5704W        W24558   0.173   5.589   2.642  0.1305 -0.0313 -0.2709
 5705W        W24559  17.088   2.653   3.780  0.2109 -0.1931 -0.0626
 5706W        W24560   3.343   9.012  13.180  0.3012 -0.2320  0.1276
 5707W        W24561   5.529  10.846  16.684 -0.2126  0.0866 -0.1465
 5708W        W24562   8.370  11.323   0.981  0.1624 -0.1233 -0.2557
 5709W        W24563   0.760  15.865  15.762  0.0706 -0.0180  0.1095
 5710W        W24564   1.730   4.620   1.427 -0.0486 -0.1620 -0.1953
 5711W        W24565   0.002   3.337   4.411  0.1612  0.0331 -0.1370
 5712W        W24566   3.072  14.378  16.760 -0.0618 -0.3279 -0.2787
 5713W        W24567   7.415   3.583   2.403 -0.1954  0.0659  0.1633
 5714W        W24568  17.339   4.395   2.074  0.2253  0.0255 -0.3563
 5715W        W24569   4.205   4.364  13.686  0.0340  0.0179 -0.0448
 5716W        W24570  14.606   7.043  15.153  0.1198 -0.2571  0.1367
 5717W        W24571   1.136   4.320   4.140  0.3224 -0.0832 -0.0492
 5718W        W24572   0.190   0.893   1.034 -0.2448 -0.0723  0.0677
 5719W        W24573  12.227   9.475   0.559 -0.0082 -0.1022  0.0777
 5720W        W24574  13.869   6.057  16.200  0.3642 -0.0620 -0.3201
 5721W        W24575  14.251   3.611   4.539  0.0656 -0.2496  0.0975
 5722W        W24576  12.671   0.219  12.415 -0.2802  0.0039 -0.0637
 5723W        W24577   1.817  12.630  14.814  0.1583 -0.0122  0.2703
 5724W        W24578   0.091  15.706  13.085 -0.0329 -0.1867 -0.3274
 5725W        W24579   5.698   5.976  16.358  0.0361 -0.0317  0.1023
 5726W        W24580  15.842   3.037  13.030  0.0029  0.0400 -0.0137
 5727W        W24581  16.753   0.289   2.881  0.2698  0.2461 -0.1634
 5728W        W24582   1.383  14.270   0.403 -0.0006 -0.0130 -0.2478
 5729W        W24583   9.839  10.090  13.388  0.0496  0.0384  0.0123
 5730W        W24584   4.002  14.014  16.880 -0.0676  0.0388  0.0039
 5731W        W24585  10.090   0.063   2.561 -0.1961 -0.0660  0.0572
 5732W        W24586   8.952   9.088   5.290 -0.2102  0.1011  0.2581
 5733W        W24587   6.849   5.079   5.094  0.2139  0.0057 -0.0885
 5734W        W24588   2.155  13.078  15.068  0.1778  0.2299  0.1802
 5735W        W24589  15.090   1.377  14.509 -0.0937  0.0981 -0.2196
 5736W        W24590   3.206  13.336  15.881  0.0058 -0.0460 -0.2179
 5737W        W24591   2.935  14.234   5.092 -0.2180  0.0908  0.0313
 5738W        W24592   3.471  15.765  15.913 -0.0185  0.2247 -0.1722
 5739W        W24593  15.906   6.238   2.981 -0.1388 -0.0648 -0.0175
 5740W        W24594   6.268  15.314   1.064  0.0643  0.1889  0.2694
 5741W        W24595   6.403  13.865  13.616 -0.0870 -0.1392  0.1966
 5742W        W24596  12.129   3.291   3.357  0.0777 -0.0255 -0.2246
 5743W        W24597   4.542   9.096  16.707  0.2016  0.1760  0.0842
 5744W        W24598  16.691  12.354   0.712 -0.2624  0.0132 -0.0157
 5745W        W24599  12.115  17.373   1.183 -0.5217 -0.0174 -0.2057
 5746W        W24600   6.137   7.545   1.225 -0.0183  0.1286  0.1812
 5747W        W24601  14.066   4.259   2.511  0.3413  0.1707 -0.0798
 5748W        W24602   0.049   7.069   1.653  0.0542  0.1885  0.1090
 5749W        W24603   9.976   0.131   2.042 -0.0048  0.4120 -0.0569
 5750W        W24604   8.613   7.901   0.363 -0.1817  0.0819  0.0254
 5751W        W24605   4.951   4.034  17.388  0.2755  0.1652  0.0945
 5752W        W24606   7.358  14.945   0.531 -0.1953  0.2331  0.1590
 5753W        W24607  16.445  16.159   2.747 -0.1159  0.2398 -0.1226
 5754W        W24608   9.293  17.208  15.037 -0.0902  0.0695  0.3249
 5755W        W24609   3.500  15.386   0.940 -0.0300  0.1417  0.1064
 5756W        W24610  16.467  10.943   4.555 -0.1656 -0.1932  0.0280
 5757W        W24611  12.396   2.970   1.664  0.0408  0.0448  0.2352
 5758W        W24612  11.931  14.253  16.183  0.0331  0.0765 -0.2883
 5759W        W24613   2.572   9.754   4.040 -0.2470 -0.2600 -0.1542
 5760W        W24614   0.465  14.087  14.082  0.1247 -0.3196 -0.2089
 5761W        W24615  11.737  10.057   2.008 -0.0531  0.1812 -0.0086
 5762W        W24616   1.999  11.917   3.679 -0.2317 -0.0376 -0.1629
 5763W        W24617  17.278   8.550   0.410  0.3021 -0.2086 -0.2146
 5764W        W24618   8.362  10.655   2.674  0.1524  0.0147 -0.2398
 5765W        W24619   7.017   2.289  17.136  0.3527 -0.1764  0.1087
 5766W        W24620   2.122   8.984   1.690 -0.0927 -0.2065 -0.0377
 5767W        W24621   2.018   1.198  14.457  0.1972 -0.0147  0.1472
 5768W        W24622  14.348  15.022  14.334  0.2493  0.2173  0.1283
 5769W        W24623  12.062  16.334  15.130 -0.2903 -0.0345 -0.0055
 5770W        W24624   2.153   4.734   0.775  0.0743  0.1548 -0.0674
 5771W        W24625   6.870   0.650  13.373  0.1303  0.2695 -0.0467
 5772W        W24626  10.629  15.758   5.124  0.3464  0.0023 -0.0613
 5773W        W24627  14.989   1.176   3.290  0.2232 -0.1485 -0.0569
 5774W        W24628   6.953   0.405   0.879 -0.1683 -0.0452 -0.0080
 5775W        W24629   5.661  11.796  13.863  0.1538 -0.0913  0.3531
 5776W        W24630  14.275   9.663   2.150  0.0882 -0.1951 -0.2341
 5777W        W24631  10.354   9.994   0.507 -0.2267 -0.0024  0.0136
 5778W        W24632  15.407   6.559   3.111 -0.2642 -0.2575 -0.0649
 5779W        W24633   0.866   4.706   3.175  0.2928  0.2081  0.0352
 5780W        W24634   5.224   2.424  14.615 -0.1264  0.1545 -0.2909
 5781W        W24635  13.509   2.174   0.383  0.0204  0.0989 -0.0536
 5782W        W24636  10.162   9.208   3.384 -0.2179  0.2485 -0.2988
 5783W        W24637   7.688  10.827   0.395  0.0167 -0.0230 -0.1268
 5784W        W24638   9.084   1.253   1.676 -0.1641 -0.2279 -0.0597
 5785W        W24639   5.991  12.773  14.967  0.4911 -0.0591 -0.3050
 5786W        W24640   8.034   4.332  11.694  0.2871  0.1134 -0.1165
 5787W        W24641   3.185  16.721   4.675  0.2105 -0.4029  0.0371
 5788W        W24642   2.687   0.037  15.273  0.0195  0.1760  0.3180
 5789W        W24643  16.322  14.628  13.217 -0.1323  0.1069  0.0124
 5790W        W24644   6.502  10.207   1.737 -0.2526  0.1709  0.4039
 5791W        W24645  11.017  13.970  16.691 -0.0562  0.0914 -0.0021
 5792W        W24646   6.275   0.693   2.037  0.2303  0.0626  0.2215
 5793W        W24647   4.385   1.725   1.274 -0.1032  0.0225  0.3071
 5794W        W24648  10.423   2.220  12.326 -0.2601  0.2083 -0.0361
 5795W        W24649   5.867   3.089  12.600  0.0013  0.2132 -0.0688
 5796W        W24650  12.080   4.896   2.368 -0.0797 -0.3209 -0.1618
 5797W        W24651   4.767   8.466   1.299  0.2516  0.0481 -0.3408
 5798W        W24652   7.919   7.577  15.614  0.0327 -0.0962 -0.0753
 5799W        W24653  17.288  10.545  13.312  0.3235 -0.3073 -0.0138
 5800W        W24654  16.879  11.809   3.830  0.0066 -0.0797  0.0258
 5801W        W24655  14.709   0.207   4.818 -0.2456  0.0611 -0.1392
 5802W        W24656   1.151  17.095  15.318 -0.1449 -0.0542  0.1059
 5803W        W24657   4.273  13.176  13.738 -0.0671 -0.2187  0.1597
 5804W        W24658   8.839   6.025   1.356  0.0178  0.1110 -0.0465
 5805W        W24659   9.781  13.006  13.644  0.3708  0.1022  0.1486
 5806W        W24660  13.956   3.063  12.171  0.0505  0.0703  0.0779
 5807W        W24661   3.997   5.127   1.506 -0.1655 -0.0951 -0.1874
 5808W        W24662   7.701  11.392   3.542 -0.0533  0.0011  0.1786
 5809W        W24663   4.922   0.584   2.883 -0.1239 -0.2056  0.0341
 5810W        W24664  15.281   0.100  16.506 -0.1487 -0.0376 -0.1148
 5811W        W24665  10.370  14.628  12.395 -0.1126  0.0453 -0.0824
 5812W        W24666   2.930   8.265   3.942  0.0759  0.0117  0.1340
 5813W        W24667   3.301   9.145   5.063  0.1796 -0.1102  0.3658
 5814W        W24668   7.644   1.397  12.810  0.0264  0.1690  0.0703
 5815W        W24669  10.243   8.833   3.671 -0.3477  0.1477  0.0440
 5816W        W24670  10.033  17.056  16.107  0.0147  0.0633 -0.2303
 5817W        W24671   9.347   1.626  13.451  0.1329 -0.0049 -0.1717
 5818W        W24672  11.111   2.472   5.503  0.4122  0.1070  0.1097
 5819W        W24673  14.971  10.922  14.422 -0.1625  0.0015  0.3944
 5820W        W24674   5.847   9.511   0.938 -0.0489  0.2822 -0.1429
 5821W        W24675   5.605   9.137   4.452  0.2941  0.1725 -0.0886
 5822W        W24676   5.766   2.242   1.393  0.2145  0.1740  0.0095
 5823W        W24677   4.522   9.500  17.217  0.0837 -0.0721  0.1188
 5824W        W24678  10.483  17.360  12.629  0.0644  0.2471  0.0844
 5825W        W24679   7.361   2.315   1.872 -0.0224  0.1655  0.0740
 5826W        W24680   2.899   3.959   1.242  0.1124 -0.1269  0.2204
 5827W        W24681  12.975   1.000   1.719  0.3023  0.1194  0.0263
 5828W        W24682  15.484   1.331  13.731 -0.0102 -0.2970 -0.1231
 5829W        W24683  11.385  10.328   1.759  0.0215  0.0480  0.1184
 5830W        W24684   3.346   2.308  14.516  0.0177  0.0823 -0.0042
 5831W        W24685  13.220  14.097   4.372  0.0611  0.1237  0.2884
 5832W        W24686  14.015   5.059   2.685  0.0662  0.0079 -0.3190
 5833W        W24687  15.722   6.804   4.371  0.5100  0.1068 -0.1424
 5834W        W24688   6.827  10.428   4.355 -0.0924  0.0375  0.1796
 5835W        W24689   1.342  16.240  12.883  0.0446 -0.1132  0.1001
 5836W        W24690  12.315   7.660  17.221 -0.1330 -0.3929  0.1054
 5837W        W24691   9.716  16.778  13.148 -0.2680  0.1410 -0.0354
 5838W        W24692   8.300  13.839   2.000 -0.1723  0.0537 -0.0348
 5839W        W24693  15.723  12.058  16.718  0.1046  0.2076  0.1403
 5840W        W24694  13.345   1.734  13.977 -0.0928  0.3535  0.0206
 5841W        W24695   6.450  16.398   4.075 -0.4605 -0.1544 -0.0078
 5842W        W24696   1.021  13.175   5.406  0.0644  0.2762  0.1399
 5843W        W24697  14.902  12.057   4.652 -0.2176  0.0677  0.1217
 5844W        W24698   6.663   3.479  15.584 -0.1186  0.1165 -0.0162
 5845W        W24699   4.320  12.198  16.655 -0.1889 -0.0616 -0.0115
 5846W        W24700  10.120   7.274   1.538  0.0217  0.2019 -0.0260
 5847W        W24701   0.377  11.614   1.312 -0.0200  0.1308  0.1047
 5848W        W24702   8.594  16.186   5.121 -0.3918 -0.0044 -0.0146
 5849W        W24703  12.581  12.344  16.594 -0.0413 -0.3044  0.2001
 5850W        W24704  13.937  15.824  16.031 -0.3222 -0.0246  0.0893
 5851W        W24705  10.600   1.579  14.193 -0.0767 -0.0184  0.1267
 5852W        W24706  10.544   4.929  12.332 -0.1463  0.2621  0.2139
 5853W        W24707  14.840  11.085  12.235  0.1490 -0.0197  0.0739
 5854W        W24708  17.117   4.622   4.639  0.0143 -0.2928 -0.2171
 5855W        W24709  16.489   7.936   4.252  0.4053  0.2036 -0.4747
 5856W        W24710   3.790   1.397  14.977 -0.0371  0.3908 -0.0530
 5857W        W24711   6.104  12.697   4.298 -0.2470  0.1095 -0.0607
 5858W        W24712   3.345   4.337  15.911 -0.1425  0.1103  0.1280
 5859W        W24713   6.929  10.923   2.926  0.0386 -0.0875  0.0050
 5860W        W24714  10.169   4.642  12.527  0.1256 -0.0703  0.2990
 5861W        W24715  16.478  12.402  16.410  0.1789  0.0721  0.1312
 5862W        W24716  10.293   6.922   0.380 -0.0135  0.2179  0.2777
 5863W        W24717   2.705   1.011  16.829  0.0107 -0.3021  0.1122
 5864W        W24718  16.475   6.810  13.832 -0.0682 -0.1378  0.2032
 5865W        W24719  10.769   3.395   0.082 -0.1883 -0.1819 -0.0977
 5866W        W24720  14.492  11.261  13.478 -0.0041  0.1442  0.0942
 5867W        W24721  15.231   1.755  16.683 -0.1309  0.2192 -0.1380
 5868W        W24722  15.387   7.129  16.031 -0.1181 -0.1263 -0.0588
 5869W        W24723   1.713   2.971  12.757 -0.1190  0.1835 -0.1088
 5870W        W24724   7.310  16.598  14.446 -0.0106  0.0215 -0.3288
 5871W        W24725   7.669   7.176  13.339 -0.1702 -0.1548 -0.2976
 5872W        W24726   7.924   9.134  14.925  0.0091 -0.0113  0.4728
 5873W        W24727  13.798  14.431   0.439 -0.0374 -0.0800 -0.3258
 5874W        W24728  13.064  14.028  17.479  0.2139 -0.3550 -0.2201
 5875W        W24729   9.401  12.459  14.409  0.1540  0.2092 -0.2094
 5876W        W24730   7.314   0.202   3.766 -0.2917 -0.0100  0.0356
 5877W        W24731  11.172   1.258  14.189 -0.1768  0.4916 -0.1148
 5878W        W24732   1.743  17.347   2.050 -0.1791 -0.2204  0.1380
 5879W        W24733  12.371   9.689   4.201 -0.2230 -0.0124  0.2768
 5880W        W24734   9.510   5.687  12.491  0.3970  0.0745  0.1923
 5881W        W24735   3.872   1.664  17.013  0.1029  0.3592  0.1120
 5882W        W24736   5.000   7.484   0.440  0.2060 -0.1415 -0.0698
 5883W        W24737  15.609   5.902   4.803  0.1238 -0.2029 -0.0427
 5884W        W24738   3.352   8.985   4.246  0.0841  0.0164 -0.1759
 5885W        W24739  12.552   4.740   4.956 -0.2375  0.4744 -0.0706
 5886W        W24740   7.213  10.066   4.149 -0.3076 -0.1188  0.0498
 5887W        W24741  10.379   8.932   6.100  0.0684  0.0210  0.0697
 5888W        W24742   2.435   7.395  15.025  0.3059  0.0544  0.0596
 5889W        W24743   3.934  17.216   0.802  0.1060 -0.0148  0.0130
 5890W        W24744   6.853  10.774  13.864 -0.0430 -0.0312 -0.1192
 5891W        W24745  12.267   6.864  12.967  0.1756 -0.0158 -0.1629
 5892W        W24746  13.322   2.928   3.621  0.0159 -0.1233 -0.2859
 5893W        W24747   1.464   0.707   1.967 -0.0971 -0.0329 -0.1137
 5894W        W24748  15.524   9.412  13.507  0.2835 -0.2014 -0.0630
 5895W        W24749  16.273   4.173   0.182  0.2825 -0.0087 -0.0467
 5896W        W24750   4.031  11.027  15.143  0.1662 -0.1636  0.2552
 5897W        W24751   5.803   6.482  13.462  0.0823 -0.0715  0.2074
 5898W        W24752  11.421  12.237   2.801 -0.2133 -0.1691  0.1659
 5899W        W24753   2.283  14.499   1.072  0.1981 -0.0537 -0.2783
 5900W        W24754  12.811  11.248  12.311  0.1814 -0.3065 -0.1169
 5901W        W24755  12.551   6.945   0.314  0.0677  0.1492 -0.0974
 5902W        W24756   3.093  14.967  15.742  0.0425  0.0849 -0.0306
 5903W        W24757  14.047  10.774  12.819 -0.1930  0.2410  0.2506
 5904W        W24758   7.031   2.127  15.979  0.1929 -0.0061 -0.4729
 5905W        W24759  10.383  17.107   5.356 -0.3389 -0.0250 -0.4285
 5906W        W24760  14.414   9.129  17.167 -0.0351 -0.0966 -0.1099
 5907W        W24761   0.718   8.324  16.534  0.0662 -0.4270 -0.2331
 5908W        W24762   6.266   8.926   3.643 -0.1915 -0.1482 -0.0133
 5909W        W24763   4.725  15.776  14.192 -0.2934 -0.0383  0.1886
 5910W        W24764   7.894   4.533   5.302  0.0241 -0.1354  0.0908
 5911W        W24765   0.000   1.275  16.477 -0.1060 -0.0259  0.0274
 5912W        W24766   5.057   3.390  16.682 -0.0671 -0.0069 -0.3664
 5913W        W24767   1.225  11.007  15.969  0.1711  0.0525  0.3480
 5914W        W24768  14.878  16.147   3.803  0.2537 -0.1303 -0.2422
 5915W        W24769   5.260  11.408  13.469  0.1036  0.2231  0.1746
 5916W        W24770   4.364   3.774  12.721  0.0829 -0.1573  0.0714
 5917W        W24771   6.745   6.061  15.407 -0.2321 -0.0073 -0.2670
 5918W        W24772  10.244  12.195   1.779 -0.3147 -0.0680  0.2288
 5919W        W24773   8.331  15.422   1.660 -0.0238  0.0896  0.1150
 5920W        W24774   1.403   9.568   4.045 -0.0313 -0.3301 -0.4386
 5921W        W24775  15.154  13.385  15.490 -0.2786  0.0894  0.2465
 5922W        W24776  12.739  12.589  16.139  0.0138  0.1044  0.1088
 5923W        W24777   1.228   4.567   1.632  0.1912 -0.2781 -0.3139
 5924W        W24778   6.410  11.635   4.344  0.0705 -0.3367  0.0468
 5925W        W24779   4.884  13.153   0.222  0.1797  0.1391 -0.1381
 5926W        W24780  15.367   8.996   4.935  0.0617  0.1204  0.1031
 5927W        W24781  17.383   4.659   3.648 -0.1245  0.0907 -0.1730
 5928W        W24782  12.164  15.325   3.548 -0.1012 -0.1930 -0.0136
 5929W        W24783   3.612  15.918  14.907 -0.0009  0.2037  0.3033
 5930W        W24784   6.342  12.628   0.138  0.1326  0.2496 -0.2751
 5931W        W24785  16.617   2.791  12.093  0.3507  0.0535  0.0004
 5932W        W24786  12.893   9.390   4.494  0.2047 -0.2079 -0.0611
 5933W        W24787   3.889  11.469  15.435  0.0510  0.3050 -0.0300
 5934W        W24788   0.601   0.724   0.839  0.2695  0.0263 -0.2262
 5935W        W24789  14.776  15.075   1.521  0.3304 -0.2845  0.0056
 5936W        W24790   4.061   8.906   3.963 -0.1381 -0.2998  0.2129
 5937W        W24791   6.038  10.979   4.524  0.0120 -0.0258 -0.1442
 5938W        W24792  12.624  16.248   4.450  0.0911  0.0249 -0.0809
 5939W        W24793  16.212   8.277   3.998  0.2586 -0.1948 -0.1397
 5940W        W24794  12.675   1.649   2.419 -0.1359  0.2214  0.0820
 5941W        W24795  10.248   9.891   1.543 -0.1272 -0.3214  0.2854
 5942W        W24796  14.646   0.670  15.416  0.0683  0.0829  0.0098
 5943W        W24797   9.540  17.199   3.862 -0.1561  0.0502  0.0797
 5944W        W24798  14.464   4.008   2.165 -0.0697  0.0954  0.0096
 5945W        W24799  15.176   9.982  12.770 -0.0643  0.0310  0.0973
 5946W        W24800  14.327   1.797   0.956  0.0801  0.0069  0.1888
 5947W        W24801  11.726   1.508  15.080  0.0345 -0.0206  0.0187
 5948W        W24802   7.020   4.468  13.691 -0.1365  0.1842  0.0365
 5949W        W24803   3.038   6.873  14.911  0.1553  0.2861  0.1119
 5950W        W24804  16.030  15.405   0.300 -0.0631  0.1948 -0.0157
 5951W        W24805  11.447  14.841   0.877  0.0445 -0.4480  0.0513
 5952W        W24806  13.691   3.629  15.894 -0.0541  0.1277  0.3238
 5953W        W24807  11.526  11.853   1.738  0.0167 -0.0102 -0.3727
 5954W        W24808  10.264   7.083  12.497  0.0978  0.0095  0.2157
 5955W        W24809   4.055   9.931   2.798  0.2839  0.4012 -0.0382
 5956W        W24810   0.982   0.073   0.090 -0.0693  0.0144  0.3217
 5957W        W24811   8.155   9.491   4.931 -0.0818  0.1408  0.1362
 5958W        W24812   2.466  12.274   3.250  0.1897 -0.0348 -0.1502
 5959W        W24813  17.215   1.868  15.979 -0.0519 -0.2676  0.4857
 5960W        W24814   3.412   0.751  16.517  0.1254 -0.0447  0.2374
 5961W        W24815   4.484   4.648  13.039  0.1544  0.1569 -0.2787
 5962W        W24816   2.368   0.499   0.936 -0.2231  0.0631 -0.5015
 5963W        W24817   5.464  14.054  17.084  0.1226 -0.0954  0.1132
 5964W        W24818   5.301   9.231  14.663 -0.0100  0.2412 -0.0262
 5965W        W24819  10.173   5.881   0.810  0.2099 -0.1568  0.1767
 5966W        W24820   7.799   6.814  13.688  0.2778 -0.0229  0.0602
 5967W        W24821  10.719  11.720   4.425  0.2507 -0.2482 -0.0559
 5968W        W24822  11.864   4.645   3.478 -0.1777 -0.0691  0.0362
 5969W        W24823   8.432  12.067  13.141  0.2515 -0.2617 -0.2065
 5970W        W24824   5.921   0.542  16.281 -0.0972 -0.1330 -0.0507
 5971W        W24825  10.730  15.049  12.250 -0.0977 -0.4608  0.2302
 5972W        W24826   5.391  12.919   1.524 -0.2499 -0.1188  0.1093
 5973W        W24827  10.304   0.320   0.815  0.1492  0.0222  0.1537
 5974W        W24828  16.153   2.870  16.115 -0.0956  0.0491  0.0185
 5975W        W24829   4.910  15.839   1.500  0.0736  0.1807  0.0091
 5976W        W24830   5.655   7.346  16.985 -0.1363  0.2213  0.0115
 5977W        W24831   9.426   5.891  13.025 -0.0982 -0.2972  0.1296
 5978W        W24832   6.993  10.061   0.450  0.1784 -0.0783 -0.1842
 5979W        W24833  13.822   8.838  14.487 -0.0410  0.2988  0.0242
 5980W        W24834   0.512  17.166   4.934  0.1910 -0.0926 -0.1001
 5981W        W24835  12.471   3.107  12.895  0.0530 -0.2337  0.1245
 5982W        W24836   9.307  16.718   1.123 -0.1500  0.0613  0.0162
 5983W        W24837   1.985  14.769  16.542  0.0403 -0.1115 -0.0382
 5984W        W24838   2.094   1.627   5.339  0.1576 -0.0061 -0.1555
 5985W        W24839   2.827  11.027  16.356 -0.1831  0.0671 -0.2203
 5986W        W24840   1.397  15.873   1.808  0.0416  0.0023  0.0141
 5987W        W24841   1.167  14.165  15.700 -0.2340  0.0364  0.2814
 5988W        W24842   3.102  15.867  12.393 -0.0792  0.0356 -0.2100
 5989W        W24843   9.330   9.397  14.407 -0.1040  0.0240 -0.0723
 5990W        W24844   6.377   7.251   2.226 -0.0580  0.2162 -0.1423
 5991W        W24845   3.001   4.430  16.328 -0.1621 -0.2368  0.1121
 5992W        W24846  10.772  17.192   0.278 -0.0655  0.0512 -0.4138
 5993W        W24847  10.851  14.118   5.094 -0.1963 -0.3534  0.0861
 5994W        W24848   0.428   1.555   0.265 -0.0738  0.1531 -0.1194
 5995W        W24849   8.685  12.244   6.442 -0.1221  0.0470 -0.0671
 5996W        W24850   3.776  16.705   0.773 -0.1083  0.0143 -0.2306
 5997W        W24851   7.820   3.076  15.160  0.0958  0.0131 -0.0072
 5998W        W24852  16.919  11.318  12.341 -0.1923  0.0566 -0.0822
 5999W        W24853  17.367  10.244  13.712  0.0256 -0.1442 -0.0178
 6000W        W24854   8.681   3.222  15.016 -0.4165  0.3080 -0.2579
 6001W        W24855  12.006  13.657   0.415  0.0762 -0.0371  0.0936
 6002W        W24856  12.301   9.469  12.617 -0.0115 -0.1249  0.0196
 6003W        W24857   4.626   8.981   4.856 -0.1211 -0.0923  0.1988
 6004W        W24858   0.586  15.517   1.530  0.1489 -0.0328 -0.0688
 6005W        W24859   5.928   4.749   4.063 -0.0595  0.2391  0.1645
 6006W        W24860  15.323   0.153   2.852 -0.2144  0.0205  0.1429
 6007W        W24861   0.672   6.476   1.735  0.0124  0.1928  0.0983
 6008W        W24862  12.462  14.274  16.236 -0.0782 -0.1527 -0.3732
 6009W        W24863   7.237  14.957  13.447 -0.1512 -0.2427  0.0570
 6010W        W24864   8.211  14.585   4.125 -0.0272  0.1272 -0.0869
 6011W        W24865   5.368  11.560  14.577 -0.2114 -0.2393  0.0474
 6012W        W24866  14.704   9.328  15.932  0.4767 -0.5418  0.2701
 6013W        W24867   2.561  11.541  15.618  0.1326 -0.2989  0.2179
 6014W        W24868  13.192   2.179   2.995 -0.3455 -0.2582 -0.1977
 6015W        W24869  16.050   2.238  14.367 -0.2767 -0.0334  0.1389
 6016W        W24870  14.542   7.422   0.069 -0.0445  0.2604 -0.0061
 6017W        W24871  16.138  12.370  16.778 -0.1552  0.2381 -0.0659
 6018W        W24872  15.157   2.794   2.899 -0.0769 -0.0806  0.0359
 6019W        W24873  13.510  14.407  13.426 -0.0284 -0.0886  0.0582
 6020W        W24874   7.212  10.735  15.114 -0.2750 -0.2516  0.1299
 6021W        W24875   8.854  11.907  15.795 -0.0246  0.2282  0.1453
 6022W        W24876  14.417   4.159   0.733 -0.1333  0.3275  0.1528
 6023W        W24877   6.861   0.107   2.781  0.1036  0.0573  0.0021
 6024W        W24878  13.216  13.855   3.719  0.2001  0.0638  0.1610
 6025W        W24879  14.894   8.999   4.238 -0.2328 -0.4834  0.2175
 6026W        W24880   9.851  13.957   1.664 -0.0953  0.1393 -0.0040
 6027W        W24881  15.786  17.395   2.318  0.0176  0.2934 -0.0794
 6028W        W24882  16.586  12.376   4.738  0.2313  0.0650 -0.5083
 6029W        W24883   1.664   5.875   4.999 -0.0134  0.1042 -0.0481
 6030W        W24884   5.878   1.528   0.997  0.3021  0.1849  0.2124
 6031W        W24885   0.864   1.087  16.788  0.3658  0.1716  0.0348
 6032W        W24886  15.732  12.300   3.892 -0.3199 -0.3059  0.0011
 6033W        W24887  12.858   6.109  13.841 -0.1268 -0.2019  0.0173
 6034W        W24888   4.334   4.904  16.372  0.0528 -0.0250  0.2238
 6035W        W24889  15.179   3.754   3.156  0.3474  0.1075  0.3828
 6036W        W24890  12.671  14.910   0.785 -0.1876  0.0331  0.3687
 6037W        W24891  12.555   1.775   3.658  0.2678 -0.0057 -0.1573
 6038W        W24892   8.962  14.599  14.559  0.1351  0.1687 -0.0199
 6039W        W24893  14.287   4.579  13.232 -0.4086 -0.0964 -0.2149
 6040W        W24894   2.317  14.348   4.302  0.2431 -0.3201  0.0944
 6041W        W24895  13.011   8.766  15.203  0.3680 -0.0691  0.2886
 6042W        W24896   5.626   0.632  14.282 -0.1064 -0.0369  0.2493
 6043W        W24897   5.327  14.176   0.932  0.0506  0.0533 -0.0812
 6044W        W24898   5.270   0.751  16.879  0.0359  0.0078 -0.0313
 6045W        W24899   7.469  16.107   1.285 -0.0671  0.0820  0.0479
 6046W        W24900   4.157   4.262  13.185  0.0549 -0.0354 -0.1011
 6047W        W24901   8.576  13.353   0.316  0.2583  0.2197 -0.2298
 6048W        W24902   1.405   6.724  13.458 -0.0442 -0.0253 -0.0613
 6049W        W24903   0.908   6.660   3.566  0.0969 -0.1976  0.3616
 6050W        W24904   1.471  12.404  16.519  0.4344 -0.0685 -0.5076
 6051W        W24905  13.621   8.730   5.056  0.0493 -0.0611  0.1057
 6052W        W24906  14.663  13.271   2.560  0.5108 -0.2209 -0.0595
 6053W        W24907  15.935   8.743  16.327  0.1060  0.0511  0.1073
 6054W        W24908  16.338   8.357  13.220 -0.1715  0.2812  0.0070
 6055W        W24909  10.052   9.702   2.972  0.1407  0.1750 -0.0923
 6056W        W24910   9.119  16.897  17.200 -0.1197  0.0123 -0.1073
 6057W        W24911   1.422   5.656   3.762  0.0558  0.1130 -0.0389
 6058W        W24912  16.342   6.209  12.427  0.1402  0.3080 -0.0228
 6059W        W24913  13.404  12.636  14.740 -0.1715  0.2002  0.2149
 6060W        W24914   2.638  16.230   3.332 -0.0884 -0.2361 -0.0018
 6061W        W24915   6.136   1.139   1.855 -0.3194 -0.0057  0.2256
 6062W        W24916   1.155  16.652  16.969 -0.3700 -0.1058 -0.4658
 6063W        W24917   8.545  14.771   2.723 -0.1264 -0.1741  0.2020
 6064W        W24918   8.887   4.528  12.176 -0.0266 -0.1548  0.3124
 6065W        W24919  16.976  11.891   1.291  0.0583 -0.1436 -0.1842
 6066W        W24920  14.924   8.203   1.159 -0.1199 -0.2009 -0.2386
 6067W        W24921   4.435  15.344  15.083  0.0989  0.3558  0.0670
 6068W        W24922  11.169  13.049  16.092  0.1992  0.0302  0.0386
 6069W        W24923   8.851  17.360   5.140  0.2163  0.1644  0.0470
 6070W        W24924   1.011   4.249  16.546  0.0083  0.1375 -0.1403
 6071W        W24925   4.170   1.055   4.782  0.0993 -0.1187 -0.2579
 6072W        W24926   4.702   6.101   3.403 -0.2290  0.0124 -0.0733
 6073W        W24927   8.466   0.914   4.490 -0.2295  0.0557  0.1534
 6074W        W24928  14.348   9.698   3.461  0.0738 -0.1739  0.2758
 6075W        W24929  16.696   3.472  14.919  0.0855  0.1295  0.0773
 6076W        W24930   2.331  14.019  13.457 -0.2205 -0.0485  0.0667
 6077W        W24931  10.410   1.079   0.802  0.0180 -0.0726  0.1491
 6078W        W24932  13.277  13.040   2.879 -0.1968 -0.0610  0.0407
 6079W        W24933   7.583   0.829  17.205  0.0688 -0.2469 -0.0682
 6080W        W24934   4.469   4.857   2.803 -0.2115  0.0225  0.4433
 6081W        W24935   6.260   8.007  14.278 -0.2829  0.0213 -0.5109
 6082W        W24936  15.040   4.562  16.291  0.0184 -0.1504 -0.2270
 6083W        W24937   4.097  10.263  11.451  0.2960  0.0563 -0.3038
 6084W        W24938  15.773   6.494  16.533 -0.0883 -0.2180 -0.1889
 6085W        W24939   0.571   3.272   4.640 -0.2401  0.1358  0.0610
 6086W        W24940  16.142   0.984  16.744 -0.2166  0.1475 -0.2224
 6087W        W24941  12.878   6.278   2.927 -0.0694  0.1943  0.0577
 6088W        W24942  12.548   9.730   4.881  0.0541 -0.1008 -0.0187
 6089W        W24943   3.329  12.764   2.417  0.0413  0.0841  0.0137
 6090W        W24944   4.747  12.443   5.079 -0.0282  0.2198  0.1086
 6091W        W24945  14.317   9.665  16.102 -0.1581  0.1829  0.0675
 6092W        W24946  16.997  14.384   0.210 -0.1150 -0.0769  0.4108
 6093W        W24947  15.988   6.212   4.775  0.3667 -0.1181 -0.1515
 6094W        W24948   4.698   8.088  12.626 -0.0417  0.2066 -0.0855
 6095W        W24949  10.387   9.180  16.977  0.0877 -0.3160 -0.0825
 6096W        W24950  10.847   1.793   2.743  0.1026 -0.0971  0.0431
 6097W        W24951  13.122  11.668  17.239  0.1861 -0.1222  0.1349
 6098W        W24952   3.699  10.758  13.148 -0.2486  0.0676 -0.0785
 6099W        W24953   4.630   9.793   1.553 -0.0598 -0.0995  0.0352
 6100W        W24954   9.301   1.716  15.066  0.0873  0.3024 -0.0209
 6101W        W24955   0.629   3.993  11.947 -0.0619 -0.0592  0.0513
 6102W        W24956   0.491  17.366  16.248 -0.0786  0.2390 -0.1671
 6103W        W24957  14.522   8.538  15.102  0.0351 -0.0299 -0.3744
 6104W        W24958   8.925   3.678  11.992 -0.2627 -0.0337 -0.0168
 6105W        W24959   8.843  10.317   2.099  0.0383  0.0094  0.3442
 6106W        W24960  10.558  16.425   1.549 -0.3620 -0.1943 -0.1085
 6107W        W24961  11.620  16.846  13.738 -0.0825 -0.1506  0.1023
 6108W        W24962   4.706  15.953  16.281 -0.0706  0.2951 -0.0394
 6109W        W24963  16.249  15.826  16.515 -0.0604  0.1769  0.2477
 6110W        W24964   4.652   6.461   2.185  0.1161  0.0370  0.1134
 6111W        W24965   0.153  17.070  12.586  0.3606 -0.0944 -0.0108
 6112W        W24966   3.909   4.544  12.892 -0.1128 -0.1353 -0.1365
 6113W        W24967  14.260  15.749  12.923 -0.0149 -0.0888  0.2009
 6114W        W24968   4.979   0.452   1.608  0.0143  0.3529 -0.0930
 6115W        W24969   6.481   9.783   2.898 -0.0954  0.2786  0.1852
 6116W        W24970  15.627  13.792   1.646 -0.2782 -0.0726  0.0950
 6117W        W24971   9.427  12.415   4.535  0.0634  0.0653  0.0252
 6118W        W24972  13.719   0.641  15.357 -0.2668 -0.0885 -0.1325
 6119W        W24973   2.300   2.027   0.457 -0.0029 -0.0262 -0.0028
 6120W        W24974   8.255   9.075  13.590 -0.2725 -0.0448 -0.1971
 6121W        W24975  10.891   3.491   4.093 -0.1658  0.2755  0.1651
 6122W        W24976   8.536   6.358  16.092 -0.3254  0.2667 -0.0639
 6123W        W24977   4.775   1.866  13.350 -0.0404 -0.0009 -0.2141
 6124W        W24978   6.210   3.314  13.218  0.0175 -0.0306  0.0964
 6125W        W24979  11.263  10.525   0.237 -0.1296  0.2479  0.1381
 6126W        W24980   3.586   8.141  17.143 -0.1807 -0.1350  0.0636
 6127W        W24981   1.065   6.699  16.323  0.0218  0.1712  0.1839
 6128W        W24982  14.177  14.288   2.061  0.0913 -0.2038 -0.1133
 6129W        W24983   6.343  15.469  13.473 -0.0487  0.0913  0.0514
 6130W        W24984  10.692  12.198   3.376  0.0320 -0.0797  0.1166
 6131W        W24985   3.763   1.645   2.485  0.0511  0.2117 -0.1417
 6132W        W24986   5.709  14.184  13.746 -0.1985  0.1030  0.0347
 6133W        W24987  17.032  17.158   0.227  0.1270 -0.1680 -0.0442
 6134W        W24988   5.377   1.362  15.441 -0.0091  0.0636 -0.0116
 6135W        W24989  11.146  15.834   1.802 -0.1023  0.1708  0.0508
 6136W        W24990  11.302   2.227  13.633  0.1169 -0.0137  0.0264
 6137W        W24991   5.816  15.795   3.960  0.0186 -0.1372 -0.1023
 6138W        W24992   3.910  10.808   2.347  0.1774 -0.0299 -0.0354
 6139W        W24993   0.255  10.247   5.233  0.0032 -0.1853  0.0425
 6140W        W24994   6.615  11.878  13.166  0.1032  0.0237 -0.1421
 6141W        W24995  12.581   6.311   3.920  0.0970 -0.0564  0.0787
 6142W        W24996   2.676   9.330  15.812 -0.2952  0.0598  0.1750
 6143W        W24997  12.114   4.498   0.783 -0.0136 -0.1819 -0.0174
 6144W        W24998   2.691  10.402   3.085  0.0146 -0.2123  0.1501
 6145W        W24999  15.460  10.401  13.758  0.2201 -0.1420  0.3237
 6146W        W25000   6.810   1.137  13.315  0.1545 -0.0083  0.0063
 6147W        W25001   1.037   2.034  13.200 -0.1774 -0.1516  0.0161
 6148W        W25002  11.666   0.592  13.965 -0.0883  0.1807  0.2714
 6149W        W25003   1.861   2.904   4.500 -0.1290  0.1602  0.0101
 6150W        W25004   2.778  15.401  13.630  0.0860  0.0918 -0.2784
 6151W        W25005  15.747   8.109  12.037  0.0045  0.0239  0.1055
 6152W        W25006   7.443   6.557  16.960  0.3129  0.2068  0.0126
 6153W        W25007  15.588   4.596   4.244  0.0953  0.0212 -0.0016
 6154W        W25008  17.041   5.909   5.056 -0.0563 -0.1422 -0.1065
 6155W        W25009  15.914   4.518   1.060  0.1336 -0.0297 -0.3066
 6156W        W25010  12.996   1.744   1.261 -0.1436 -0.0626  0.0517
 6157W        W25011   3.171  11.180   3.390 -0.2202  0.1148 -0.0419
 6158W        W25012   8.416  15.725   4.805  0.3162 -0.1962  0.0990
 6159W        W25013   4.469   7.061   2.249  0.1559  0.0239  0.2594
 6160W        W25014   3.260   6.905   2.079 -0.0513 -0.1715  0.1592
 6161W        W25015  12.332   4.133   1.225 -0.0759 -0.2751 -0.0086
 6162W        W25016  13.908   8.930   3.220  0.2647 -0.0326  0.0959
 6163W        W25017  17.032   3.470   3.284  0.0013 -0.2649 -0.1930
 6164W        W25018   4.077  15.177  13.027 -0.0087  0.1717 -0.2386
 6165W        W25019   1.037   9.295  12.118 -0.1189  0.1938  0.2488
 6166W        W25020  11.158   7.420  13.167  0.1364 -0.2483  0.2091
 6167W        W25021   8.245   5.706   3.356 -0.1972 -0.2466 -0.0296
 6168W        W25022  14.634  16.320  14.706  0.0552  0.0359  0.0093
 6169W        W25023  10.196   3.191  16.581 -0.2459  0.0520  0.2182
 6170W        W25024  14.675  10.112  14.674 -0.2456 -0.0957 -0.3937
 6171W        W25025   8.466  14.307   2.625 -0.0900 -0.1529 -0.1232
 6172W        W25026   3.544   5.365   0.219  0.1324  0.1481 -0.0003
 6173W        W25027   1.058   5.919  15.808 -0.2388  0.1514  0.0157
 6174W        W25028   9.535  12.235   1.155 -0.1729 -0.0454  0.0516
 6175W        W25029   1.335   7.943   1.834 -0.3948 -0.1683  0.0232
 6176W        W25030  16.773   5.427  16.241 -0.2182 -0.0482  0.0189
 6177W        W25031   2.541   0.291  14.480 -0.2405  0.1807 -0.0138
 6178W        W25032   1.953   9.523  14.364 -0.3329  0.3257  0.1506
 6179W        W25033  13.447   2.584  16.503  0.0377  0.5750  0.1309
 6180W        W25034   6.987   8.658  16.091  0.0349 -0.0079  0.1401
 6181W        W25035  11.397   0.329   4.255  0.1689 -0.0454  0.0858
 6182W        W25036  16.143  10.460  12.076 -0.3195 -0.2840 -0.1131
 6183W        W25037  10.478   5.718   4.819  0.0254  0.1103  0.0833
 6184W        W25038  14.170   1.427   2.958  0.0620 -0.0048 -0.2096
 6185W        W25039   9.890   7.249  12.777 -0.0709  0.0453 -0.1315
 6186W        W25040   4.909  16.375   1.617  0.0458 -0.0955 -0.0573
 6187W        W25041   0.917  10.595  15.153  0.0543  0.0935 -0.3163
 6188W        W25042  14.996  10.909   4.028  0.0851  0.0859 -0.0179
 6189W        W25043   6.651   5.396  16.423  0.2754 -0.2196  0.2170
 6190W        W25044  14.777   4.380  13.213  0.2881 -0.0465  0.1680
 6191W        W25045  12.886  13.347  16.931  0.1084  0.0154 -0.0820
 6192W        W25046  16.762   1.115   3.085 -0.2725  0.0722  0.0490
 6193W        W25047   7.805  10.514   3.869 -0.0416 -0.0067  0.0695
 6194W        W25048   1.236  14.524   1.709 -0.0391 -0.0001  0.0100
 6195W        W25049  10.733  11.850  14.484 -0.0271 -0.3485  0.0330
 6196W        W25050   3.602   8.878  14.774  0.3039 -0.0406 -0.0869
 6197W        W25051  13.186   8.859   1.900 -0.2852  0.0419  0.3083
 6198W        W25052  12.881   0.068   0.117  0.2858 -0.1160 -0.2904
 6199W        W25053  16.149   0.665   4.232  0.1396  0.1083 -0.3452
 6200W        W25054   4.363  14.861  14.928  0.0711 -0.2257  0.3341
 6201W        W25055  16.438   2.909   1.813 -0.0042  0.0084 -0.0314
 6202W        W25056   5.046  17.193   2.956 -0.0702 -0.0656 -0.2515
 6203W        W25057   8.320  14.297   0.630  0.3157  0.2606  0.0485
 6204W        W25058  16.091   0.170   5.506 -0.0767  0.0179  0.2254
 6205W        W25059  12.517   2.677   2.101 -0.0128  0.0509 -0.0936
 6206W        W25060   4.496   5.459  15.549  0.1704 -0.3602  0.0176
 6207W        W25061  11.256   9.179  16.688 -0.2410 -0.0311  0.0873
 6208W        W25062   9.620   5.304  13.964 -0.1758  0.1586 -0.0351
 6209W        W25063  14.019   2.047   0.331 -0.0215  0.2801  0.0387
 6210W        W25064   4.115   8.179  17.103  0.3236  0.2157  0.0899
 6211W        W25065   7.243   1.090  12.640 -0.0327  0.1957 -0.0181
 6212W        W25066   1.217   7.809  12.411 -0.4254 -0.0008 -0.0845
 6213W        W25067   7.235  13.775   3.470  0.0156 -0.0762 -0.1133
 6214W        W25068   3.651  13.156   0.722 -0.0246 -0.0295  0.2275
 6215W        W25069   5.543   9.429  16.861  0.0888 -0.0221 -0.0278
 6216W        W25070   0.669  11.402   3.785  0.1232 -0.1209 -0.2920
 6217W        W25071   6.349   4.832  13.982 -0.1616 -0.3298 -0.1061
 6218W        W25072   9.380   6.588  15.658  0.3208 -0.0694  0.5605
 6219W        W25073  13.948   2.721  13.410  0.0687 -0.0732 -0.0516
 6220W        W25074   4.897  13.022   3.391 -0.2807  0.0163 -0.2324
 6221W        W25075   6.910  12.100   5.166 -0.1379 -0.0133  0.0114
 6222W        W25076   2.129   0.017   3.263  0.1022 -0.1218 -0.1210
 6223W        W25077  12.035  15.365   0.261  0.2236  0.0442 -0.3925
 6224W        W25078   9.018   5.786   0.162  0.0915 -0.2160  0.3209
 6225W        W25079   1.663   4.723   0.936  0.2702  0.0831 -0.3978
 6226W        W25080   5.002  11.974  12.547 -0.2799 -0.0734  0.1471
 6227W        W25081   8.082   0.505   3.208  0.0171 -0.0623 -0.1480
 6228W        W25082  11.093   0.500   0.615  0.1665 -0.2508 -0.1858
 6229W        W25083   3.341   3.542   1.522 -0.0136  0.2938 -0.2344
 6230W        W25084   2.815   7.130   1.932 -0.0088 -0.4822  0.2670
 6231W        W25085  16.438  16.826  14.526 -0.1213 -0.0810  0.1437
 6232W        W25086   7.129   1.914  12.917 -0.5628  0.1262 -0.0055
 6233W        W25087   6.418   9.914   0.485  0.1472 -0.0410 -0.1480
 6234W        W25088   0.704   8.988   1.129  0.0758  0.0603  0.0257
 6235W        W25089   7.393   9.666  12.924 -0.1773 -0.1219 -0.0838
 6236W        W25090  14.463   3.689   0.789  0.0763  0.2164 -0.0947
 6237W        W25091  14.888  10.254   0.460 -0.1010  0.0086 -0.1501
 6238W        W25092  13.343   0.111   0.271 -0.2105 -0.1417  0.0750
 6239W        W25093  17.043  11.473   1.561  0.1887 -0.2078  0.1076
 6240W        W25094  14.949  11.629   3.672  0.0992 -0.0255  0.1561
 6241W        W25095  15.484   9.724   4.219 -0.0244 -0.3775  0.0194
 6242W        W25096   0.590  15.493   4.383  0.3456 -0.0748  0.0398
 6243W        W25097  10.239   0.275  14.238  0.1222 -0.0821  0.1885
 6244W        W25098  10.703   9.824  17.091 -0.1976  0.1474  0.0730
 6245W        W25099   2.651  13.037   1.782 -0.0642 -0.1080 -0.2737
 6246W        W25100  13.485  13.979   3.078  0.0194  0.0005  0.0605
 6247W        W25101  14.896   4.839   2.285 -0.1631 -0.1373  0.1026
 6248W        W25102   5.584   3.548  14.237 -0.1729  0.0319 -0.0526
 6249W        W25103   0.236  11.308   4.405 -0.0049  0.0260 -0.3115
 6250W        W25104   2.934   5.243   3.253 -0.0636  0.2162  0.0010
 6251W        W25105   7.535  12.271   4.426 -0.0596 -0.1413 -0.0297
 6252W        W25106  12.927   3.538   1.550 -0.0605  0.0162 -0.1298
 6253W        W25107  12.069  14.838   2.147  0.0288  0.1588 -0.1980
 6254W        W25108   7.034   5.008   4.627 -0.1805  0.2573  0.0282
 6255W        W25109   4.363  11.134   1.582  0.0785 -0.0853  0.0556
 6256W        W25110   6.326   3.022  16.040  0.0773  0.1524 -0.1827
 6257W        W25111  10.669  12.364  14.258 -0.1297 -0.1091 -0.2133
 6258W        W25112  15.726   0.203   1.832 -0.2184  0.0945 -0.1225
 6259W        W25113  16.661  16.295  17.341 -0.1132 -0.0405 -0.1986
 6260W        W25114  15.405  11.439   0.945 -0.0054 -0.0769 -0.1993
 6261W        W25115   2.799   8.457  15.168 -0.1270  0.0920  0.1224
 6262W        W25116   8.627   2.635  13.559  0.3238 -0.2365 -0.1132
 6263W        W25117   8.850   6.243   5.377  0.2344 -0.1136  0.0496
 6264W        W25118   2.254  10.230   2.394 -0.2367  0.1920 -0.1312
 6265W        W25119   5.918  15.618   0.935 -0.2253 -0.1539  0.2495
 6266W        W25120   3.844  16.560  13.265  0.1878 -0.1297 -0.0916
 6267W        W25121   6.175   7.802  17.055 -0.0516  0.0818  0.3708
 6268W        W25122   4.589  13.125   0.663 -0.1810  0.0746  0.3591
 6269W        W25123  11.397   3.570  12.967 -0.1720 -0.2440  0.0766
 6270W        W25124  11.246  15.143  12.221  0.1909 -0.0451 -0.0876
 6271W        W25125  16.440  16.263  16.723 -0.2133  0.0954 -0.0110
 6272W        W25126  13.254   5.785   1.755  0.0425 -0.3924 -0.4167
 6273W        W25127   0.314   1.766  14.616 -0.0454  0.2135  0.1658
 6274W        W25128   0.244  10.186   2.700 -0.1163 -0.1642 -0.4999
 6275W        W25129   6.024  10.075   5.029 -0.0277  0.0529  0.1366
 6276W        W25130   5.596   6.584  12.966 -0.4127  0.1471 -0.1816
 6277W        W25131   2.878  12.510  17.272 -0.2360  0.3506 -0.1380
 6278W        W25132  14.831  15.754  16.564  0.1183 -0.1452  0.0183
 6279W        W25133  10.324  12.148   0.333  0.4326 -0.1435 -0.3106
 6280W        W25134  10.029  10.645   1.179 -0.1622 -0.0779 -0.0265
 6281W        W25135   7.378   9.310   2.572  0.3168  0.2390 -0.0219
 6282W        W25136   0.177   2.014   1.614  0.0561 -0.0603  0.0089
 6283W        W25137   2.933   3.635   3.260  0.1435 -0.2472  0.0049
 6284W        W25138   0.224   8.330   4.011 -0.0709 -0.0107 -0.1471
 6285W        W25139  17.025   8.902  16.429 -0.0949 -0.0273 -0.1448
 6286W        W25140   0.358  12.403  17.089  0.0475  0.2244  0.2356
 6287W        W25141   6.857  13.008   4.189  0.2759 -0.2526 -0.1216
 6288W        W25142   4.821  15.696  15.094  0.2683 -0.1355  0.0834
 6289W        W25143   9.197  14.535   1.107  0.0245  0.0131 -0.0659
 6290W        W25144   2.842   3.427  16.411  0.0050 -0.2462 -0.3780
 6291W        W25145   4.282   1.903   4.803  0.2168  0.2264  0.2279
 6292W        W25146   8.619   4.902  17.466 -0.1781 -0.3245 -0.1260
 6293W        W25147   1.026   3.346  15.926  0.1003 -0.2149  0.0173
 6294W        W25148  12.115   0.187   5.078 -0.0641 -0.0608 -0.0658
 6295W        W25149  12.001  11.512   4.132 -0.1577 -0.0017 -0.1611
 6296W        W25150   8.466   8.167  14.039 -0.1995  0.1587  0.0852
 6297W        W25151  11.030  11.148  14.155 -0.3230  0.0953  0.1826
 6298W        W25152   8.142  16.205  12.368  0.1360  0.0563  0.1059
 6299W        W25153   2.891  16.570   3.572 -0.1899 -0.0818 -0.2766
 6300W        W25154  13.234  10.481   3.958 -0.3239  0.1028 -0.0063
 6301W        W25155   4.159  16.149   3.263 -0.0845  0.0555 -0.0430
 6302W        W25156   6.647   6.951  14.417 -0.0163 -0.2942  0.2920
 6303W        W25157  11.187   6.608  12.740 -0.2359 -0.3946  0.0589
 6304W        W25158   3.863   5.454  14.495 -0.2040 -0.1907 -0.0348
 6305W        W25159   2.938  10.901  17.371  0.0090 -0.1275  0.0785
 6306W        W25160   6.500   7.497  14.395 -0.2195  0.2062 -0.0584
 6307W        W25161   4.681  12.112   2.926 -0.3602  0.2232 -0.1344
 6308W        W25162   1.048   5.427  14.473 -0.1220 -0.1499  0.2102
 6309W        W25163  16.272  15.845  14.737  0.3951  0.1665 -0.0882
 6310W        W25164  13.049  16.787  15.060  0.0139  0.4329  0.0973
 6311W        W25165  10.618   6.248  13.388 -0.2239  0.0483 -0.0001
 6312W        W25166   3.381   3.109  12.924 -0.1817 -0.0308  0.1887
 6313W        W25167  15.191  15.544  16.976 -0.0209 -0.0323  0.1848
 6314W        W25168   7.431  12.025   3.155 -0.0670 -0.0024 -0.0428
 6315W        W25169   4.863   2.676  15.917  0.0845  0.2663  0.0351
 6316W        W25170  12.877  16.469  14.709 -0.3463 -0.1445  0.0395
 6317W        W25171  16.858   4.491  16.254  0.4495 -0.0888  0.1554
 6318W        W25172  15.799  11.335   4.020  0.1570 -0.0484 -0.2810
 6319W        W25173  12.517  15.796   4.886 -0.2592  0.1770 -0.1267
 6320W        W25174  15.870   7.331  14.176 -0.1189  0.1813  0.0613
 6321W        W25175  13.655  11.641  16.930  0.2636  0.0422  0.0804
 6322W        W25176  15.921   1.475  15.315  0.3011 -0.1730  0.0907
 6323W        W25177   6.685  14.330   0.329  0.1358  0.0473  0.0782
 6324W        W25178   4.175  15.922   5.087  0.0424  0.0594 -0.0111
 6325W        W25179   2.026   3.409  14.011  0.0322 -0.2049 -0.2232
 6326W        W25180   3.396   2.453   1.115 -0.1134  0.0027  0.0050
 6327W        W25181   1.890  17.380   3.661  0.4393 -0.0117 -0.0221
 6328W        W25182  11.946   3.847   1.467  0.2471 -0.0860 -0.0342
 6329W        W25183   3.869   9.562   4.371  0.0175  0.2275  0.1083
 6330W        W25184  11.257  15.785   2.856  0.1338  0.1216 -0.0536
 6331W        W25185   8.560   7.462   3.043 -0.2238 -0.0317 -0.2019
 6332W        W25186  14.382  12.283   4.723  0.2733  0.1787 -0.1737
 6333W        W25187   0.486   5.039  14.716 -0.1608 -0.0329 -0.4077
 6334W        W25188  16.795  11.705   4.730 -0.0603  0.1558  0.0608
 6335W        W25189  11.016  12.732   0.133  0.1726 -0.1408 -0.2130
 6336W        W25190  12.259  10.676  12.968 -0.1018 -0.0178 -0.1230
 6337W        W25191   1.615   9.943   1.351  0.3590  0.1258  0.3668
 6338W        W25192  14.509   0.599   5.098 -0.1290 -0.0593 -0.0096
 6339W        W25193  15.640  15.187   6.352  0.2977  0.1125 -0.0604
 6340W        W25194  14.069  12.829   3.348  0.0929  0.1475 -0.0188
 6341W        W25195   7.057   4.060   2.186  0.0735  0.3645 -0.0110
 6342W        W25196   2.247  16.291   4.713 -0.2212 -0.2916 -0.0405
 6343W        W25197  15.285   5.374  15.070 -0.1427  0.0831 -0.2735
 6344W        W25198   5.431  11.434  15.106 -0.0267  0.1420 -0.0950
 6345W        W25199   2.561  11.631   2.087 -0.6405 -0.3882  0.2539
 6346W        W25200  14.300   5.537   0.874 -0.2126  0.1149  0.2517
 6347W        W25201   2.012  16.188  14.122 -0.0517 -0.2427 -0.1074
 6348W        W25202  10.334   4.311  15.823 -0.1310  0.0161  0.1538
 6349W        W25203  12.300  17.169   1.588  0.0019 -0.2716  0.3412
 6350W        W25204  16.062   8.382  15.866 -0.3085  0.1976  0.1350
 6351W        W25205   2.392   5.139   0.976  0.2036 -0.2290 -0.2996
 6352W        W25206  12.071  15.995  16.489  0.3226  0.4126  0.0912
 6353W        W25207  16.618   0.357   0.092 -0.0776 -0.0616  0.0765
 6354W        W25208  10.808   3.713  14.566 -0.1352 -0.0135 -0.0981
 6355W        W25209  12.248  14.916  16.918  0.0428 -0.0488  0.1081
 6356W        W25210  11.991  12.687   0.407  0.1076  0.3022 -0.1642
 6357W        W25211   7.475  11.332  13.815 -0.0152  0.0264  0.0605
 6358W        W25212   2.358   9.180  16.189 -0.3973 -0.0166  0.0085
 6359W        W25213   6.001  13.210  16.989 -0.3880 -0.0190 -0.2520
 6360W        W25214  16.664   2.654  16.306  0.0616  0.1166  0.1183
 6361W        W25215   9.850   1.354  13.992 -0.1573 -0.2018 -0.1293
 6362W        W25216   8.101   2.257   0.701  0.0024  0.0470 -0.1211
 6363W        W25217   4.885   5.372   3.962 -0.0642  0.0873  0.3177
 6364W        W25218  11.007   4.269   4.400 -0.1202  0.2581  0.2777
 6365W        W25219   0.774  16.518   0.408 -0.0322  0.1343 -0.1103
 6366W        W25220   9.435   2.547   5.246  0.0691 -0.1274  0.1772
 6367W        W25221  16.253   1.469  14.340 -0.3126 -0.2801 -0.1164
 6368W        W25222  12.428  15.392  13.547  0.2372  0.2761 -0.0777
 6369W        W25223   0.362   8.422  16.013 -0.1157 -0.1008 -0.3960
 6370W        W25224   7.683  15.712  12.381 -0.0774 -0.2822 -0.3233
 6371W        W25225  16.348   4.094   1.573  0.0738  0.4686  0.2449
 6372W        W25226   5.840   7.684   4.579 -0.2211  0.0966 -0.1805
 6373W        W25227   1.235   7.753  13.038 -0.0728 -0.0201 -0.2104
 6374W        W25228   7.977  14.606   2.718 -0.0252 -0.2819 -0.0381
 6375W        W25229  13.920   7.624  15.510 -0.0373  0.1757  0.2151
 6376W        W25230   0.624  15.854  13.908 -0.2622  0.1490 -0.3196
 6377W        W25231   2.395   4.327  13.810 -0.0873  0.0562  0.1883
 6378W        W25232   3.127   1.669   4.416 -0.0900 -0.2932  0.4648
 6379W        W25233  16.343   2.822  17.353  0.1933  0.0165 -0.0287
 6380W        W25234   2.296   0.941  12.280 -0.2123 -0.1177 -0.2417
 6381W        W25235  16.930  16.085   2.678 -0.1061  0.0745 -0.1331
 6382W        W25236  13.036  17.053   5.851  0.0050 -0.0319  0.1150
 6383W        W25237   0.194  11.516   2.502  0.2225 -0.0453 -0.2066
 6384W        W25238   6.092  16.356   2.343 -0.3002  0.4139 -0.0356
 6385W        W25239   7.379   8.007  14.853 -0.2456 -0.0029 -0.3144
 6386W        W25240   8.851   3.638  13.818  0.0355  0.1344  0.0390
 6387W        W25241   3.553  11.308   1.042  0.0101 -0.0617 -0.1029
 6388W        W25242   3.508   2.503   3.871  0.1141 -0.0677 -0.0194
 6389W        W25243   4.379   0.680  16.512  0.3535 -0.3393  0.1385
 6390W        W25244   5.012   8.597   2.343  0.0665  0.0626  0.1528
 6391W        W25245  11.669   6.174  14.140  0.2733  0.0228  0.1175
 6392W        W25246   4.157   5.551   1.286 -0.0278 -0.1981  0.1061
 6393W        W25247  10.408  14.660  13.286  0.0272 -0.0681  0.1130
 6394W        W25248  16.024   2.460   0.072  0.1504  0.1692 -0.1441
 6395W        W25249   3.848   1.269  14.068  0.0790  0.0623  0.0314
 6396W        W25250   0.477   3.874  17.292  0.1735  0.0281  0.0491
 6397W        W25251   6.471  17.333   4.512  0.2879 -0.0389 -0.1044
 6398W        W25252   7.071  11.506   2.001  0.1455 -0.0062  0.0810
 6399W        W25253   2.420   0.797   1.324 -0.1392  0.1970 -0.0583
 6400W        W25254   8.738   4.321   3.344  0.1708 -0.3465  0.0420
 6401W        W25255   7.278   4.011   0.375  0.1858 -0.0423  0.3509
 6402W        W25256  16.222  16.799   2.209 -0.1060 -0.4516  0.2557
 6403W        W25257   7.905  10.294   4.409 -0.2410 -0.3281  0.0932
 6404W        W25258  10.116   2.316  14.766 -0.0541  0.0400  0.1652
 6405W        W25259  11.422  11.178   1.099 -0.0180  0.2110 -0.1729
 6406W        W25260   4.131  15.592   5.582 -0.1389 -0.2627  0.3927
 6407W        W25261   8.874   9.988   1.668  0.1477  0.0248  0.5393
 6408W        W25262  11.307  11.695  14.743 -0.1221 -0.1127 -0.2050
 6409W        W25263   4.380  10.514  11.808 -0.1808 -0.1767  0.0222
 6410W        W25264   8.347   3.080  15.361  0.0934  0.1296  0.2072
 6411W        W25265  11.959   9.510   4.089  0.1204 -0.0294  0.2982
 6412W        W25266   5.500  11.432  16.080  0.0008 -0.0625  0.0822
 6413W        W25267   0.066   0.893  13.652  0.0038  0.1745  0.1535
 6414W        W25268  16.563   5.483   2.847  0.1163 -0.0233  0.2820
 6415W        W25269   8.383  14.679  16.658  0.1454  0.3766 -0.0705
 6416W        W25270   9.760   2.834   4.986  0.2301  0.1845 -0.2260
 6417W        W25271   4.259   1.991   2.967  0.1343  0.1488 -0.2249
 6418W        W25272  14.234   0.162  12.726  0.0883 -0.1657  0.0996
 6419W        W25273   1.026  15.294   3.527 -0.0291 -0.0336  0.0568
 6420W        W25274   6.414   0.895   4.035 -0.2226 -0.1648  0.1425
 6421W        W25275   7.506   1.354  16.880 -0.2555  0.3291 -0.0351
 6422W        W25276  10.677   5.024  17.308 -0.1426 -0.1345  0.1171
 6423W        W25277   1.204   6.247  15.428 -0.0035  0.0133  0.1940
 6424W        W25278   5.396   4.836   5.113  0.2941 -0.0347 -0.2096
 6425W        W25279   5.876   4.991  12.519  0.0369 -0.2687 -0.3561
 6426W        W25280  10.003   1.827  14.815 -0.6899 -0.0090 -0.0921
 6427W        W25281   3.754  16.440   2.906  0.2601 -0.1638  0.1252
 6428W        W25282  14.413  13.045   3.072  0.3129  0.1428  0.1503
 6429W        W25283  13.847  13.155  15.403  0.0169  0.1107  0.2257
 6430W        W25284   0.379   6.264   0.480 -0.0236 -0.2211 -0.1390
 6431W        W25285  10.348   4.059   0.144 -0.0461 -0.3550 -0.1944
 6432W        W25286   2.244  17.378   5.454  0.1800 -0.2458  0.3688
 6433W        W25287  11.622   4.013   3.586  0.0840  0.0656  0.1537
 6434W        W25288   3.470   9.406   3.505  0.2065 -0.1834  0.0128
 6435W        W25289  15.234  12.279  13.848  0.2034 -0.1279  0.1995
 6436W        W25290   9.574   3.485   5.043  0.0483 -0.0406  0.1166
 6437W        W25291  15.626   7.901  16.792  0.0487 -0.0574 -0.2023
 6438W        W25292  13.410   3.911   1.100  0.3967 -0.0651  0.1674
 6439W        W25293  10.032  13.152   1.745  0.0646 -0.0726  0.1581
 6440W        W25294  15.512   9.291   1.648 -0.2592  0.2270  0.1985
 6441W        W25295   8.932  11.260  12.220 -0.1234  0.0469  0.0685
 6442W        W25296   5.504   6.819  16.647 -0.0082 -0.0868 -0.2482
 6443W        W25297   3.050  14.555  14.065  0.0045 -0.0532  0.1871
 6444W        W25298   9.088   0.460  12.906 -0.2202  0.0008  0.3274
 6445W        W25299   7.864  11.086  13.099 -0.2076 -0.1562  0.1726
 6446W        W25300  14.803  13.513   4.799  0.1793 -0.2693  0.0150
 6447W        W25301  16.398   5.884  15.444  0.0458  0.2962  0.0586
 6448W        W25302   9.448  14.789  13.480 -0.0591 -0.0570  0.1724
 6449W        W25303  12.322   5.515  13.609  0.1882 -0.0181 -0.0990
 6450W        W25304  13.346  11.192  16.966 -0.0753 -0.1942  0.0271
 6451W        W25305   5.211   8.135   4.752  0.0368 -0.2020  0.1477
 6452W        W25306   6.990  10.678   3.366 -0.2869 -0.3973  0.4138
 6453W        W25307  15.337   3.547   2.094 -0.2555  0.1626  0.3849
 6454W        W25308  11.923  13.082   2.160 -0.4046 -0.0966 -0.0587
 6455W        W25309   0.344  11.016   1.214 -0.2905  0.0215  0.0092
 6456W        W25310   0.725  16.514   1.018 -0.2353  0.1159 -0.2700
 6457W        W25311  10.930  15.016   2.490 -0.0938 -0.1863  0.1730
 6458W        W25312  13.606   4.778  12.112 -0.3045  0.3363 -0.0884
 6459W        W25313  13.811   7.098  16.366 -0.0431  0.3211 -0.1189
 6460W        W25314   6.117   0.576  14.071 -0.1020 -0.1065 -0.1774
 6461W        W25315   7.147  16.844   4.979 -0.0342 -0.0897 -0.0673
 6462W        W25316   3.258   7.707  11.946  0.1664 -0.1598 -0.5174
 6463W        W25317  16.096   9.940   2.063  0.0322  0.3272 -0.0296
 6464W        W25318  13.400   9.777   2.712  0.1128  0.1553 -0.3635
 6465W        W25319  10.754  13.471   4.183  0.1826 -0.0279 -0.0634
 6466W        W25320  10.158  12.782   5.223 -0.0934 -0.0761  0.2024
 6467W        W25321   8.578   7.437  16.947  0.0862  0.4715 -0.0619
 6468W        W25322  14.503   8.073   3.559 -0.0071  0.1557 -0.1261
 6469W        W25323   6.508  16.230  11.919 -0.0497  0.0652 -0.0320
 6470W        W25324   2.070  13.763   5.189 -0.0214 -0.1883  0.2430
 6471W        W25325   6.518  13.513  15.374  0.1366  0.1200 -0.0462
 6472W        W25326  11.759  14.738  16.093 -0.1762 -0.0357 -0.0030
 6473W        W25327   2.712   2.887   3.744 -0.1556  0.0517 -0.1813
 6474W        W25328  11.390  11.301  12.637  0.0384 -0.2030 -0.2545
 6475W        W25329   7.215  14.157  14.029 -0.1034 -0.0164  0.4551
 6476W        W25330  10.648   6.952  16.242  0.2682  0.0116  0.0233
 6477W        W25331   5.394   2.342  11.516 -0.1843  0.0106 -0.1287
 6478W        W25332  16.333   4.119  16.330  0.1992  0.0382 -0.1095
 6479W        W25333  14.060   7.191   2.799 -0.1009 -0.0934 -0.5294
 6480W        W25334  11.008  11.658  17.423 -0.0053  0.1298  0.0186
 6481W        W25335   2.139   9.850   0.644  0.1700 -0.2321 -0.0230
 6482W        W25336   8.989   2.359   3.599  0.0121 -0.2815 -0.1071
 6483W        W25337  12.625   4.660   2.374  0.3002 -0.0676 -0.1123
 6484W        W25338   5.682   5.529   2.409 -0.5000  0.1852 -0.4443
 6485W        W25339   9.125   1.600   1.059  0.1218  0.0289  0.0684
 6486W        W25340   6.904   9.703   3.262  0.0052 -0.0460 -0.0837
 6487W        W25341  17.246   6.468   1.741  0.2319  0.3608  0.3329
 6488W        W25342   8.394  12.629   0.721 -0.0442  0.1377  0.1866
 6489W        W25343  15.882  13.232  15.943 -0.0930  0.1259 -0.0641
 6490W        W25344   8.033  15.736   1.962 -0.0387  0.0447  0.2986
 6491W        W25345   7.947  15.101   1.501  0.2035  0.1492  0.1110
 6492W        W25346   2.283   5.203   2.611  0.2020 -0.0440  0.1430
 6493W        W25347   4.224  15.620   0.365  0.3097  0.2417  0.0671
 6494W        W25348  16.904  14.948  17.125 -0.4730 -0.5296 -0.0997
 6495W        W25349   3.275  15.497   4.967 -0.1617  0.0288  0.1666
 6496W        W25350   2.024   1.193   5.010 -0.2605  0.0492 -0.2945
 6497W        W25351   4.430   8.023  16.629 -0.2023 -0.1472 -0.3416
 6498W        W25352   2.041   6.186  15.494  0.1721  0.0029  0.0254
 6499W        W25353  15.348   9.963   5.148  0.2157 -0.1435 -0.1443
 6500W        W25354   9.029   4.604   6.130  0.3551  0.1239  0.4149
 6501W        W25355   9.314   5.049   2.282  0.0807  0.0566  0.0228
 6502W        W25356   9.168  16.233  17.186  0.2051  0.0352  0.1879
 6503W        W25357  16.228   0.452   2.829 -0.1395  0.0806 -0.1254
 6504W        W25358  14.652   6.344  15.650 -0.4195  0.2089 -0.0854
 6505W        W25359  14.714  16.598   1.514  0.2545  0.2886  0.3369
 6506W        W25360   0.185   3.528   4.944 -0.4101 -0.0669  0.1086
 6507W        W25361  14.960  15.213   2.504 -0.1625 -0.2475 -0.1373
 6508W        W25362   0.951  15.618   1.023 -0.0558  0.0322  0.1271
 6509W        W25363   6.065   6.449   5.226 -0.0691 -0.1304  0.1768
 6510W        W25364   7.678   2.004   0.945 -0.0073  0.0692 -0.2337
 6511W        W25365   8.260   0.026  14.691 -0.0417 -0.0667 -0.0394
 6512W        W25366  16.826   9.658   2.766  0.1092 -0.0251 -0.0339
 6513W        W25367   0.920   7.170  15.785 -0.0423 -0.1508  0.1375
 6514W        W25368   0.576   9.296  12.212  0.0666 -0.2600  0.1774
 6515W        W25369  11.032  11.426   3.362  0.1004  0.0610 -0.1650
 6516W        W25370  12.109  16.473  16.238  0.1943  0.2446 -0.1358
 6517W        W25371   6.391  14.889  16.202  0.1422 -0.1671 -0.0409
 6518W        W25372  14.072  12.622  13.626  0.1817 -0.0153  0.2796
 6519W        W25373   6.129   6.733  17.376 -0.0756  0.0692 -0.2860
 6520W        W25374   0.323  10.684  16.402  0.4388 -0.1348 -0.2316
 6521W        W25375   2.621   0.439   2.672 -0.3090 -0.0081  0.2110
 6522W        W25376   9.802   0.914  15.986 -0.0482 -0.2487  0.1498
 6523W        W25377   7.474  10.621   3.070 -0.1458 -0.1201  0.1146
 6524W        W25378   7.956   4.917  14.683 -0.0019 -0.1112 -0.2318
 6525W        W25379  12.028  14.759  14.163 -0.0626  0.2088  0.4385
 6526W        W25380   2.379   5.321   1.849  0.0307 -0.0344  0.2423
 6527W        W25381   6.683   1.606  13.154 -0.0708  0.1667 -0.1243
 6528W        W25382  15.283   9.383  15.844 -0.2718  0.0613 -0.1397
 6529W        W25383   9.922   2.410  12.386 -0.1904  0.0432 -0.2623
 6530W        W25384  15.959  11.317   5.188  0.0357  0.4026  0.1529
 6531W        W25385   3.469   2.861   3.557  0.2852  0.3201  0.3455
 6532W        W25386  14.615   5.550   2.287  0.1042  0.0113 -0.2614
 6533W        W25387  16.096   7.993  15.190 -0.1065  0.0502 -0.0637
 6534W        W25388   1.636   8.697  12.759 -0.1356  0.0912 -0.1655
 6535W        W25389  11.373  13.682  12.873  0.3505 -0.0727  0.4496
 6536W        W25390   1.161   2.848  12.441  0.1767  0.1706  0.0091
 6537W        W25391   3.457  13.851   1.122  0.0843  0.0475  0.1101
 6538W        W25392   4.711   0.954   4.112  0.1642 -0.1270  0.3179
 6539W        W25393   5.195  16.533  14.399  0.1109 -0.1767  0.1625
 6540W        W25394  14.875  13.962   5.645 -0.1036  0.3127  0.2047
 6541W        W25395   6.699   8.103  13.360 -0.2026  0.0551  0.1411
 6542W        W25396  10.690   7.225  16.770  0.3490 -0.2123 -0.3173
 6543W        W25397   8.600   8.408  15.723  0.1427 -0.2024 -0.0123
 6544W        W25398  16.199   4.408  14.951  0.1637 -0.0772  0.1690
 6545W        W25399   0.520  10.675   2.584  0.0421  0.0969  0.1291
 6546W        W25400   6.279   4.055  12.666 -0.1109  0.0464  0.0964
 6547W        W25401  16.479   1.583  17.398  0.1380 -0.1608 -0.2670
 6548W        W25402   0.511  12.938   4.934  0.1692  0.1525  0.1830
 6549W        W25403   9.932  17.358   4.177 -0.3435 -0.0374 -0.0463
 6550W        W25404  16.170   0.599  17.111  0.0666 -0.0281 -0.1533
 6551W        W25405  16.825   1.296   5.018 -0.3104 -0.0649 -0.0342
 6552W        W25406   4.132   7.593   1.566  0.1151  0.0090 -0.0822
 6553W        W25407   4.061  14.089   3.358 -0.2781  0.0101 -0.1976
 6554W        W25408   8.961   3.921   4.801 -0.1446  0.2184  0.2451
 6555W        W25409  11.266   5.191  12.841 -0.3693 -0.4864  0.0993
 6556W        W25410  15.150  10.592  15.392 -0.2211  0.0473  0.0103
 6557W        W25411   0.491   3.510  12.481 -0.1041 -0.0675 -0.1332
 6558W        W25412   8.020   1.862   4.289 -0.2295  0.0701  0.0440
 6559W        W25413   6.067   5.556  13.326 -0.1080  0.0083 -0.3331
 6560W        W25414  15.546   3.298  17.344  0.1294  0.2659  0.3083
 6561W        W25415  12.961   0.329  14.259  0.0339 -0.1202 -0.2628
 6562W        W25416   1.873   4.907  16.679  0.3206 -0.0677 -0.0419
 6563W        W25417   2.290   8.261  13.739 -0.2304  0.2701 -0.0973
 6564W        W25418  15.260  14.890  14.742  0.0590  0.0634  0.3240
 6565W        W25419  12.947   6.910   2.796 -0.3840  0.1547 -0.1681
 6566W        W25420  11.633  12.820   4.982 -0.1392  0.2301 -0.0200
 6567W        W25421  12.954   1.174   3.243  0.3298 -0.1329 -0.0461
 6568W        W25422   5.693   1.576   4.246 -0.2404 -0.2139 -0.5337
 6569W        W25423   7.975  15.328   0.593 -0.2514  0.1869 -0.0919
 6570W        W25424   3.835   6.045   5.153  0.1310 -0.1298  0.0288
 6571W        W25425  13.837   8.018  14.176  0.0261  0.2775 -0.1792
 6572W        W25426   6.566   6.791   1.141 -0.1471  0.0155  0.0691
 6573W        W25427  11.354   7.389  16.380 -0.1394 -0.0792  0.1015
 6574W        W25428   9.704  11.730  12.960 -0.0801  0.2674 -0.0969
 6575W        W25429  15.258   8.195   0.787  0.2210 -0.0356  0.0733
 6576W        W25430  11.670   3.196   2.983  0.2082 -0.1644  0.1763
 6577W        W25431  14.723   8.060  16.040 -0.2841  0.0207  0.0066
 6578W        W25432   6.103  11.861   3.526 -0.0213 -0.0392  0.3430
 6579W        W25433   6.701  17.282   4.020  0.3221  0.2653  0.1242
 6580W        W25434   3.140  15.553   1.439  0.1945  0.1068 -0.1353
 6581W        W25435  10.266   0.948  15.734  0.1261  0.0153 -0.0551
 6582W        W25436   3.951  10.511  15.957 -0.0198 -0.0293  0.3787
 6583W        W25437   4.356   1.735  13.146  0.1366 -0.1645 -0.1306
 6584W        W25438  16.807  10.744   2.526 -0.1567 -0.0589  0.0046
 6585W        W25439   5.085   5.564   2.336 -0.0874 -0.1160 -0.0750
 6586W        W25440   7.467  15.083  17.471 -0.1570 -0.0783  0.0870
 6587W        W25441   3.994   8.711  16.235 -0.2251 -0.2892  0.0633
 6588W        W25442   6.431  12.026  13.626  0.1574  0.1928  0.0392
 6589W        W25443  10.050   8.982  14.727  0.2024 -0.1084  0.3079
 6590W        W25444   6.589  10.417  15.345 -0.4223 -0.1509  0.0548
 6591W        W25445   1.815  12.178  14.452 -0.0468  0.2773  0.2163
 6592W        W25446  12.700  15.017   5.586  0.0901  0.2320  0.1018
 6593W        W25447  14.066   6.627  16.250  0.0726 -0.1666 -0.3081
 6594W        W25448  14.170  11.012   1.775 -0.0780 -0.2750  0.1479
 6595W        W25449   7.237   2.216  12.320 -0.3590  0.5386 -0.0301
 6596W        W25450   2.646   6.382  14.453  0.1955 -0.0300 -0.0468
 6597W        W25451  10.988  14.414  15.222 -0.2678 -0.3153 -0.2347
 6598W        W25452   5.095   5.960   2.005  0.0354  0.0989 -0.0012
 6599W        W25453   4.118  10.855  17.305  0.1051 -0.1483  0.0779
 6600W        W25454  16.451  10.655  12.885  0.1983 -0.3905  0.0408
 6601W        W25455   1.772   7.887  12.476  0.2767 -0.2474 -0.2261
 6602W        W25456   8.688  12.801   1.605  0.0216 -0.1767  0.0165
 6603W        W25457   5.812   1.095  14.272 -0.2002  0.0670 -0.0079
 6604W        W25458  14.119   1.023  13.889 -0.0430 -0.1402  0.0334
 6605W        W25459   7.707  14.875   3.416  0.0286 -0.0223 -0.0012
 6606W        W25460   3.181   3.880   4.066 -0.0446  0.1340 -0.0132
 6607W        W25461   9.619   4.886  17.386 -0.1144 -0.1730  0.2196
 6608W        W25462   2.005   7.333  17.141  0.0217 -0.0459 -0.1702
 6609W        W25463  11.435   6.144   0.723  0.0842 -0.0986  0.1618
 6610W        W25464  17.193  12.765  13.502 -0.1446  0.0157 -0.1015
 6611W        W25465  16.585   3.716  13.523 -0.1470  0.1908  0.3720
 6612W        W25466  16.411   4.377   2.835 -0.0623 -0.2709  0.1149
 6613W        W25467   7.792  13.293   4.593 -0.0075  0.0526  0.0312
 6614W        W25468   7.238   2.068   4.249  0.0823 -0.1683 -0.0418
 6615W        W25469   4.333   5.558   2.189 -0.3371 -0.0652 -0.1094
 6616W        W25470  11.759  13.487  12.432 -0.1275 -0.2866 -0.0927
 6617W        W25471  13.656  13.865   0.720  0.0756 -0.1393  0.0454
 6618W        W25472  16.168  16.825  14.995 -0.1554  0.1213 -0.1560
 6619W        W25473   6.889  13.492  14.682  0.2840  0.0431 -0.1208
 6620W        W25474   4.677  16.194   1.020 -0.0615  0.0670  0.0081
 6621W        W25475   2.700  14.208  15.985 -0.0083  0.1255  0.0646
 6622W        W25476   3.368   0.054  14.175  0.1069 -0.0602  0.0078
 6623W        W25477   7.793  12.656  15.224 -0.2295  0.2773  0.0755
 6624W        W25478  12.302   0.350   1.671 -0.1702  0.0250 -0.0622
 6625W        W25479   7.582   6.562  15.496 -0.1452  0.1449  0.2324
 6626W        W25480   0.920   1.895  14.118  0.2344 -0.2390 -0.0770
 6627W        W25481  14.333  12.028   3.900 -0.1503 -0.0806  0.1910
 6628W        W25482   7.705  12.918   1.528 -0.1140 -0.0132  0.0092
 6629W        W25483   6.795  16.169  15.038  0.3596 -0.5521 -0.0638
 6630W        W25484   7.761  10.394   0.811  0.1342 -0.3774  0.0768
 6631W        W25485   9.936   3.304   0.783 -0.0304 -0.0864  0.1496
 6632W        W25486   6.192  15.431   4.127  0.1200  0.1504  0.0646
 6633W        W25487   9.900   5.697  16.408 -0.0566  0.1513  0.0282
 6634W        W25488   3.679   4.809   3.246  0.0742 -0.2002  0.0924
 6635W        W25489   4.269   9.989  14.970 -0.0891 -0.0350 -0.0214
 6636W        W25490   2.754  14.217  12.758 -0.2325  0.2369  0.2047
 6637W        W25491  10.018  12.324   2.794  0.0673  0.1839 -0.4768
 6638W        W25492  15.958  12.790   5.095 -0.0444  0.0524  0.1841
 6639W        W25493   1.920   0.563   4.216  0.5770  0.1652 -0.0755
 6640W        W25494  15.475   5.185   4.372 -0.3113 -0.1370  0.2482
 6641W        W25495  13.624  11.667   4.026  0.1804  0.1298 -0.3877
 6642W        W25496  16.242   4.584  13.474  0.1616 -0.1259  0.0466
 6643W        W25497   9.058   0.790  13.237  0.0514  0.1041  0.2684
 6644W        W25498  17.165   2.345  16.003 -0.0029  0.3764 -0.0444
 6645W        W25499  11.032   5.467   0.206  0.1584 -0.2256 -0.0671
 6646W        W25500   7.960  11.469  14.082  0.1860  0.1486 -0.1739
 6647W        W25501   5.361   2.183   4.047  0.2141  0.0899  0.1783
 6648W        W25502   2.716  13.225  16.819  0.1671 -0.2745  0.0077
 6649W        W25503  15.639   8.343   3.049 -0.0164  0.1242 -0.2179
 6650W        W25504   5.557   9.355  14.254  0.1230 -0.1407 -0.0651
 6651W        W25505   6.330   3.208  13.756 -0.1665 -0.0624 -0.0305
 6652W        W25506  15.141   3.543   4.954  0.0453 -0.0325 -0.0727
 6653W        W25507   8.156  11.620  16.967 -0.0002  0.3165  0.0719
 6654W        W25508   4.200   0.809   0.945 -0.0937 -0.0360  0.0520
 6655W        W25509   1.235   4.409   3.087 -0.0419  0.0490 -0.2886
 6656W        W25510   3.843  12.464  16.060  0.1626  0.0122  0.1398
 6657W        W25511  13.188   3.417   2.453 -0.3223  0.1082 -0.0268
 6658W        W25512  10.047   0.052   1.218  0.1296  0.2700 -0.0733
 6659W        W25513   3.510   9.025   3.067  0.4860 -0.1200  0.2273
 6660W        W25514  15.353   5.011  14.100 -0.1903 -0.0086  0.0063
 6661W        W25515  14.648  13.227   4.254 -0.1988  0.2053 -0.0953
 6662W        W25516   9.391  12.741   2.050 -0.2248 -0.0754 -0.0906
 6663W        W25517   8.819   8.899  15.839  0.1155  0.0818 -0.1196
 6664W        W25518   2.712   7.350  16.087 -0.2342  0.0142  0.1599
 6665W        W25519   8.561  15.002   3.949  0.0796 -0.0939 -0.1141
 6666W        W25520  13.127  15.029   1.606 -0.0792 -0.1457  0.1095
 6667W        W25521  15.037   6.580  15.938  0.0424 -0.0955 -0.0205
 6668W        W25522  14.042  16.288  12.755 -0.4007  0.1836 -0.2889
 6669W        W25523   2.920  15.229   2.758  0.1210  0.1957  0.0842
 6670W        W25524  14.518   6.877   2.990 -0.0330 -0.0487  0.0098
 6671W        W25525  15.858   9.241  13.809 -0.1695  0.2386  0.0083
 6672W        W25526   1.984  11.985   3.155 -0.0877 -0.0608  0.1040
 6673W        W25527  11.031   0.998  15.149  0.0796  0.1489  0.3169
 6674W        W25528  16.189  10.968   1.867 -0.1244 -0.1401 -0.0744
 6675W        W25529   4.182  14.396   4.834  0.0455  0.3750  0.2104
 6676W        W25530  15.970   3.227   3.199 -0.0541  0.1431 -0.0458
 6677W        W25531  11.319   1.374   4.636 -0.0854 -0.1616  0.0442
 6678W        W25532   0.947  13.589   4.239 -0.3121  0.3444  0.0106
 6679W        W25533  15.860  15.132  16.547  0.2592 -0.0482 -0.1349
 6680W        W25534  14.816  14.101  12.446 -0.2866 -0.1469  0.0176
 6681W        W25535   6.600  11.388   0.264  0.0341 -0.1605 -0.0293
 6682W        W25536   1.972   2.912   1.904 -0.1254 -0.3216  0.0884
 6683W        W25537   3.193   2.420  15.862  0.0497  0.2096 -0.0680
 6684W        W25538  13.107   1.339   0.974 -0.0381  0.0628 -0.0672
 6685W        W25539   9.014  12.116  14.444  0.0705 -0.0103 -0.1527
 6686W        W25540   4.580   7.607  13.220 -0.1826 -0.4183  0.2742
 6687W        W25541   1.721  15.360   4.980  0.2577  0.1496 -0.2099
 6688W        W25542   1.559  16.664  12.789 -0.1422  0.0271  0.1313
 6689W        W25543   5.816  15.105  15.103 -0.3843  0.0584  0.1588
 6690W        W25544  15.927  11.689   2.133 -0.1879  0.2200 -0.1115
 6691W        W25545   7.038   2.599  14.542  0.0635  0.1688 -0.3049
 6692W        W25546   2.280  11.990   4.587 -0.2644 -0.1525  0.3588
 6693W        W25547   3.706   4.208   5.488  0.3613 -0.2941 -0.1204
 6694W        W25548   3.727   4.408  12.353 -0.1122 -0.2038 -0.2624
 6695W        W25549  10.512   2.417  13.223 -0.0424  0.2173  0.2309
 6696W        W25550   0.567   3.057   2.409 -0.2899  0.0873  0.0486
 6697W        W25551   7.386  15.675  17.419  0.3320 -0.3620 -0.0079
 6698W        W25552   2.280   4.318   4.368 -0.2043  0.0313 -0.3677
 6699W        W25553   6.624   9.407  16.333  0.2205  0.2144  0.1411
 6700W        W25554   0.499   6.458  12.125  0.1108  0.2129  0.1125
 6701W        W25555  13.221  12.367   3.205  0.0149  0.2212  0.1016
 6702W        W25556   3.599   9.687   0.714  0.2626  0.1876  0.1785
 6703W        W25557   0.004  13.402   4.403  0.1458 -0.0010 -0.0005
 6704W        W25558  13.598   0.974   5.262 -0.1269  0.0617 -0.0843
 6705W        W25559  12.328   2.647   3.377  0.0439  0.4448  0.0556
 6706W        W25560  10.859   4.722   3.493 -0.2325  0.1350 -0.1163
 6707W        W25561   6.903  16.379   1.852  0.0749  0.0174 -0.1151
 6708W        W25562  15.226   7.659   4.985 -0.1030  0.1252 -0.1205
 6709W        W25563   3.577  15.295   3.342  0.3191 -0.2327 -0.0763
 6710W        W25564   4.421   5.013   1.849 -0.3731  0.0848  0.0418
 6711W        W25565   6.521  13.496  13.937  0.1027  0.0751  0.1105
 6712W        W25566   9.653   3.737  16.010  0.1636  0.1280 -0.0239
 6713W        W25567  11.539  13.693  13.339 -0.1971 -0.2412  0.0365
 6714W        W25568   7.113   8.319   3.797 -0.1818  0.1808  0.2185
 6715W        W25569  12.873   6.021  14.364 -0.0125  0.0983 -0.3664
 6716W        W25570   4.877   2.931  17.481 -0.0772  0.5062 -0.0291
 6717W        W25571  14.323  17.314   5.088  0.2202  0.3003  0.4847
 6718W        W25572  16.402   8.514   0.194 -0.1572  0.1538 -0.2014
 6719W        W25573   5.859   7.901  15.907  0.0459 -0.2199  0.2186
 6720W        W25574  14.584   5.701   5.302  0.1772  0.0037 -0.1071
 6721W        W25575  14.714  14.230  13.907  0.1287 -0.0493  0.1311
 6722W        W25576  11.007   4.255  13.600  0.0072 -0.0585 -0.2946
 6723W        W25577  17.258   1.623   4.336  0.4275  0.0437  0.1272
 6724W        W25578  11.127   4.676   5.133  0.0277 -0.1512  0.0446
 6725W        W25579  12.747  12.973  14.025  0.0477  0.0349 -0.2201
 6726W        W25580   5.031   1.137  12.806  0.0288  0.1556  0.1125
 6727W        W25581  16.629   0.423   3.670 -0.2403  0.0793  0.0655
 6728W        W25582  12.047   8.183   1.052  0.0891 -0.0351  0.1987
 6729W        W25583   1.752  14.935  14.027  0.1862 -0.4471  0.0303
 6730W        W25584  12.770   4.381   3.624  0.4091  0.1753 -0.0123
 6731W        W25585  11.089   4.215  16.372 -0.3300 -0.0253 -0.2562
 6732W        W25586   4.187   2.965  16.506  0.0057  0.0801 -0.3589
 6733W        W25587   0.202  16.741   3.954  0.1141  0.1612  0.3714
 6734W        W25588  13.028   0.012   4.095 -0.1553  0.0675  0.1808
 6735W        W25589   8.314   3.076   4.980  0.1349 -0.1305 -0.1167
 6736W        W25590  16.567  14.203   3.325 -0.0679 -0.1053  0.2342
 6737W        W25591   8.905  15.544   3.906  0.0378  0.1584 -0.1581
 6738W        W25592  12.661   1.793  16.108 -0.5311  0.1593 -0.0716
 6739W        W25593   2.523  13.374   5.154  0.1127  0.0517 -0.0568
 6740W        W25594   2.174   0.165   1.323  0.1182 -0.0557  0.1368
 6741W        W25595  12.789   6.652   1.150  0.1241 -0.1501  0.1037
 6742W        W25596  14.902   8.461  14.796 -0.1539 -0.0871  0.1201
 6743W        W25597   9.362   9.507   3.553 -0.1570 -0.0941 -0.2242
 6744W        W25598   9.488   9.629   1.783  0.0973 -0.0359 -0.1641
 6745W        W25599  10.581   2.947  15.420  0.4279 -0.2186  0.3701
 6746W        W25600   8.332   2.773  16.965 -0.0543 -0.0483  0.0726
 6747W        W25601   9.220   0.997   2.743  0.0992  0.0186  0.4597
 6748W        W25602  16.804   0.749  16.695 -0.1724 -0.2084 -0.3919
 6749W        W25603  12.545   0.588  14.997 -0.0161 -0.0810 -0.1617
 6750W        W25604  14.138   7.795   4.768 -0.0764  0.2208 -0.0764
 6751W        W25605   5.481  14.480  17.303 -0.0510  0.0899 -0.1442
 6752W        W25606   9.162   3.139   2.806  0.2028 -0.1255 -0.0037
 6753W        W25607   5.646   5.058  16.758  0.0615  0.1788 -0.3353
 6754W        W25608   9.146   4.233   3.056 -0.1725 -0.0356 -0.1224
 6755W        W25609  12.796  12.188   0.448 -0.3860  0.1161  0.3287
 6756W        W25610  17.249   6.916  15.800 -0.1631 -0.0829  0.0676
 6757W        W25611   4.626  10.400   5.218 -0.1526 -0.2385  0.2102
 6758W        W25612  12.295  15.843   3.653 -0.0105  0.0145 -0.1553
 6759W        W25613   5.399  13.900   0.526  0.1772 -0.1409 -0.1177
 6760W        W25614   7.815   1.852  16.910 -0.0007  0.3491 -0.0215
 6761W        W25615   3.618  17.200  13.824 -0.0030  0.0872  0.4508
 6762W        W25616   4.017  12.860   0.940 -0.0483  0.1566 -0.0266
 6763W        W25617   4.231  10.174   1.931 -0.0308 -0.0883 -0.1239
 6764W        W25618   3.953   3.607  12.456  0.0410 -0.3414  0.1528
 6765W        W25619  12.177  11.731  17.333 -0.0151  0.2042  0.1701
 6766W        W25620   0.099   9.726   3.111 -0.1784 -0.0349 -0.1137
 6767W        W25621   7.631   7.925   3.374  0.0451 -0.2445  0.0396
 6768W        W25622   3.796  15.858  12.676  0.1112  0.2716  0.0580
 6769W        W25623   3.150   9.792   3.454 -0.0300  0.0912 -0.0265
 6770W        W25624   2.146  12.513   2.280 -0.1226 -0.0109  0.1051
 6771W        W25625  10.065  12.765   4.049  0.1386  0.0250 -0.0384
 6772W        W25626  12.850  14.490  13.784  0.0317 -0.1707  0.0176
 6773W        W25627   7.338   1.271  16.428 -0.1545 -0.0195  0.3525
 6774W        W25628  10.645  11.352  12.867  0.1851  0.0432 -0.2158
 6775W        W25629  14.978   5.450   3.216  0.0794 -0.2404  0.1457
 6776W        W25630   0.747  10.218   3.601 -0.0512 -0.0936 -0.2916
 6777W        W25631  14.659   9.500   5.749 -0.1022 -0.1703 -0.0197
 6778W        W25632   2.353  10.306   0.822  0.2697 -0.1550 -0.0292
 6779W        W25633   3.357   9.401  14.938 -0.0978  0.0067  0.1457
 6780W        W25634  11.362  11.858  16.046  0.0418 -0.4311 -0.3430
 6781W        W25635   5.854  16.281  15.136  0.0434  0.1810 -0.3682
 6782W        W25636   6.209   4.025   3.785  0.1695 -0.0034 -0.2976
 6783W        W25637   1.350   4.891  16.401  0.0184  0.0670 -0.2787
 6784W        W25638  13.885  11.501  15.522  0.2227 -0.2031 -0.3716
 6785W        W25639   7.562   2.725  15.831 -0.0617 -0.2148  0.3432
 6786W        W25640   7.707  11.925   4.792  0.1048  0.1680  0.2196
 6787W        W25641   6.480  15.874  16.407 -0.0146  0.2430  0.3457
 6788W        W25642  12.922  15.476  14.158  0.1659  0.0539  0.1691
 6789W        W25643  12.127   7.024   4.804 -0.1161  0.0048 -0.2181
 6790W        W25644   4.263   1.169  13.887 -0.2825  0.3264 -0.1501
 6791W        W25645  11.559  10.837   1.860 -0.2323 -0.1435  0.0757
 6792W        W25646   5.822  17.054   0.628 -0.2407 -0.0331  0.4870
 6793W        W25647   7.301  13.465  16.763  0.1011 -0.1817 -0.0880
 6794W        W25648  11.783   0.033   3.643 -0.4018  0.0377 -0.0605
 6795W        W25649   8.828   3.962   2.129  0.0035  0.0500 -0.0940
 6796W        W25650  14.693   6.780  14.177 -0.2481 -0.1405  0.2557
 6797W        W25651  13.359   0.863  15.054 -0.0203 -0.0012  0.1930
 6798W        W25652   8.239   1.041   1.832  0.1073 -0.1184 -0.2409
 6799W        W25653  14.471  16.058   4.253 -0.3126 -0.0862  0.1219
 6800W        W25654   1.110  16.020  14.257 -0.0680 -0.0330 -0.0385
 6801W        W25655   0.120  12.293   1.682  0.0374  0.1466 -0.4986
 6802W        W25656   6.928  11.151  13.578  0.4449 -0.0820 -0.5306
 6803W        W25657  12.069  11.637  13.104  0.1171  0.0185 -0.4108
 6804W        W25658   6.346  12.907  16.130  0.2353  0.0400  0.2333
 6805W        W25659  12.128  10.190  13.927 -0.0666  0.0327  0.0837
 6806W        W25660   2.744   2.068  16.668  0.2190  0.0454 -0.1998
 6807W        W25661   6.543   4.761  15.812  0.0938 -0.3073  0.0892
 6808W        W25662   1.986   3.897   4.413  0.1584  0.2513  0.0114
 6809W        W25663   7.992   6.271  14.898  0.0193  0.0109 -0.0036
 6810W        W25664   5.170  12.041   1.457  0.2036 -0.2393  0.0118
 6811W        W25665  15.953   1.285   3.053  0.0148 -0.1699  0.0552
 6812W        W25666   9.573  14.303   1.406  0.1830  0.1123  0.3613
 6813W        W25667   8.432   7.769   3.464  0.2484 -0.0845 -0.0523
 6814W        W25668   4.741  11.152   2.400 -0.0636 -0.0605  0.0004
 6815W        W25669  14.051   7.024   4.980  0.0862  0.0558 -0.0789
 6816W        W25670   7.495   5.262  13.447  0.0188 -0.1485 -0.0561
 6817W        W25671  11.844   7.561   4.581 -0.1492 -0.0511 -0.1462
 6818W        W25672   3.015  13.361  13.720  0.1446  0.2046 -0.1985
 6819W        W25673   9.793   6.186   2.579  0.0105  0.0647  0.1801
 6820W        W25674   9.354  14.526   4.383  0.2190  0.1456 -0.2726
 6821W        W25675   0.574   4.343   1.243  0.0103  0.1676 -0.0310
 6822W        W25676   7.621   5.821   4.033 -0.0812 -0.3257 -0.0530
 6823W        W25677  13.236  13.126   5.271 -0.0909 -0.0645  0.1460
 6824W        W25678   4.375  11.873  15.532 -0.1041 -0.0190 -0.0963
 6825W        W25679   3.222  11.517  14.727 -0.0901 -0.2568  0.1486
 6826W        W25680   7.676  11.117   1.524  0.1363  0.3248 -0.0169
 6827W        W25681   2.888  15.193  15.286  0.0231 -0.0083 -0.0954
 6828W        W25682  16.261   2.839   2.372 -0.0203  0.0710  0.0954
 6829W        W25683  16.802  10.772  16.553  0.2189  0.1002 -0.1142
 6830W        W25684  16.369  15.622   5.129 -0.0239  0.0166 -0.1451
 6831W        W25685  15.607   0.067   4.376  0.0967 -0.0405  0.1474
 6832W        W25686   9.841   2.285   0.401  0.0824  0.2915 -0.0754
 6833W        W25687  13.607   4.375   0.854 -0.1641  0.4487 -0.3492
 6834W        W25688   3.830   2.141   0.579  0.1063  0.2548  0.0261
 6835W        W25689   4.989   6.029   1.112  0.0749 -0.1064 -0.0384
 6836W        W25690  11.072   7.785   3.445  0.2480  0.1644 -0.1928
 6837W        W25691  11.447  10.028  14.597  0.0772  0.0457  0.3747
 6838W        W25692  11.419  12.778  12.649  0.2549  0.1517 -0.2053
 6839W        W25693  13.271  14.226   1.317  0.2958  0.0525  0.0833
 6840W        W25694   2.822   6.095  15.655  0.2656  0.0136 -0.1059
 6841W        W25695   4.319   6.791  14.220 -0.0251  0.2122  0.1371
 6842W        W25696  12.410   7.232  15.949 -0.1341  0.1920  0.2298
 6843W        W25697  14.839  16.369   4.232 -0.0719  0.0290  0.2532
 6844W        W25698   7.899   3.901   1.351  0.1537 -0.1356 -0.0212
 6845W        W25699   5.254  17.332   5.681 -0.0468 -0.0455  0.3052
 6846W        W25700   5.153   9.760  15.635 -0.4927  0.0957 -0.0882
 6847W        W25701  11.955   5.380  17.436 -0.0047 -0.1399 -0.0132
 6848W        W25702  11.860   4.781  16.389  0.0203  0.0946 -0.1321
 6849W        W25703   0.853  12.508  17.339  0.2361  0.0651 -0.1137
 6850W        W25704   2.209   8.167  16.446  0.2115  0.0013  0.0775
 6851W        W25705  14.064   4.563   0.803  0.3740 -0.1192  0.0316
 6852W        W25706   7.078   4.463  12.701 -0.0091 -0.2573 -0.0845
 6853W        W25707   9.960   8.962   4.148 -0.1131  0.0243 -0.3448
 6854W        W25708  13.513  10.455   1.122 -0.2277 -0.1724 -0.1733
 6855W        W25709  13.997  11.637  16.375  0.0661  0.0446 -0.0529
 6856W        W25710   9.568   4.675   3.170  0.1654 -0.0231  0.1247
 6857W        W25711  12.689   3.478  14.033  0.2217  0.0571 -0.2748
 6858W        W25712   6.747  10.471   2.135 -0.0658 -0.1181  0.3684
 6859W        W25713  16.059  14.641  15.161 -0.0370 -0.1614  0.1898
 6860W        W25714  11.497   2.970   4.581  0.2540  0.1358 -0.2874
 6861W        W25715  15.647  11.074  12.523  0.1329 -0.2010  0.2142
 6862W        W25716  13.436   7.980  14.864 -0.1051  0.4071 -0.1236
 6863W        W25717   8.022   9.720  14.100 -0.0307  0.0730  0.0649
 6864W        W25718   4.932  16.859   1.566 -0.1343  0.0220  0.1800
 6865W        W25719   1.228  14.712  15.987 -0.1334 -0.1725 -0.4483
 6866W        W25720   0.389   3.113  16.054 -0.0231  0.2008  0.0574
 6867W        W25721  15.616   1.262   4.125 -0.3988 -0.0180 -0.1189
 6868W        W25722  16.166  15.867   0.001  0.0917  0.4230  0.0890
 6869W        W25723   5.361   9.564   4.321  0.2846  0.2204  0.2544
 6870W        W25724   8.359  15.672  17.406 -0.1945 -0.0616  0.2978
 6871W        W25725   8.017  14.288   3.621 -0.0506 -0.0938 -0.0098
 6872W        W25726  11.419   7.816   4.476 -0.0265 -0.0870  0.0161
 6873W        W25727   7.356   0.806   4.052 -0.0192 -0.0681  0.0674
 6874W        W25728   0.953   9.500  13.686  0.2535 -0.1865 -0.2202
 6875W        W25729   0.928   9.975  14.031 -0.1181  0.0699  0.0204
 6876W        W25730   2.164   4.351   2.878  0.2026  0.3341 -0.1383
 6877W        W25731   7.288   1.302   3.900 -0.1143 -0.0724 -0.3163
 6878W        W25732  14.101  11.364   4.967  0.0224  0.0542  0.0793
 6879W        W25733  13.414   0.965  12.315  0.0425  0.1473  0.2026
 6880W        W25734  10.253   6.181  15.816  0.0208 -0.2606  0.2111
 6881W        W25735   7.986  13.006   1.972 -0.0035 -0.2211  0.0810
 6882W        W25736   4.737   9.988  15.195 -0.1198  0.3082 -0.2137
 6883W        W25737   7.976   2.666  15.453 -0.1410  0.0781  0.1945
 6884W        W25738   9.997  15.644   3.879 -0.2682 -0.2746 -0.2046
 6885W        W25739   1.055   0.933  12.804 -0.0029  0.3027  0.3785
 6886W        W25740   7.431  11.230  15.024  0.5094  0.0708  0.0865
 6887W        W25741   7.031   5.690  17.229 -0.0847 -0.2610  0.3987
 6888W        W25742   8.923  12.444  15.762  0.1305  0.1740 -0.2334
 6889W        W25743   1.451  10.685   0.562 -0.2267 -0.0274  0.0555
 6890W        W25744  16.948  13.381   4.137 -0.2050 -0.0236 -0.2225
 6891W        W25745  10.191  15.082  12.431 -0.0303  0.2172  0.1802
 6892W        W25746   2.725   3.961   4.475 -0.0353  0.1121  0.0810
 6893W        W25747   9.558  14.548   0.006  0.1330 -0.2778 -0.1629
 6894W        W25748  15.045  16.151  14.954  0.0232 -0.0046  0.2612
 6895W        W25749  11.277  16.502   3.642  0.0646  0.0296  0.0942
 6896W        W25750   2.471   9.146  13.257 -0.0941 -0.0214  0.1090
 6897W        W25751   1.439  12.569   4.415 -0.2158  0.0309 -0.0249
 6898W        W25752  15.171  11.483  12.365 -0.2966  0.0629  0.1173
 6899W        W25753  10.974   2.221   5.070 -0.0048  0.1906  0.2047
 6900W        W25754  10.751  16.322   2.422 -0.2520 -0.2024 -0.1932
 6901W        W25755   2.605  14.648   0.206 -0.1174  0.1447  0.0791
 6902W        W25756   2.024  15.856   0.044 -0.0321 -0.0902 -0.0509
 6903W        W25757   4.943   7.959  15.893 -0.1109 -0.2503 -0.3729
 6904W        W25758   7.069  12.119  13.117  0.2578  0.1754  0.0221
 6905W        W25759   1.308   8.072   1.349 -0.1260  0.3777  0.1745
 6906W        W25760  12.415   2.502   0.347  0.4413  0.0554 -0.0180
 6907W        W25761   1.374  10.762   1.536  0.1912 -0.4358  0.0761
 6908W        W25762   4.455   1.442  17.131 -0.1699 -0.3387 -0.0848
 6909W        W25763   3.282   0.657  17.470  0.3820  0.0467  0.2453
 6910W        W25764  17.310  12.674   6.360 -0.0687 -0.0391  0.2082
 6911W        W25765  10.423   4.987  14.120  0.0281 -0.0869 -0.0238
 6912W        W25766   9.067   6.175  17.250 -0.0933  0.0949 -0.1526
 6913W        W25767  11.153   3.439  16.665 -0.2691 -0.2044 -0.1979
 6914W        W25768  16.670   0.731   5.068  0.1423 -0.1214 -0.1162
 6915W        W25769  16.686   4.598   0.065 -0.1252  0.3564 -0.0584
 6916W        W25770   2.291   7.310  16.518 -0.0085  0.0840 -0.1295
 6917W        W25771   5.265  11.374  15.637  0.4157 -0.3100  0.0983
 6918W        W25772   8.617   2.545  16.113 -0.0881  0.3000 -0.0836
 6919W        W25773   0.833  13.844  14.826 -0.0764 -0.3152  0.1135
 6920W        W25774   2.308   1.086  16.565 -0.0000  0.2448  0.1005
 6921W        W25775   2.776   1.205  12.353  0.2914 -0.2172 -0.1911
 6922W        W25776  16.411  12.339   5.481  0.1179 -0.0231  0.4965
 6923W        W25777   6.683   5.404   3.910 -0.0180  0.1463  0.2616
 6924W        W25778  16.238   8.801   1.066  0.1458 -0.2108 -0.2839
 6925W        W25779   6.434   1.357   0.134  0.0704 -0.0801  0.2491
 6926W        W25780   1.981  15.776  14.457  0.1008 -0.2129 -0.2961
 6927W        W25781   4.492   2.177   4.382  0.0198 -0.3402 -0.0823
 6928W        W25782   4.130  11.338  17.313  0.0812  0.0673 -0.0736
 6929W        W25783   1.276   3.743  13.552  0.2239  0.0761  0.0872
 6930W        W25784  16.396   1.240   3.450  0.2688  0.0579  0.0256
 6931W        W25785  10.589   3.705  16.928 -0.0456  0.0238  0.1846
 6932W        W25786   9.953   1.503   2.190 -0.0139 -0.3147  0.0157
 6933W        W25787   9.767   9.131   1.785  0.0506  0.1401 -0.0254
 6934W        W25788   6.054  17.172  16.788  0.1106 -0.2742 -0.1142
 6935W        W25789   0.653   1.752   2.626 -0.3684 -0.0190  0.0228
 6936W        W25790  13.294  14.713   0.366 -0.2583  0.1188  0.2244
 6937W        W25791  15.949   5.548  12.242  0.2888 -0.0419  0.2417
 6938W        W25792   1.532   3.117  16.985 -0.0868 -0.0545  0.0683
 6939W        W25793   9.184  16.506  12.685  0.0768  0.0298 -0.1127
 6940W        W25794  12.245   2.264  16.554 -0.0332  0.2045  0.3127
 6941W        W25795  16.649  14.464  12.784  0.0379 -0.0183  0.1097
 6942W        W25796  13.547   8.222   2.691 -0.0396  0.0451 -0.0450
 6943W        W25797   6.951  16.326   3.911  0.0328 -0.1102  0.0435
 6944W        W25798  10.619   7.866   3.220 -0.0568 -0.1429 -0.1263
 6945W        W25799   3.313   1.273  16.298  0.0252 -0.0955 -0.4940
 6946W        W25800   3.080  16.150   0.689 -0.2677  0.1212  0.0286
 6947W        W25801   6.075   5.212  12.080  0.2106  0.0805  0.1836
 6948W        W25802   1.632   3.066  14.195  0.1289 -0.0075  0.0065
 6949W        W25803   5.680   8.496  14.008 -0.0236 -0.0186 -0.0272
 6950W        W25804   3.923  12.455  13.985 -0.0715 -0.1888 -0.1953
 6951W        W25805  12.080  13.881   2.511 -0.1732 -0.0151 -0.0084
 6952W        W25806   9.232   3.044  12.686  0.1010 -0.1940  0.0569
 6953W        W25807   3.399  13.313   0.258 -0.2282  0.1560  0.2439
 6954W        W25808   7.387   9.468  13.396  0.0196  0.0130  0.0533
 6955W        W25809   5.282   9.244  17.270 -0.1256 -0.1010 -0.0312
 6956W        W25810   7.574  15.339   1.836 -0.0719  0.0056 -0.1181
 6957W        W25811   3.435  15.584  17.337 -0.3076 -0.2951 -0.2558
 6958W        W25812   9.602  14.228  16.807 -0.1911  0.0923 -0.0231
 6959W        W25813   3.345  11.590  14.232 -0.2181 -0.2211  0.1688
 6960W        W25814   2.904   8.874  15.546 -0.0128 -0.3433  0.1893
 6961W        W25815  14.081   8.237  13.132 -0.1601  0.2323 -0.4186
 6962W        W25816  10.739   6.396  12.467 -0.1494 -0.1371  0.1701
 6963W        W25817  10.961  12.439  13.875 -0.1303  0.0861  0.2444
 6964W        W25818  13.960   1.676   2.343 -0.0717  0.0396  0.1636
 6965W        W25819  12.152  11.690  14.406 -0.3774 -0.0918  0.0011
 6966W        W25820  12.033   4.973  13.238  0.0166  0.3339 -0.2687
 6967W        W25821  13.750   1.698  16.356 -0.3391 -0.0719  0.0019
 6968W        W25822   0.606   1.796   4.491 -0.0177  0.0083  0.2641
 6969W        W25823  14.246   6.452   3.890  0.3543 -0.3565  0.0847
 6970W        W25824   9.876   7.713  17.446 -0.2363 -0.3031 -0.1027
 6971W        W25825   2.907   2.792  16.125 -0.1598  0.1115 -0.0941
 6972W        W25826  13.341   6.267  13.782 -0.0702  0.1356 -0.2303
 6973W        W25827   9.311   1.412  15.536 -0.0258  0.0559  0.2102
 6974W        W25828   6.225  10.420  12.508  0.2850  0.1689 -0.3782
 6975W        W25829   9.323   0.092   2.198  0.2959  0.2994  0.1157
 6976W        W25830   0.836  16.346  17.333  0.1404 -0.1062  0.0181
 6977W        W25831   6.265   6.187  15.387  0.1694 -0.1591  0.0955
 6978W        W25832  15.328   0.579   1.765 -0.1114 -0.2218  0.1883
 6979W        W25833  14.475  14.617   5.608  0.0921 -0.2756  0.2307
 6980W        W25834   4.967   5.111   4.548  0.0246  0.1239  0.4348
 6981W        W25835  12.045   1.638   5.596 -0.0440 -0.0916  0.0607
 6982W        W25836  14.972   8.081  16.832 -0.2170 -0.2699  0.1060
 6983W        W25837   5.150   3.004  13.551  0.0079  0.2471 -0.3338
 6984W        W25838   9.128   7.691   2.791  0.2030 -0.3477 -0.0809
 6985W        W25839  15.257   2.255   4.138 -0.0531  0.2418  0.1109
 6986W        W25840  10.179   5.029  17.119  0.0330 -0.0867  0.2462
 6987W        W25841   8.315  16.976  14.071 -0.1792 -0.0525  0.0353
 6988W        W25842  17.157  12.360  16.987  0.3674  0.0664 -0.1356
 6989W        W25843  11.208  10.154  13.386  0.2127 -0.1305  0.2124
 6990W        W25844   5.264  11.642  16.470 -0.1151  0.1250  0.1330
 6991W        W25845  16.206   4.913   3.660 -0.2985 -0.3605 -0.0645
 6992W        W25846  11.283  11.097   5.229  0.1887 -0.1815 -0.0684
 6993W        W25847   0.200   1.719   5.240 -0.3943  0.1737 -0.2590
 6994W        W25848   4.741  16.899  12.216  0.0924  0.0598  0.0199
 6995W        W25849  10.592  15.743  15.035 -0.0497  0.0873 -0.0327
 6996W        W25850   3.475   5.679  15.031  0.1047  0.0264  0.1009
 6997W        W25851  11.261   2.465  16.263  0.2005  0.1659  0.1166
 6998W        W25852   5.263  15.792  15.341  0.1556  0.0526  0.0113
 6999W        W25853   6.348  13.108   4.223  0.0780  0.1634  0.0874
 7000W        W25854  15.934   5.211   4.534  0.2856  0.1052  0.1603
 7001W        W25855   5.287  11.507  12.544  0.0140 -0.1643  0.1261
 7002W        W25856   7.120   7.517  17.024  0.1929 -0.0816 -0.5922
 7003W        W25857  10.831  13.312  15.834  0.0158 -0.1384  0.0671
 7004W        W25858  10.749   6.727  16.706  0.0723  0.1318 -0.0179
 7005W        W25859  16.491  11.074  12.533  0.0594 -0.2533 -0.1281
 7006W        W25860   3.542  13.442   3.066 -0.1259  0.1459  0.1668
 7007W        W25861   6.490  16.301   3.057 -0.0257 -0.1771  0.1574
 7008W        W25862   6.870   1.130   4.127 -0.2938  0.0421  0.2424
 7009W        W25863   0.204  11.156   3.587  0.2578  0.2296 -0.0429
 7010W        W25864   8.601   6.152   0.810 -0.0845  0.0917  0.2208
 7011W        W25865   4.943  11.791   5.153  0.1967  0.0681  0.0153
 7012W        W25866  10.994  10.222  14.853 -0.0334 -0.2857  0.0730
 7013W        W25867  13.577  11.247   3.691 -0.0878  0.0298 -0.1035
 7014W        W25868   8.869  17.059  14.196  0.1030 -0.0037  0.0102
 7015W        W25869   9.982  13.527   1.363 -0.2411 -0.1015 -0.2559
 7016W        W25870  10.214  13.224   4.853 -0.1508 -0.0454  0.2458
 7017W        W25871   7.870   9.029   0.098  0.1652  0.0123 -0.1618
 7018W        W25872   5.409  11.151  17.461 -0.0977 -0.0050  0.4998
 7019W        W25873  15.610   4.971  15.368  0.0456 -0.3283 -0.2648
 7020W        W25874  10.224   6.452  12.386  0.1901 -0.1395  0.2775
 7021W        W25875   5.537   8.096   1.608  0.2166 -0.0669 -0.0128
 7022W        W25876  12.599  11.984   0.878  0.0466 -0.0562  0.2988
 7023W        W25877  13.737   6.217   2.632 -0.3866 -0.3709 -0.0356
 7024W        W25878  15.378  11.024  15.460 -0.1475 -0.0803 -0.2355
 7025W        W25879   0.068  11.846  15.674 -0.0074 -0.0006 -0.3116
 7026W        W25880  14.368  11.332  12.310 -0.3479 -0.1364 -0.0561
 7027W        W25881   9.819  16.617  16.370  0.1834 -0.3237  0.1697
 7028W        W25882  12.638  11.406   2.415 -0.0590  0.0765  0.1466
 7029W        W25883   0.968   6.476  17.247 -0.0891 -0.0446 -0.0463
 7030W        W25884   9.834   6.240   1.074 -0.0597 -0.1088  0.2274
 7031W        W25885  13.148  13.174   4.561 -0.0297 -0.0523  0.0142
 7032W        W25886  11.221  13.721   0.809 -0.2469  0.0714  0.2182
 7033W        W25887   0.359  16.421   2.811  0.2133 -0.1128 -0.2674
 7034W        W25888   4.320   5.704  16.675  0.0847  0.0550 -0.2627
 7035W        W25889  15.998   2.371   2.416 -0.0652  0.1113  0.1422
 7036W        W25890   1.254  11.483   3.359  0.0195 -0.2139 -0.0713
 7037W        W25891  17.225   3.268  17.048  0.0042  0.2732  0.4398
 7038W        W25892  12.603  12.680   3.358  0.0437  0.5296  0.0181
 7039W        W25893   8.858   9.445  14.595  0.0201  0.0379 -0.0898
 7040W        W25894  11.378   1.892  17.210 -0.0274  0.1095 -0.2542
 7041W        W25895   6.403   4.229   0.217  0.0524 -0.1192 -0.0955
 7042W        W25896   8.021   0.762  13.082 -0.0074  0.0479 -0.1094
 7043W        W25897  11.193  12.373  12.349  0.1637  0.0055  0.1279
 7044W        W25898  17.202   1.797  12.126 -0.3081  0.1216 -0.1322
 7045W        W25899  12.296  11.546   0.833  0.1003  0.1605  0.0147
 7046W        W25900  16.684   8.610  13.455 -0.0122 -0.1284  0.3940
 7047W        W25901  11.291  17.071  16.559 -0.0371 -0.0606 -0.1720
 7048W        W25902  10.454  13.614   3.520 -0.0178 -0.0592 -0.0387
 7049W        W25903   5.482  10.145   0.972  0.0594  0.1844 -0.0448
 7050W        W25904   4.756   1.704   3.666  0.0564 -0.1702 -0.0599
 7051W        W25905  12.734   8.568   1.578 -0.0932  0.0650 -0.4900
 7052W        W25906  14.528   0.511  15.912  0.2052  0.1786  0.0774
 7053W        W25907  10.358  10.179   2.672  0.0786  0.0815 -0.2591
 7054W        W25908   2.025   2.180  12.312 -0.3321 -0.2083 -0.0182
 7055W        W25909  13.775   8.324   0.311 -0.0763 -0.1020 -0.0780
 7056W        W25910   4.248   7.730  14.589 -0.3588 -0.2542 -0.1196
 7057W        W25911  10.241  12.788  13.141  0.3750  0.4043  0.0863
 7058W        W25912   7.728  16.694   3.498  0.1704 -0.6602 -0.0598
 7059W        W25913  17.256   6.098  13.542  0.1574  0.1191  0.0188
 7060W        W25914  10.004   9.639  15.682  0.2956 -0.0466  0.3349
 7061W        W25915  11.873  15.874   4.091  0.1252  0.0256  0.1553
 7062W        W25916  13.001   1.092   3.784  0.1092  0.2030 -0.0393
 7063W        W25917  12.001   5.766  11.330 -0.0427  0.1940  0.2998
 7064W        W25918   9.372   3.882   4.471  0.1688 -0.1306  0.1302
 7065W        W25919  16.425  16.705  13.215 -0.0556 -0.0406  0.2929
 7066W        W25920   1.927   6.693  13.321 -0.3275  0.3323 -0.0079
 7067W        W25921  14.360   5.308  17.375 -0.2878 -0.0608 -0.1563
 7068W        W25922   0.326  13.530   0.999  0.2199 -0.0915  0.0010
 7069W        W25923   6.417   2.184   3.171  0.2335  0.2523 -0.0107
 7070W        W25924   2.677  11.120   0.298  0.0499 -0.0410  0.2648
 7071W        W25925   6.457  12.450  14.993  0.1843 -0.2853 -0.2410
 7072W        W25926   7.351   4.595   4.935 -0.0243  0.1513 -0.1618
 7073W        W25927   8.876   9.922  16.281 -0.0579 -0.1743 -0.0426
 7074W        W25928   9.410   9.545   0.620  0.0085 -0.1709  0.4261
 7075W        W25929  10.552  13.122   3.318  0.0642  0.0651 -0.0244
 7076W        W25930   1.734   8.735   3.180 -0.0394  0.6700  0.1730
 7077W        W25931  15.798   6.588  12.094  0.0731  0.0487  0.4847
 7078W        W25932  10.700  14.621   4.996 -0.2590  0.0679 -0.2024
 7079W        W25933  16.836  12.902   0.540  0.2446  0.2150  0.1678
 7080W        W25934  11.312   4.766  13.725 -0.2795 -0.0520 -0.1708
 7081W        W25935  13.637   9.041  13.396 -0.2780  0.0795 -0.1466
 7082W        W25936   8.849  15.499  16.723  0.0582 -0.2414  0.2667
 7083W        W25937   3.240   4.241  12.272  0.0420  0.3748 -0.0744
 7084W        W25938   6.084  12.482   2.666  0.0833  0.2515  0.3355
 7085W        W25939  10.958   5.516  16.186 -0.0187 -0.3404 -0.2728
 7086W        W25940  12.907   7.054  14.269  0.0808 -0.0877 -0.0078
 7087W        W25941  15.068   3.073   2.063 -0.3255 -0.1905 -0.1278
 7088W        W25942   8.219   7.558  14.691 -0.0637 -0.1259 -0.1762
 7089W        W25943  10.541  13.817  16.530  0.2643  0.3856 -0.1229
 7090W        W25944   7.467   9.607   4.008 -0.1700 -0.3956  0.1856
 7091W        W25945  17.334  12.866   0.390 -0.1736  0.1106  0.0592
 7092W        W25946  13.984   5.297   4.072 -0.4308 -0.2517  0.0720
 7093W        W25947  15.317   1.881  13.591 -0.2724 -0.0697  0.1035
 7094W        W25948   1.974  13.095  16.325  0.1241 -0.0679 -0.1451
 7095W        W25949   6.581   8.837   5.438 -0.1601 -0.3162  0.0572
 7096W        W25950  14.013   6.727   1.297  0.1999 -0.2434  0.0084
 7097W        W25951   4.144   1.832   2.056 -0.0210  0.1789  0.1386
 7098W        W25952   8.270  15.665  16.404 -0.3126 -0.2842 -0.0586
 7099W        W25953   1.611   0.825   0.155  0.1362  0.2162 -0.1344
 7100W        W25954  16.620  10.131   1.430  0.3806 -0.0925 -0.3304
 7101W        W25955   1.615   2.559   2.599  0.0568  0.2137  0.0591
 7102W        W25956  11.126   8.840   0.722 -0.2542  0.0508 -0.0699
 7103W        W25957   8.945   6.014  16.204  0.0286 -0.1842 -0.2770
 7104W        W25958   4.048   6.553   4.985 -0.0301 -0.0519  0.3576
 7105W        W25959   8.233   5.846  17.031 -0.0782  0.0460 -0.0891
 7106W        W25960   2.900   9.602   4.408  0.0584  0.1989 -0.0232
 7107W        W25961   9.563   4.078   3.406  0.2337  0.0258  0.2011
 7108W        W25962  11.383   4.645  16.481 -0.2218  0.0766 -0.0962
 7109W        W25963  11.500  12.728   2.530 -0.0184  0.1569 -0.3317
 7110W        W25964  15.515   3.149   0.505 -0.1394  0.1751 -0.0303
 7111W        W25965  11.400   9.115   4.918  0.0077 -0.1873 -0.1975
 7112W        W25966   8.718  13.566   5.278 -0.1945 -0.0064 -0.2258
 7113W        W25967   8.371   0.688  17.403 -0.1713  0.0013 -0.2710
 7114W        W25968   7.688   2.723   4.491 -0.2746 -0.0566 -0.1185
 7115W        W25969   4.485   9.207   0.870 -0.1021 -0.1703 -0.0026
 7116W        W25970   6.321   7.589   0.698  0.0520  0.3458 -0.0766
 7117W        W25971   1.531   1.696  14.019  0.3681 -0.0026  0.0768
 7118W        W25972   6.133  15.692   1.440 -0.5527 -0.0504 -0.2397
 7119W        W25973   5.077   5.100   0.110 -0.2578 -0.0691  0.2879
 7120W        W25974   8.574  12.653  12.351 -0.0606  0.1552  0.0406
 7121W        W25975   9.255  13.349   5.197 -0.1228 -0.3096 -0.1332
 7122W        W25976   2.156   2.511   1.623 -0.0380 -0.0223  0.1151
 7123W        W25977  12.860  12.503  13.964 -0.0109  0.0124  0.1651
 7124W        W25978  16.217   8.323   4.533 -0.3811 -0.1977  0.1331
 7125W        W25979   2.016   6.350   4.597  0.4923 -0.0297  0.0932
 7126W        W25980   0.052   3.999  14.896 -0.0798  0.1990  0.1259
 7127W        W25981   8.338   7.350  15.474  0.0439  0.1145  0.0145
 7128W        W25982  15.444  10.827  14.622 -0.1598  0.2416  0.2292
 7129W        W25983   5.692   5.254   1.936  0.0338 -0.1440 -0.0923
 7130W        W25984   6.049   5.390  15.871  0.0316 -0.1557  0.2483
 7131W        W25985  11.195  16.544  17.387  0.0765 -0.0181  0.0539
 7132W        W25986   0.826   1.478   1.997 -0.1630 -0.1529  0.1200
 7133W        W25987   4.722   1.782  14.075  0.0025 -0.0248  0.2888
 7134W        W25988  14.730   4.244   2.496 -0.1333  0.0076  0.1831
 7135W        W25989   0.375   1.431   4.842  0.0710 -0.1737  0.0465
 7136W        W25990  12.435   4.095   3.805  0.0265 -0.2032  0.3106
 7137W        W25991   2.081   2.627   2.684  0.1227  0.1897 -0.3546
 7138W        W25992  13.415  13.435  17.025 -0.1019  0.0670 -0.1603
 7139W        W25993  15.863   2.461   4.805  0.0000  0.3221  0.1262
 7140W        W25994   0.605   5.083   5.149  0.0177  0.0755  0.1152
 7141W        W25995   4.411   3.207   0.772 -0.0753 -0.0600 -0.1448
 7142W        W25996  15.160   4.708  14.585 -0.1203  0.2783  0.1481
 7143W        W25997  12.649   4.183   4.226 -0.2531 -0.3772  0.0604
 7144W        W25998  13.178   7.267   0.259 -0.0293 -0.1954  0.1573
 7145W        W25999  16.661   7.520   4.546  0.1828  0.5070 -0.0657
 7146W        W26000  11.844   5.434   0.444 -0.0907  0.2048  0.0674
 7147W        W26001  12.955   3.527   4.084 -0.3337 -0.1506 -0.2906
 7148W        W26002   1.723  16.841  14.478  0.1319 -0.0421  0.0321
 7149W        W26003   1.055   2.145  12.291 -0.0721 -0.0137  0.2397
 7150W        W26004   5.853  17.174  14.676  0.0849  0.2476 -0.3092
 7151W        W26005   3.808   2.068  14.404  0.1837 -0.0920  0.1098
 7152W        W26006   1.900   3.531  12.894  0.0779  0.0821  0.2133
 7153W        W26007  13.332   1.161   1.392 -0.0909  0.1611 -0.0064
 7154W        W26008   3.465  14.206  13.289 -0.2046  0.0777  0.0042
 7155W        W26009  13.527  15.926   2.001  0.0987 -0.3724  0.1801
 7156W        W26010   9.974  15.020   5.035 -0.0190 -0.0209  0.0188
 7157W        W26011  14.437  16.297   0.265  0.1605  0.1055 -0.1047
 7158W        W26012   8.224  16.438   4.407 -0.1759  0.0849  0.2167
 7159W        W26013   1.939   1.373   4.509  0.1928  0.1892 -0.2078
 7160W        W26014  10.633  10.294   4.435 -0.3892  0.0610  0.3082
 7161W        W26015  16.422  13.194  17.109 -0.0289 -0.2652 -0.0085
 7162W        W26016  15.505  13.526   0.643 -0.0603  0.0086  0.0456
 7163W        W26017   0.979   4.999  14.704 -0.2981 -0.3913 -0.1802
 7164W        W26018  16.706  12.765   2.791 -0.2662 -0.2502  0.0096
 7165W        W26019   9.615   2.549   1.474  0.1758 -0.0722  0.0136
 7166W        W26020  15.105  16.350   5.459  0.0122 -0.0522  0.2572
 7167W        W26021   6.767  12.809  16.464  0.0392  0.4182 -0.1856
 7168W        W26022   9.164   1.882  14.115 -0.0956  0.0282 -0.2193
 7169W        W26023   6.082   5.102  14.953 -0.3754 -0.1257 -0.1933
 7170W        W26024  12.944   8.797  13.549  0.0895  0.0429 -0.2573
 7171W        W26025   5.413   2.092  16.571  0.2376 -0.1344 -0.1151
 7172W        W26026   7.902  11.342  15.562 -0.1882 -0.0287  0.4933
 7173W        W26027  13.958   1.305   5.373  0.1389  0.1748  0.1269
 7174W        W26028   3.018   6.286  13.636  0.0380  0.2479 -0.0677
 7175W        W26029   6.862  12.154  14.845 -0.0800 -0.0521 -0.2183
 7176W        W26030   8.127  14.391  15.913 -0.1404 -0.1568  0.3158
 7177W        W26031   3.289   6.347   0.666  0.2408 -0.0049 -0.1512
 7178W        W26032   1.631   6.490  15.577  0.0182 -0.2159  0.0493
 7179W        W26033  14.012   0.021   2.837 -0.3360 -0.0326  0.0291
 7180W        W26034  12.101   7.774   3.243  0.2536  0.3013 -0.0372
 7181W        W26035   2.586   4.046  14.298  0.1282  0.0368  0.2747
 7182W        W26036  12.537   6.967   4.473  0.0955 -0.1295  0.1500
 7183W        W26037  15.016  15.385  15.441  0.1708 -0.0437  0.2237
 7184W        W26038   9.185  10.079  15.468 -0.0319  0.2647 -0.2735
 7185W        W26039  13.793   9.957  14.511 -0.1852 -0.2192 -0.0505
 7186W        W26040  16.809  16.354   5.526 -0.2195  0.2512  0.0001
 7187W        W26041   4.269   0.879  13.120  0.1474  0.2018 -0.2509
 7188W        W26042  13.148   8.466   5.281 -0.1900 -0.0327  0.1345
 7189W        W26043   1.003  14.221   1.406 -0.0446  0.0651  0.3720
 7190W        W26044  13.118   2.516  14.890  0.1658  0.1198  0.0399
 7191W        W26045   0.924   4.942  13.457  0.1712  0.0694 -0.1941
 7192W        W26046  14.442  10.878  12.467 -0.0681  0.2029 -0.0057
 7193W        W26047   4.985  13.628  14.712  0.0258  0.1954  0.2770
 7194W        W26048  10.383  16.640  16.252 -0.1834 -0.0291 -0.0139
 7195W        W26049  13.680  13.696  13.088 -0.1690 -0.0255 -0.1499
 7196W        W26050   5.841   3.275   1.264  0.0650  0.0932  0.0055
 7197W        W26051  11.676  13.444   2.382 -0.2457 -0.2748  0.1538
 7198W        W26052   9.893  12.478   2.295  0.3870  0.0503  0.3132
 7199W        W26053   6.558   5.983   4.057  0.1541 -0.0525 -0.0318
 7200W        W26054  11.154  15.215   4.180  0.2437 -0.2820 -0.1527
 7201W        W26055   2.914  11.757   3.507 -0.1706  0.0451  0.1741
 7202W        W26056   6.561  10.338  13.935 -0.1551 -0.3933  0.2056
 7203W        W26057   5.530   8.871  15.571  0.1657 -0.1817 -0.1910
 7204W        W26058   2.419  11.737   3.305  0.1723  0.1065  0.1815
 7205W        W26059   6.166   7.065   1.347 -0.0393  0.0052  0.0752
 7206W        W26060   4.418  11.361  15.321  0.2929  0.2233 -0.2386
 7207W        W26061   6.234   9.841   5.420 -0.2724  0.1855  0.2337
 7208W        W26062  12.463  11.568   1.638 -0.0485 -0.0414 -0.0025
 7209W        W26063   0.288   1.659   1.314  0.0667  0.1183 -0.0259
 7210W        W26064  11.527   2.265  15.547  0.0750  0.3189 -0.1038
 7211W        W26065  15.935  16.365  15.791 -0.0377  0.0335 -0.1109
 7212W        W26066   2.173   9.346  12.336  0.0731  0.0445  0.0070
 7213W        W26067  10.986   9.343   1.943 -0.0009  0.3002 -0.2896
 7214W        W26068   7.151   7.342   3.480  0.1947 -0.2627 -0.1751
 7215W        W26069   9.997   6.774  12.804 -0.1868  0.1610  0.2570
 7216W        W26070  15.527   0.525   1.316  0.0209  0.0926  0.2879
 7217W        W26071   8.732   8.338  13.078 -0.1772 -0.0614 -0.0919
 7218W        W26072   5.623  16.300   2.566  0.0597  0.1017 -0.0998
 7219W        W26073  16.549   0.979   4.276 -0.0036 -0.1284 -0.1412
 7220W        W26074   4.921  10.573   5.729  0.0332  0.0534  0.1567
 7221W        W26075   9.702   8.151  14.780 -0.0027 -0.0998 -0.4206
 7222W        W26076   5.181   0.769   3.815 -0.2670 -0.2555  0.2171
 7223W        W26077   8.110  16.701  15.775  0.0195 -0.2301  0.0904
 7224W        W26078   0.803   7.298  12.467  0.3004  0.3701  0.0516
 7225W        W26079   4.287  14.134   4.329  0.0539  0.0212 -0.2722
 7226W        W26080   7.971  12.677   1.099  0.0809  0.2092 -0.0354
 7227W        W26081  12.914   5.706   4.899  0.0939 -0.0870  0.2410
 7228W        W26082   1.792   9.217   3.561  0.0145  0.0492  0.2341
 7229W        W26083   5.144   7.265   1.325  0.1741 -0.0228 -0.0745
 7230W        W26084   7.559  10.045   2.868  0.0750  0.0764  0.3768
 7231W        W26085   7.699  15.980  15.320  0.0504  0.0876  0.3036
 7232W        W26086  11.224   6.614   0.023  0.4052  0.1683  0.0026
 7233W        W26087   8.423   2.610   0.702  0.1415 -0.1181 -0.0390
 7234W        W26088  15.229   2.596  15.785  0.0334 -0.0206  0.2425
 7235W        W26089   1.353  17.362   3.957  0.0256 -0.1780 -0.3091
 7236W        W26090   3.033  16.062   1.566  0.1045 -0.2747 -0.2009
 7237W        W26091  12.784  16.720   4.566  0.0568 -0.1535 -0.2205
 7238W        W26092  14.698  15.419  13.149  0.2336  0.1485 -0.1720
 7239W        W26093  12.183  10.310   2.971 -0.2083  0.0592  0.2039
 7240W        W26094   1.480  14.547  14.428 -0.3901  0.0711 -0.0043
 7241W        W26095   4.090  16.667   0.018  0.0715  0.0541  0.4266
 7242W        W26096  10.189   2.107  16.906  0.0299  0.0709 -0.0767
 7243W        W26097   2.090   4.340   1.566  0.0978 -0.1038  0.0532
 7244W        W26098   3.893  12.611  12.989  0.0716 -0.0897  0.1526
 7245W        W26099  16.223  13.864  17.106  0.0497  0.0613  0.0463
 7246W        W26100  16.350  12.594  13.458  0.2239  0.1121 -0.1823
 7247W        W26101  13.055  15.774   2.073 -0.0332 -0.0099 -0.1213
 7248W        W26102   4.006   7.769  12.555 -0.1719  0.0146  0.0147
 7249W        W26103   9.574   3.747   0.695 -0.1925 -0.1911 -0.3334
 7250W        W26104  16.479  13.349  15.229 -0.4055  0.4052  0.3795
 7251W        W26105   7.223  17.174  14.771 -0.0085 -0.1339 -0.1485
 7252W        W26106  15.569  16.213  15.479  0.1616 -0.2378  0.1185
 7253W        W26107   9.205  12.882  16.168  0.0633  0.2708 -0.3412
 7254W        W26108   4.894  14.448  16.268  0.3019 -0.0544 -0.0098
 7255W        W26109  17.186   3.395  11.404  0.0798 -0.0264 -0.5242
 7256W        W26110   1.794   4.856   0.446 -0.0005  0.0853  0.0293
 7257W        W26111  15.477   0.971   0.510 -0.3166 -0.0353  0.1001
 7258W        W26112  12.431   9.363   1.393  0.2033 -0.1577  0.2377
 7259W        W26113   2.778   0.430  12.703 -0.2347 -0.2698 -0.0791
 7260W        W26114   1.984  16.971  12.975 -0.0950  0.0375  0.0362
 7261W        W26115  16.513  15.569   3.442  0.0863 -0.0725 -0.2489
 7262W        W26116   3.111   9.363  16.656 -0.1032 -0.0897 -0.0700
 7263W        W26117  16.425  11.721   3.923  0.1879  0.0749 -0.1551
 7264W        W26118   2.791  14.588  17.238 -0.0074 -0.1162 -0.1650
 7265W        W26119  10.203   4.792   2.394 -0.1984  0.0315 -0.1832
 7266W        W26120  16.270  10.840   2.346  0.0467 -0.2324 -0.1162
 7267W        W26121  13.909  11.910   3.695  0.0065 -0.0764 -0.2590
 7268W        W26122  10.986   1.642  12.551  0.2459  0.0277 -0.0504
 7269W        W26123  16.600   4.980  16.047 -0.1951  0.0087 -0.2973
 7270W        W26124   5.110   5.565  17.350  0.1547 -0.0317  0.1585
 7271W        W26125   7.442   1.065  14.198 -0.1860 -0.3441 -0.1241
 7272W        W26126  14.910  15.074   2.023  0.5001  0.1057  0.2068
 7273W        W26127  10.053   7.293   0.125 -0.1054 -0.0810 -0.1044
 7274W        W26128   3.875   9.973   2.321  0.0046  0.2180  0.2344
 7275W        W26129   9.917  14.086  17.443 -0.0570  0.0914  0.1741
 7276W        W26130   3.542   6.552  12.470  0.2136  0.0915 -0.0201
 7277W        W26131   0.973   8.168  12.868 -0.0738  0.0704 -0.2016
 7278W        W26132   9.775  16.967   1.039  0.2323  0.1428  0.1182
 7279W        W26133   1.118   5.718  16.467  0.0015 -0.0219 -0.3174
 7280W        W26134   4.003   3.695  13.891 -0.3276  0.0637 -0.0081
 7281W        W26135  12.323  11.481  16.913  0.1224  0.1023 -0.0491
 7282W        W26136   9.064   9.021  16.340  0.3031  0.0599  0.2396
 7283W        W26137  11.648   5.040   3.310  0.0909  0.0553  0.1233
 7284W        W26138  15.573  12.461  15.559  0.0160  0.1325 -0.2590
 7285W        W26139   4.422   2.061  14.419  0.1794 -0.1021 -0.3821
 7286W        W26140  14.287  11.950   1.914 -0.0047 -0.2067  0.0346
 7287W        W26141   9.233   5.710  15.053  0.2881 -0.1127  0.0192
 7288W        W26142   1.020   1.984  15.118  0.3285 -0.1955 -0.2928
 7289W        W26143   8.118  10.034   3.647 -0.0473  0.2007  0.0004
 7290W        W26144   0.430   7.362  13.374  0.1284 -0.0914  0.0893
 7291W        W26145  13.602  13.538   5.291  0.1763  0.2355 -0.0909
 7292W        W26146  11.025  15.757   3.843  0.1983  0.0095  0.0781
 7293W        W26147   3.550  10.103  13.856  0.0518  0.3648  0.3216
 7294W        W26148   2.241   0.329  16.219 -0.1949  0.3140 -0.0042
 7295W        W26149  13.985   3.134   4.720  0.0392  0.0380 -0.1268
 7296W        W26150   1.954  11.434   3.916 -0.2296  0.0496  0.2964
 7297W        W26151   1.702  12.763  14.322  0.2494 -0.0914 -0.2099
 7298W        W26152  14.610   2.642   4.030  0.0113 -0.2960  0.0388
 7299W        W26153  14.412   4.861  14.321  0.1257 -0.1889 -0.0944
 7300W        W26154   3.105   1.034  17.228 -0.0499  0.0477 -0.1664
 7301W        W26155  11.934   8.584  12.388  0.0925 -0.1016 -0.0861
 7302W        W26156  16.334  11.307  14.294  0.2041  0.0053  0.2139
 7303W        W26157   6.154   2.421   3.912 -0.2046  0.0189  0.0422
 7304W        W26158   6.547  14.379  15.149 -0.2118 -0.4613  0.2123
 7305W        W26159   8.000  10.576  15.582 -0.3829  0.1048  0.0279
 7306W        W26160   2.011   6.680   2.000 -0.2490 -0.0548 -0.0219
 7307W        W26161   7.972  10.131   4.989 -0.0869 -0.3376  0.2316
 7308W        W26162   9.736   2.065   3.210  0.0717  0.2225  0.1767
 7309W        W26163   0.305   4.349  12.607  0.1157  0.2040  0.0666
 7310W        W26164   8.825  13.575  13.730 -0.1710 -0.1837 -0.1139
 7311W        W26165   6.087  12.833   3.019 -0.1833 -0.0555 -0.1980
 7312W        W26166   0.912   7.295   1.040 -0.0395 -0.4152 -0.0473
 7313W        W26167  12.742   4.933   0.204  0.0110  0.1703 -0.2991
 7314W        W26168   3.915   4.573   3.566  0.0143  0.0824 -0.1441
 7315W        W26169  15.590   7.397  17.064  0.0957  0.2884  0.0391
 7316W        W26170   9.322   8.938   4.413 -0.0315  0.1708 -0.2472
 7317W        W26171  11.654   2.478  15.975  0.0439  0.0146  0.2258
 7318W        W26172  12.723  14.356  14.247 -0.0845 -0.0019 -0.1866
 7319W        W26173  10.255  12.060   5.341 -0.0336  0.3002  0.0912
 7320W        W26174   2.095  15.944  12.756  0.1757  0.1248  0.1269
 7321W        W26175  15.045   2.108  12.034  0.0212 -0.1403  0.2449
 7322W        W26176  17.014   1.838  12.619 -0.1852  0.2098  0.1897
 7323W        W26177  11.207  10.472  12.480  0.0108 -0.1124 -0.0249
 7324W        W26178   8.321   8.725  14.877  0.0273 -0.0557 -0.1914
 7325W        W26179   0.273  16.040   3.324 -0.0675  0.2131 -0.0253
 7326W        W26180   5.709   7.337   1.061 -0.2281  0.1707  0.2553
 7327W        W26181  12.140  10.668  14.816 -0.1449 -0.1514 -0.2450
 7328W        W26182   5.111   0.760  14.439 -0.0620  0.2636  0.3188
 7329W        W26183  12.433  12.104  14.247  0.3809 -0.0117 -0.3791
 7330W        W26184   4.632  12.694  15.902 -0.0213  0.1054  0.2723
 7331W        W26185  12.454   5.836   3.769  0.1232  0.0169  0.0149
 7332W        W26186   8.963   5.411   0.531 -0.0339  0.1286 -0.3426
 7333W        W26187  11.196   2.993   0.815  0.2547  0.3945 -0.0053
 7334W        W26188   2.463  17.181  13.691  0.3497  0.2611  0.2168
 7335W        W26189   4.444  11.631   0.903 -0.0276  0.0306 -0.1065
 7336W        W26190   4.331  13.892   3.747  0.1686  0.6378 -0.0973
 7337W        W26191   1.332  16.846  14.130 -0.1806  0.0081  0.0544
 7338W        W26192  17.274   8.792   2.655  0.1615  0.1864 -0.0250
 7339W        W26193   6.475  10.750  14.244 -0.0513 -0.0560 -0.0892
 7340W        W26194   5.786  13.344  14.168  0.0335  0.1016 -0.1293
 7341W        W26195  14.163  12.456   0.335  0.0799 -0.2070 -0.3986
 7342W        W26196   7.935  13.471   2.096 -0.1394 -0.1032 -0.5828
 7343W        W26197  10.541   5.571   2.507  0.1460 -0.0446  0.2150
 7344W        W26198  11.342  15.130   3.573 -0.2866 -0.0016  0.1162
 7345W        W26199   5.797  15.012  16.125 -0.2003  0.1751 -0.0037
 7346W        W26200   2.396   1.923   4.164  0.1536 -0.0171  0.0885
 7347W        W26201  17.271  15.561  16.315 -0.2131 -0.1460  0.0759
 7348W        W26202  10.206   9.215  15.343 -0.0284 -0.0592 -0.1985
 7349W        W26203   8.598  14.401  13.224 -0.0904  0.2546 -0.1482
 7350W        W26204   9.357   5.508   1.935  0.1094 -0.0681 -0.1035
 7351W        W26205  13.888  11.475   3.399 -0.4022 -0.2505  0.0040
 7352W        W26206   1.471  13.547   0.186  0.1560 -0.0751 -0.3794
 7353W        W26207   8.249  17.094   5.158 -0.0222 -0.1854  0.0598
 7354W        W26208  12.841  13.266   4.928  0.0135  0.0333  0.2305
 7355W        W26209  14.282   0.938  14.441  0.1469 -0.1753 -0.1902
 7356W        W26210  13.351  14.589  12.963 -0.2375 -0.0018  0.1206
 7357W        W26211   5.011  11.391  16.054  0.2931  0.1296  0.1157
 7358W        W26212   3.466   1.028  12.748 -0.0477  0.3555  0.1191
 7359W        W26213   8.468   4.858   3.805 -0.2795 -0.1822 -0.3219
 7360W        W26214  15.139   7.952  14.145  0.0044  0.3287  0.1046
 7361W        W26215   3.560   0.710   4.433 -0.0831 -0.0581 -0.0996
 7362W        W26216   6.832   7.800   3.112 -0.1338  0.0366  0.0122
 7363W        W26217   6.655   9.598  14.921  0.1199 -0.1799 -0.2396
 7364W        W26218   1.338  14.426  17.005  0.1490 -0.0134  0.3392
 7365W        W26219   5.039  11.218  12.902  0.1439  0.0057 -0.1057
 7366W        W26220   4.364   1.993  15.427  0.1874 -0.1369  0.2741
 7367W        W26221   6.185   2.390  17.457  0.1855 -0.3716 -0.1162
 7368W        W26222   8.575  14.497   4.956 -0.1608 -0.0025  0.0298
 7369W        W26223  15.091   0.733   3.553  0.0055  0.1504 -0.0063
 7370W        W26224   5.768   4.714  16.391  0.1637 -0.1372  0.0830
 7371W        W26225   1.467  13.821  13.290 -0.1060 -0.0384  0.2144
 7372W        W26226   4.826  11.077   1.579 -0.2973  0.0141 -0.0347
 7373W        W26227  13.124   2.515   4.389  0.0806  0.1036  0.0782
 7374W        W26228  15.025   7.371   0.418 -0.1351  0.0167 -0.0218
 7375W        W26229   9.710  15.695   5.552  0.0938 -0.0434 -0.0654
 7376W        W26230   5.871   4.543   4.528 -0.0287 -0.1939 -0.1237
 7377W        W26231  17.001   9.780  12.547 -0.0419  0.0040 -0.2002
 7378W        W26232  15.044   6.159  12.739  0.4012 -0.1238 -0.0890
 7379W        W26233  13.406  10.950  17.415 -0.0230  0.1649 -0.0289
 7380W        W26234  15.788   1.574  17.430  0.0451  0.2376 -0.1920
 7381W        W26235  14.606   0.473   3.640 -0.2290 -0.1176 -0.1081
 7382W        W26236   6.798   1.704   0.252  0.0182 -0.0536 -0.0505
 7383W        W26237  14.789   7.625  15.808  0.0153  0.2878 -0.0395
 7384W        W26238  14.599   1.291   1.573  0.2108  0.1917  0.0804
 7385W        W26239  10.848  10.979  13.164  0.0672 -0.0565  0.2301
 7386W        W26240  11.116  11.957   2.000 -0.0169 -0.0053 -0.0299
 7387W        W26241  10.301   7.537  12.669  0.2019  0.1595  0.0785
 7388W        W26242  10.105  13.942   3.240 -0.4098  0.4356  0.1265
 7389W        W26243   6.537  11.626   2.774 -0.3460  0.1661  0.0332
 7390W        W26244  13.682  14.561  16.652  0.1846 -0.0086  0.0435
 7391W        W26245   9.600  13.931   2.871  0.0063 -0.0718  0.0437
 7392W        W26246  15.087   3.508  15.579 -0.1264 -0.0528 -0.1578
 7393W        W26247  16.516   1.887  13.504 -0.0924 -0.0840 -0.3131
 7394W        W26248  14.849   1.942  16.874 -0.2779 -0.1113  0.0329
 7395W        W26249   9.098  11.434  15.903  0.1205  0.0048  0.0118
 7396W        W26250   7.710   0.440  15.335  0.1621 -0.2161  0.3807
 7397W        W26251   0.994  14.696   1.259 -0.0422 -0.0778 -0.1625
 7398W        W26252  14.671   6.200   3.614  0.0502 -0.4284  0.1894
 7399W        W26253   5.075  17.358  16.560  0.0476  0.0141  0.4620
 7400W        W26254  12.357  17.175  13.216  0.2279 -0.1783  0.2475
 7401W        W26255   0.252   5.207   3.631 -0.2300  0.0727  0.0810
 7402W        W26256  10.237   8.733  13.015 -0.2382 -0.0331 -0.0118
 7403W        W26257  10.825  12.744   1.392  0.2311 -0.1850  0.1518
 7404W        W26258   7.088   1.441  11.324 -0.1002 -0.0210  0.0394
 7405W        W26259   8.883  12.597   2.720 -0.0744 -0.0481  0.0180
 7406W        W26260   9.380  14.491   0.505  0.0815 -0.1109  0.1255
 7407W        W26261   3.385  10.224   3.611  0.1310  0.1182  0.0660
 7408W        W26262  12.758  13.519   2.413 -0.0422  0.4770 -0.3058
 7409W        W26263  13.537   9.149   2.481 -0.1457  0.2778 -0.1585
 7410W        W26264   5.344  15.689   3.674 -0.0792  0.1134 -0.1657
 7411W        W26265  13.949   8.549   0.857 -0.0995 -0.3105  0.6273
 7412W        W26266   5.925   2.695  15.415  0.0538  0.2759 -0.1951
 7413W        W26267   1.826  14.282  15.863  0.0550 -0.1787 -0.4550
 7414W        W26268   4.698   1.910   0.767 -0.2958  0.0550 -0.0403
 7415W        W26269   4.979   8.722  14.453 -0.0298  0.0764  0.2015
 7416W        W26270  15.886   9.729  13.780 -0.0580 -0.2001  0.1490
 7417W        W26271  16.062   1.299  16.316  0.1949  0.1639 -0.1444
 7418W        W26272  13.364   9.958   3.900 -0.0978 -0.2067  0.3697
 7419W        W26273   8.694   6.955   3.122  0.0901 -0.0648 -0.3643
 7420W        W26274   1.339  12.474  14.854  0.2237 -0.0350  0.0766
 7421W        W26275   7.194   3.359   4.030 -0.0214  0.0536  0.0522
 7422W        W26276   8.051   0.463  13.907 -0.0920  0.1191 -0.0307
 7423W        W26277   3.790  15.302   1.870  0.0508  0.2268  0.0745
 7424W        W26278  10.892   8.505   1.585  0.1546  0.4567  0.0251
 7425W        W26279   6.458   2.785   3.843 -0.1194 -0.1693 -0.3931
 7426W        W26280   9.938  16.218  15.573  0.1537  0.1834  0.0735
 7427W        W26281   9.773  11.880  17.177  0.1356 -0.0910 -0.2657
 7428W        W26282  15.415   7.332  14.869  0.2765 -0.0345  0.2609
 7429W        W26283   6.146   5.246   2.460  0.1859  0.0427  0.2298
 7430W        W26284   7.322   5.149   0.862  0.0329 -0.5529  0.1148
 7431W        W26285   9.433   7.433  12.852  0.1808  0.0883  0.0770
 7432W        W26286   6.369   1.602   1.029  0.0196  0.3616 -0.0657
 7433W        W26287  15.706  12.609  16.459 -0.3193  0.1607 -0.0612
 7434W        W26288  11.811   4.885  17.392  0.1432 -0.4237 -0.0341
 7435W        W26289  12.990   5.556  14.509  0.1866 -0.0370 -0.0481
 7436W        W26290   2.545   8.978   4.502  0.3327 -0.0949  0.0228
 7437W        W26291  10.500   3.079  13.090  0.2720  0.1824 -0.0547
 7438W        W26292  15.301  12.027  15.827  0.1516 -0.0572 -0.1383
 7439W        W26293   8.963   8.042   2.494  0.1236 -0.0722 -0.0476
 7440W        W26294   6.776   4.023   4.446 -0.0572 -0.0107  0.0610
 7441W        W26295  13.624  17.106   1.424 -0.3054 -0.1322  0.1106
 7442W        W26296   6.484   3.592  14.532 -0.3332  0.1087  0.0285
 7443W        W26297   3.552   5.537  14.110 -0.0659 -0.0143  0.0306
 7444W        W26298  12.127   4.110   3.357 -0.0434  0.0588  0.1104
 7445W        W26299   5.452   6.450  12.188 -0.0198 -0.0231  0.1090
 7446W        W26300   8.354   6.945  12.951  0.1556  0.2501 -0.0560
 7447W        W26301  16.662   7.635   3.621 -0.3852 -0.0291  0.0327
 7448W        W26302  14.527   5.253   3.335  0.0213 -0.2876  0.0074
 7449W        W26303  15.933   6.213   3.801 -0.1471 -0.2512 -0.4717
 7450W        W26304   0.517   6.122  14.766 -0.1074  0.2969 -0.1470
 7451W        W26305  13.973  10.316   1.084  0.1932 -0.0851  0.1473
 7452W        W26306   3.295   5.957   3.311 -0.0944 -0.1851  0.0429
 7453W        W26307  10.308   4.591  14.455  0.1633  0.2394 -0.2519
 7454W        W26308  16.575   4.186  15.842  0.0412 -0.1819  0.3853
 7455W        W26309   2.673  16.752   2.133 -0.1710  0.1136 -0.0099
 7456W        W26310   0.499  11.605  16.590  0.1721  0.2391  0.1913
 7457W        W26311  13.728   2.824  16.062 -0.1652 -0.4753 -0.1034
 7458W        W26312   4.025  13.971  16.010 -0.1267  0.0714  0.0528
 7459W        W26313  14.939   8.108  13.713 -0.1531  0.0005  0.1646
 7460W        W26314  16.611   7.216   3.944 -0.0571 -0.1104  0.0529
 7461W        W26315   7.178   5.849   1.991  0.0984  0.1517  0.0661
 7462W        W26316  12.111  10.359   5.147  0.3092  0.2594  0.2003
 7463W        W26317   4.657   5.160  14.224 -0.1915  0.1225 -0.0066
 7464W        W26318  16.365   8.942   2.334 -0.2609  0.0172 -0.2555
 7465W        W26319  16.025   9.654   2.952 -0.4424  0.1674  0.0097
 7466W        W26320   6.230   4.487  16.224 -0.2225 -0.0407 -0.3138
 7467W        W26321   4.879   3.792  16.974 -0.1149 -0.1115  0.0798
 7468W        W26322  15.183   3.527   4.001  0.1256 -0.0052 -0.0678
 7469W        W26323  10.134  13.290   2.645 -0.0192 -0.2135  0.2279
 7470W        W26324  11.504  13.812   1.242  0.0257  0.3306 -0.0299
 7471W        W26325   8.197  12.899   1.567  0.1234  0.0045  0.0335
 7472W        W26326   8.216   9.054   2.340  0.0370 -0.0559 -0.0675
 7473W        W26327   1.394  15.885   0.721  0.0260 -0.0704 -0.4223
 7474W        W26328  12.510   7.160  17.129 -0.2634  0.0831 -0.1282
 7475W        W26329  14.356  13.669  17.332 -0.2740 -0.2850  0.0803
 7476W        W26330  11.559  11.321  17.317  0.0621 -0.1495 -0.1210
 7477W        W26331   1.953  10.394  16.173  0.0609  0.0579 -0.1153
 7478W        W26332   8.765   5.472  15.692 -0.2811  0.1182  0.1811
 7479W        W26333  13.848   9.711   0.189 -0.1742 -0.2752 -0.3638
 7480W        W26334   0.186  16.435  14.613  0.1804 -0.2059  0.0219
 7481W        W26335  10.917   9.284   0.773 -0.0795  0.0190 -0.0550
 7482W        W26336  16.169  16.373  17.189  0.0564 -0.0957 -0.1715
 7483W        W26337  15.040   2.284   2.781 -0.1447 -0.0003 -0.1498
 7484W        W26338   6.480  13.091  15.652  0.3041  0.2070 -0.1602
 7485W        W26339  15.088   6.158   0.641 -0.2380 -0.3105 -0.0839
 7486W        W26340  10.649   9.992   3.042 -0.2418  0.2142 -0.1396
 7487W        W26341  11.870  12.382   4.765 -0.2135 -0.0294  0.0638
 7488W        W26342  13.420  15.800   5.364 -0.3411 -0.0680  0.1516
 7489W        W26343   5.070  16.240   0.118  0.0459  0.1012  0.0882
 7490W        W26344   9.538  16.453  15.331  0.0205  0.0088  0.1134
 7491W        W26345   6.362  10.237   2.840 -0.1221 -0.1729  0.2628
 7492W        W26346   8.750   2.611   0.272 -0.1110 -0.2251  0.3522
 7493W        W26347   3.275   7.342  14.774  0.2532  0.0649 -0.3827
 7494W        W26348  14.761   3.372  13.925 -0.1845  0.0748  0.1631
 7495W        W26349  16.612  15.331   1.683 -0.0035 -0.0338  0.1695
 7496W        W26350   1.423   6.313   4.872  0.1407  0.0196  0.0677
 7497W        W26351   2.069  12.793  13.974 -0.0994  0.0822 -0.1523
 7498W        W26352  10.355   5.438   1.482 -0.2143 -0.1455  0.3479
 7499W        W26353  16.684  11.456   4.308 -0.2642 -0.0806  0.1509
 7500W        W26354  16.229   5.433  14.009  0.1219 -0.1120  0.2209
 7501W        W26355   7.944   6.154   1.546 -0.0040 -0.1105  0.1511
 7502W        W26356   7.915   4.473  13.037 -0.2195 -0.1724  0.0865
 7503W        W26357   0.935   3.779   0.048 -0.2695  0.1749 -0.1957
 7504W        W26358   3.509  16.774  14.680 -0.2171  0.0269 -0.3010
 7505W        W26359   4.004   8.923  13.356  0.1073  0.1896  0.1290
 7506W        W26360  15.883  15.491   5.436 -0.0162  0.1131 -0.1774
 7507W        W26361   7.123   6.669  14.565  0.0084  0.3438  0.0897
 7508W        W26362  12.604   4.774  12.311  0.3170 -0.1702  0.3093
 7509W        W26363   8.697   6.820   4.153 -0.0707 -0.2821  0.2275
 7510W        W26364  14.334   3.815   5.478  0.1983  0.1767  0.0989
 7511W        W26365  17.320   6.323  17.136  0.1420  0.0389  0.2401
 7512W        W26366   8.917  12.919   1.016 -0.2383  0.0463  0.0592
 7513W        W26367   7.460   9.088   4.411 -0.1570  0.3874  0.1422
 7514W        W26368   9.456   2.220   0.776  0.0591 -0.2240 -0.4172
 7515W        W26369  12.176   6.978   1.823 -0.0719  0.1382  0.0817
 7516W        W26370  12.672   5.412   5.454 -0.0709 -0.3439 -0.0055
 7517W        W26371   7.508  11.118   3.208  0.2735  0.0485  0.1334
 7518W        W26372  16.457   7.949  12.956 -0.2288  0.1984  0.0230
 7519W        W26373   1.153   7.345  14.968  0.1908 -0.0326 -0.0628
 7520W        W26374  12.763   8.070   2.074  0.1218  0.0531  0.0654
 7521W        W26375  13.903  15.108   4.785  0.2819  0.1765  0.1432
 7522W        W26376   2.232   5.254  13.619 -0.0934 -0.0283  0.2502
 7523W        W26377   5.939   1.857  13.560  0.0150  0.1164  0.0189
 7524W        W26378  15.491  12.750   3.473 -0.0433 -0.1639 -0.0388
 7525W        W26379  12.431  10.988  14.230 -0.0094 -0.2961 -0.0718
 7526W        W26380  16.755  13.973   2.108  0.1528  0.2049 -0.0102
 7527W        W26381   0.971   9.704   3.397  0.0351 -0.1221  0.1542
 7528W        W26382  13.281   6.499  14.513 -0.0396  0.0022 -0.0597
 7529W        W26383   6.765   1.911  13.951  0.2708 -0.0002  0.0239
 7530W        W26384   4.829   3.662   4.952  0.1388  0.2923 -0.1114
 7531W        W26385   8.036   1.801  12.875 -0.0807 -0.2371 -0.2955
 7532W        W26386   7.592  11.620  15.316 -0.0014 -0.0153 -0.1170
 7533W        W26387   5.942  17.035  13.297 -0.1509  0.0535 -0.1069
 7534W        W26388   7.835   1.918   0.024  0.0262  0.2536 -0.3018
 7535W        W26389  11.605  10.760   0.809 -0.0490 -0.0006 -0.0106
 7536W        W26390   9.130  14.185  14.321 -0.3099  0.1689 -0.3937
 7537W        W26391   3.172   3.910  12.671  0.0130 -0.1359 -0.0610
 7538W        W26392   7.586   6.354   2.750 -0.0421  0.0274 -0.2151
 7539W        W26393  17.099   7.828   3.618 -0.1963  0.3244 -0.1169
 7540W        W26394  14.000  14.691   4.431  0.2305  0.2422 -0.0709
 7541W        W26395   8.097   6.174  15.941  0.1074  0.0726 -0.2655
 7542W        W26396  14.444   6.665   3.433  0.0825  0.2735  0.0890
 7543W        W26397   4.509   8.898  14.349 -0.1133 -0.3929  0.0847
 7544W        W26398   1.673   6.020   1.802  0.0246 -0.0693 -0.0595
 7545W        W26399   1.467  11.653   5.325 -0.0623 -0.0371  0.0831
 7546W        W26400   7.526  13.162  14.036  0.1321 -0.0826 -0.1402
 7547W        W26401   8.427  12.211  14.550  0.0449 -0.1187 -0.0294
 7548W        W26402  12.764   4.273   2.708  0.1845 -0.0643 -0.0407
 7549W        W26403   5.780   9.467   4.088  0.1976 -0.0764  0.0533
 7550W        W26404   3.334  11.253  16.488 -0.1093  0.1402 -0.1371
 7551W        W26405  11.163  12.855   5.132 -0.0287 -0.0303 -0.3590
 7552W        W26406  15.145   2.671  14.109 -0.1448 -0.0576  0.0215
 7553W        W26407   6.489   0.757   5.124 -0.0605 -0.2116  0.1667
 7554W        W26408   2.891   7.390  13.134 -0.0634  0.1946  0.0936
 7555W        W26409  13.854   9.705  15.919  0.0329 -0.0155  0.1844
 7556W        W26410   6.813   3.153   1.334  0.0477 -0.1704  0.2227
 7557W        W26411  14.669  12.334   3.688  0.0138  0.0132 -0.0718
 7558W        W26412   1.514   4.472  16.565  0.0896 -0.1186  0.0947
 7559W        W26413   1.166  14.284   2.786  0.4322  0.0335  0.0737
 7560W        W26414  12.856  10.810   1.456  0.0768 -0.0491 -0.1519
 7561W        W26415  16.754  14.916  14.024 -0.1209  0.0592 -0.0149
 7562W        W26416   9.155  11.249   4.586 -0.1087 -0.1170  0.0159
 7563W        W26417   2.004  16.395  13.518 -0.0166  0.2144  0.0874
 7564W        W26418  10.470  15.942  15.564  0.2674 -0.0458  0.1123
 7565W        W26419  10.527  10.351  15.039  0.0971 -0.1002  0.1191
 7566W        W26420   6.848  12.642   5.758 -0.1368 -0.1708  0.1479
 7567W        W26421   7.234  14.551  13.130 -0.0997 -0.0636 -0.0171
 7568W        W26422  16.001  15.874  16.983 -0.1073 -0.0978  0.2607
 7569W        W26423  15.524   2.440   2.724 -0.0562 -0.2097 -0.1639
 7570W        W26424  15.384   3.092  15.750  0.1306 -0.1270  0.1126
 7571W        W26425  15.102   7.042  17.040  0.2010 -0.0718 -0.1108
 7572W        W26426   0.335  13.377  13.051 -0.1385 -0.1242 -0.1276
 7573W        W26427  13.651  10.579   4.864  0.0155  0.2634 -0.1371
 7574W        W26428  12.801   8.218   1.087  0.1346 -0.0958 -0.1185
 7575W        W26429   8.794  14.419   3.194  0.0242  0.1453  0.1883
 7576W        W26430   9.635  17.232  14.633  0.0546 -0.0364 -0.2720
 7577W        W26431   6.662  13.785   0.477 -0.0281  0.2321  0.2933
 7578W        W26432   1.461  11.205   0.525 -0.1300 -0.0496 -0.4219
 7579W        W26433   2.513   1.510  16.658 -0.2262  0.0641 -0.2086
 7580W        W26434  14.032  16.966   3.941  0.1274  0.1471 -0.1588
 7581W        W26435  15.263   2.530   4.585 -0.0750  0.2317  0.2759
 7582W        W26436   6.001   8.952   3.183  0.0877  0.0873 -0.4882
 7583W        W26437  17.185   4.084   1.625 -0.0463 -0.0576  0.1088
 7584W        W26438   4.578   5.176  12.792  0.1123 -0.3607  0.0507
 7585W        W26439  13.305   7.987  15.789 -0.1955 -0.1443  0.0497
 7586W        W26440  12.776   0.246   3.728  0.2376  0.0056 -0.3684
 7587W        W26441  16.208   6.987   4.199  0.0857  0.1330  0.0273
 7588W        W26442   3.503  12.063   2.476  0.0406  0.0147  0.2390
 7589W        W26443   1.589   8.830  13.917  0.1151 -0.1324  0.5054
 7590W        W26444   9.713   2.111   1.247 -0.0022 -0.1300 -0.0177
 7591W        W26445  16.228  15.591  12.923  0.2076  0.2143  0.1171
 7592W        W26446   6.097   3.803  13.192 -0.2014  0.3102  0.1506
 7593W        W26447   0.385   0.054   2.038 -0.0587 -0.0010 -0.0832
 7594W        W26448   1.039   9.815  14.664  0.0415  0.2685 -0.0403
 7595W        W26449  15.616   6.924  17.248 -0.2462 -0.1408 -0.0428
 7596W        W26450   7.926  12.400   3.569  0.0720  0.1703 -0.0276
 7597W        W26451   3.443   7.334   1.262  0.0390  0.0094 -0.0596
 7598W        W26452  10.003  13.858  15.228  0.1187  0.1771 -0.3465
 7599W        W26453   2.562   8.764   2.073 -0.2788  0.3010  0.0138
 7600W        W26454   0.001   2.480   4.681  0.0340 -0.1754  0.1183
 7601W        W26455  15.199   2.436  14.528  0.1334 -0.3327 -0.0430
 7602W        W26456   1.897   5.030  13.183 -0.0683  0.0344 -0.0246
 7603W        W26457  12.035   5.405   2.336 -0.3128 -0.1427 -0.0344
 7604W        W26458   7.496   7.623   3.768  0.2102  0.0115 -0.0193
 7605W        W26459  16.653  12.679  14.600 -0.1634 -0.0024 -0.0191
 7606W        W26460   4.484  11.622  15.937 -0.1631 -0.1842  0.0306
 7607W        W26461   4.019   5.260  13.514 -0.1735 -0.3911 -0.0137
 7608W        W26462  10.862  17.324   3.763 -0.0829  0.0830 -0.2805
 7609W        W26463  11.573   4.631   3.019 -0.0831 -0.0801  0.1574
 7610W        W26464  12.476   2.077   4.996 -0.1760  0.2346  0.2339
 7611W        W26465   0.475   8.047  12.758 -0.0395 -0.3529 -0.1920
 7612W        W26466  12.615   0.580   2.444 -0.0746  0.1224  0.0997
 7613W        W26467  11.380   7.128   2.386  0.2733  0.1522  0.0009
 7614W        W26468   8.067   9.364  16.584  0.0287 -0.4077 -0.1677
 7615W        W26469  16.668   8.304   5.080  0.0695  0.2516 -0.2555
 7616W        W26470  15.718  12.435   2.786 -0.0230  0.1315 -0.1463
 7617W        W26471   8.892   5.259   3.005  0.2845 -0.0868 -0.0728
 7618W        W26472   3.635   6.504  16.032 -0.1331 -0.0960  0.1695
 7619W        W26473  14.372   2.240   4.947 -0.0577  0.0554 -0.1060
 7620W        W26474   3.266   4.239  13.616  0.0378  0.0004 -0.0251
 7621W        W26475   5.123  17.320   2.209  0.1785 -0.0773  0.3257
 7622W        W26476   1.835   1.564  15.774 -0.1206  0.1373 -0.0998
 7623W        W26477   9.788   4.113  13.969  0.2443  0.2193 -0.0312
 7624W        W26478  15.152   6.295   4.702 -0.1889  0.2072  0.2173
 7625W        W26479   4.111   9.538   0.767 -0.1179  0.0221  0.1407
 7626W        W26480  13.550   2.975  13.539  0.1647 -0.1388  0.0375
 7627W        W26481  13.922   4.259   5.080  0.4470 -0.1065  0.1316
 7628W        W26482  10.253   2.282  12.783  0.0318  0.0342 -0.3054
 7629W        W26483   8.578  16.314  13.404  0.1297  0.0283  0.0604
 7630W        W26484   9.637   4.429   5.419  0.1873 -0.0741 -0.4109
 7631W        W26485   4.935   8.225  13.613 -0.1890  0.0413  0.1342
 7632W        W26486  11.343   2.240   3.802 -0.3330  0.0929  0.0058
 7633W        W26487   0.894  15.880  16.446  0.0192 -0.4350  0.1884
 7634W        W26488  10.311  15.231   3.872  0.0819 -0.0771 -0.1158
 7635W        W26489  12.398  13.162   2.713 -0.2091  0.0843 -0.1356
 7636W        W26490  15.947   1.770   3.058  0.1263  0.0654 -0.2650
 7637W        W26491  10.255  14.931   5.951  0.2930 -0.1363 -0.1121
 7638W        W26492  11.558   5.806  15.535  0.0559  0.3265 -0.0551
 7639W        W26493  13.943  13.620   4.873 -0.1159  0.6032 -0.2679
 7640W        W26494   4.613   9.755  16.143  0.0316  0.3984 -0.0509
 7641W        W26495   6.521  10.522   3.565  0.4229 -0.0892 -0.1023
 7642W        W26496   2.830   7.259  16.558  0.0554  0.1672  0.0109
 7643W        W26497   8.414   6.417  15.520 -0.2015 -0.1438  0.1883
 7644W        W26498  10.848  15.115   3.202 -0.1220  0.1378  0.0288
 7645W        W26499  16.716   0.396  14.952 -0.0595 -0.1898  0.2196
 7646W        W26500   0.109  15.553  12.588 -0.2062 -0.3850  0.1738
 7647W        W26501  10.653   5.610  15.764 -0.1242 -0.3219  0.0026
 7648W        W26502   7.087   5.378   1.275 -0.0888  0.1799  0.0426
 7649W        W26503  10.058  15.677  12.501  0.0453 -0.0403  0.2492
 7650W        W26504  11.114  14.568   2.167  0.4357  0.2123  0.1775
 7651W        W26505   1.950   6.929   3.380  0.1661  0.0212  0.0375
 7652W        W26506  10.011  16.404  12.790  0.0084 -0.3143  0.0926
 7653W        W26507  12.307  17.197  14.396 -0.0426 -0.1005  0.0470
 7654W        W26508   7.876   1.000  12.606 -0.0777 -0.1869 -0.0352
 7655W        W26509   8.586  10.731   1.432  0.2106 -0.0975 -0.0032
 7656W        W26510  15.744   8.400  13.259 -0.0727  0.0237 -0.1406
 7657W        W26511   2.345   4.117  12.826 -0.2014  0.0263  0.1144
 7658W        W26512   2.198   9.599   3.298  0.3900 -0.0780 -0.0110
 7659W        W26513   1.977  16.960   4.567 -0.3152 -0.0224 -0.0572
 7660W        W26514   5.456  14.443  16.330 -0.0373  0.0138  0.0124
 7661W        W26515  12.810   4.418  14.398  0.1715  0.2029  0.2097
 7662W        W26516  13.170   5.455  15.323 -0.0445  0.2377  0.4523
 7663W        W26517  13.801   2.053  13.943  0.2978  0.0526 -0.0729
 7664W        W26518   3.581  11.191   3.632  0.0061  0.0053  0.0899
 7665W        W26519   0.761  15.807  14.537 -0.1714 -0.0423  0.2939
 7666W        W26520   1.356   4.120  13.844 -0.0486 -0.0072 -0.0957
 7667W        W26521   5.355   3.791   2.295 -0.0296 -0.3233  0.0769
 7668W        W26522   3.493  13.742  14.490  0.0124 -0.3231  0.2626
 7669W        W26523  11.510  13.101  15.409 -0.1976 -0.0074  0.0122
 7670W        W26524   6.706   7.451   2.523 -0.2874  0.0157  0.0923
 7671W        W26525   9.676   7.673   3.984  0.1009  0.1914  0.0399
 7672W        W26526   4.836  12.227  14.281  0.2890  0.1580 -0.1447
 7673W        W26527   2.471   1.928   1.931 -0.2372 -0.1386  0.1654
 7674W        W26528   8.096  13.112  14.056 -0.0684 -0.1611 -0.0131
 7675W        W26529  14.430   2.317  16.318  0.0445  0.3468  0.0596
 7676W        W26530   7.688   5.997   2.013  0.1371 -0.3345 -0.0707
 7677W        W26531   4.217   8.643  16.711 -0.1446  0.0705  0.0575
 7678W        W26532   9.774   0.514   1.018  0.3191 -0.1369  0.5680
 7679W        W26533  16.110   5.813   1.311  0.0134 -0.0366 -0.0811
 7680W        W26534   9.113   7.356  13.359 -0.1908  0.1753  0.0931
 7681W        W26535  14.332  16.525   0.791 -0.0849 -0.3675  0.1531
 7682W        W26536   0.352  13.524   3.434  0.2642  0.3220 -0.1884
 7683W        W26537   3.154   2.328   1.563 -0.1809  0.1469  0.0239
 7684W        W26538   6.500   0.734  15.618  0.0673 -0.1197 -0.1011
 7685W        W26539   8.916   2.167   4.093 -0.1427  0.0826  0.2124
 7686W        W26540   6.181  12.355   3.307  0.1546  0.1842 -0.2486
 7687W        W26541   5.184  10.757   3.062 -0.1201  0.3108 -0.0434
 7688W        W26542  16.683   6.511   3.393 -0.2669  0.1232  0.0657
 7689W        W26543  13.061   0.548   5.053  0.2346 -0.0128 -0.2336
 7690W        W26544  13.816   3.336   2.732  0.0334  0.3425 -0.0968
 7691W        W26545  14.240   6.225  13.953 -0.1100  0.0540  0.1757
 7692W        W26546  12.704  12.997  15.190 -0.2589  0.2154  0.0145
 7693W        W26547  12.208   9.071   1.049 -0.2355 -0.0564 -0.1812
 7694W        W26548   7.114   5.917  14.717 -0.0343 -0.1473  0.0349
 7695W        W26549  15.845   1.244  13.253 -0.0094 -0.1310  0.0122
 7696W        W26550   5.421   1.552  16.482  0.2704  0.0214  0.1329
 7697W        W26551   7.204   5.993   4.849  0.1339 -0.3951  0.3225
 7698W        W26552  10.206   2.542   2.373 -0.0095  0.0752 -0.0406
 7699W        W26553  13.644   7.169  14.684  0.0322  0.1262  0.0032
 7700W        W26554   8.233  12.453   1.985  0.1623 -0.4291 -0.0260
 7701W        W26555   5.760  16.651   3.600 -0.2091 -0.0595 -0.2457
 7702W        W26556   4.800   5.556   1.932 -0.1752  0.0129  0.1827
 7703W        W26557   4.920   9.458   4.159  0.2328  0.0777  0.1024
 7704W        W26558   1.057   8.766  16.415  0.0211  0.5310 -0.1892
 7705W        W26559   2.116  10.957  16.009  0.1785 -0.2395 -0.0029
 7706W        W26560  11.647   4.810  12.563  0.0061  0.2836 -0.0982
 7707W        W26561   7.879   5.467  14.671 -0.0804  0.1988  0.3274
 7708W        W26562  11.078   0.993  14.656  0.0496 -0.0928 -0.0645
 7709W        W26563  10.514   5.006   1.152  0.3471 -0.1339 -0.1126
 7710W        W26564   7.452  13.341   0.716  0.0246  0.3068 -0.3442
 7711W        W26565  12.070   2.703  16.074  0.3493 -0.0437  0.1409
 7712W        W26566   9.982  14.462   4.256 -0.0388 -0.1456 -0.2862
 7713W        W26567   2.978   7.541  15.628  0.1348  0.0854 -0.1392
 7714W        W26568   5.208   3.120   3.459  0.2791  0.1522  0.0087
 7715W        W26569   7.468   7.258  12.858 -0.0991 -0.3304 -0.1111
 7716W        W26570   1.704   9.864  15.192  0.1053  0.2919  0.2019
 7717W        W26571  11.126   3.488   6.227 -0.1114 -0.0313 -0.1438
 7718W        W26572  14.633   9.938  12.611 -0.0365  0.0196  0.4471
 7719W        W26573  15.524  10.945  16.687  0.0959 -0.1477  0.1137
 7720W        W26574   4.417   2.096   3.917 -0.0892  0.2357  0.2899
 7721W        W26575  10.933   9.756   4.485  0.0567 -0.0546  0.0414
 7722W        W26576  15.537  15.295   0.288  0.3410  0.0774  0.1796
 7723W        W26577   1.808  11.242   2.529  0.0331  0.1944  0.1769
 7724W        W26578  11.700   2.994  13.857 -0.0393 -0.2079 -0.3266
 7725W        W26579   4.211   0.495   3.669 -0.0746  0.0072 -0.0283
 7726W        W26580  16.581   5.552  17.301 -0.1181  0.2698  0.0070
 7727W        W26581  13.774   4.013  12.695  0.0961 -0.1058  0.1047
 7728W        W26582  12.515  10.596  16.661 -0.1186  0.3701  0.2010
 7729W        W26583  16.430   8.509   3.534  0.0381  0.1571  0.0778
 7730W        W26584   3.092   1.834  13.791  0.0914  0.0504  0.2484
 7731W        W26585   8.870  14.892   0.633 -0.3813  0.3379 -0.0420
 7732W        W26586  15.561   2.045   4.549 -0.0760  0.0048  0.0621
 7733W        W26587   6.971  15.385  12.066  0.1325  0.0676 -0.2740
 7734W        W26588  14.359   4.266  17.021 -0.0104 -0.0910 -0.0163
 7735W        W26589   0.651   8.573   1.992 -0.2404 -0.1857  0.2286
 7736W        W26590  10.823   9.263  14.318 -0.0592  0.2715 -0.5147
 7737W        W26591  12.239   7.942   5.396 -0.3847 -0.0716 -0.1059
 7738W        W26592  13.032  10.168   0.415  0.1119  0.2465  0.3441
 7739W        W26593  11.188   0.634   3.325  0.2226  0.1851 -0.1477
 7740W        W26594  11.364   9.112  16.095 -0.0491  0.0067  0.1905
 7741W        W26595   5.050  16.338   2.767  0.3508  0.0617 -0.0782
 7742W        W26596   9.116   2.392  14.266 -0.0414  0.0237 -0.0565
 7743W        W26597  10.348  10.605  13.996 -0.1152  0.1362 -0.1965
 7744W        W26598   7.599  13.280  14.590 -0.4138  0.1262  0.2413
 7745W        W26599  14.862   5.407   0.031  0.4006  0.2025  0.0374
 7746W        W26600   4.550  15.900   5.451 -0.1808 -0.0823 -0.3272
 7747W        W26601   6.075   5.592   2.090 -0.1175 -0.0662  0.3292
 7748W        W26602   9.300   3.843  16.501  0.1550  0.2476  0.1758
 7749W        W26603   4.721   4.105  13.728  0.1929 -0.2511 -0.2465
 7750W        W26604   5.887   6.087  13.144 -0.1226  0.0531  0.1568
 7751W        W26605  10.909   9.641  14.717  0.2555 -0.0685  0.3135
 7752W        W26606  13.030   0.912  14.444 -0.1357 -0.2006  0.2531
 7753W        W26607  11.479   4.519  14.174  0.1622 -0.4051  0.0069
 7754W        W26608  10.758  16.236   3.760  0.0141  0.0158 -0.1489
 7755W        W26609  15.063   8.443   1.681  0.2823  0.0389 -0.3511
 7756W        W26610   4.203   0.419  16.988 -0.2615 -0.0370 -0.2213
 7757W        W26611   1.858   8.474  17.229 -0.1500  0.2387  0.1581
 7758W        W26612   4.495   7.210   0.315  0.2011 -0.1547  0.2850
 7759W        W26613   3.109  12.404   2.674 -0.2142 -0.0201 -0.0759
 7760W        W26614   7.409  16.258   4.164 -0.3709 -0.2848  0.1234
 7761W        W26615   5.416   9.332   2.103  0.1853  0.3573 -0.1009
 7762W        W26616   3.124   4.228   5.296 -0.0993 -0.0096  0.0744
 7763W        W26617  14.792  14.696  15.476 -0.0902  0.0888  0.1180
 7764W        W26618   1.362   6.305   3.415  0.0282 -0.0987 -0.1100
 7765W        W26619   1.728  12.046   2.281 -0.0724 -0.0638 -0.0476
 7766W        W26620  11.789   6.679  12.915 -0.1205  0.0376 -0.1540
 7767W        W26621   5.693  15.983   0.116  0.1464  0.0951  0.3005
 7768W        W26622   2.601  13.969   4.497 -0.0153 -0.0242  0.2511
 7769W        W26623  16.257   3.876   3.910  0.2290 -0.3156  0.3282
 7770W        W26624   2.847   2.836  14.022 -0.0682 -0.1313 -0.2475
 7771W        W26625  15.297   7.963   2.860  0.4520 -0.0445 -0.1345
 7772W        W26626   7.485  15.420   0.378  0.0695 -0.0212  0.4215
 7773W        W26627   5.176  12.272   2.768  0.0555 -0.2311 -0.1696
 7774W        W26628  11.542  10.485   2.324  0.0503 -0.1447  0.2162
 7775W        W26629  15.913  11.159   2.241 -0.2504 -0.2339 -0.0155
 7776W        W26630  15.328   1.782  14.414 -0.2897 -0.2008 -0.3050
 7777W        W26631  10.470  14.743  16.349  0.0355 -0.0269 -0.0003
 7778W        W26632   6.826  15.197  12.676 -0.4045  0.2498  0.0693
 7779W        W26633   3.444   9.078   1.830  0.3071 -0.1546 -0.1363
 7780W        W26634   2.259   0.413  15.309  0.5186  0.2484 -0.1295
 7781W        W26635  11.557  15.317   0.829 -0.0949  0.0536  0.0690
 7782W        W26636   8.278  15.293   5.229  0.1893  0.2854  0.0969
 7783W        W26637  17.146  14.165   3.979 -0.2328 -0.0793  0.0096
 7784W        W26638   0.146   1.695   2.736  0.0720 -0.2368  0.1608
 7785W        W26639   1.871   7.523  16.673  0.1763 -0.0073 -0.2244
 7786W        W26640  12.760  13.526  14.033 -0.0539  0.1818  0.1244
 7787W        W26641   9.756   9.111   1.215  0.0947 -0.1054 -0.0194
 7788W        W26642   0.123   0.246   0.114  0.1076  0.2034  0.4185
 7789W        W26643  14.778   3.459  17.003  0.0110 -0.1090 -0.0167
 7790W        W26644   3.173  10.813  13.042 -0.1394 -0.1022  0.0295
 7791W        W26645   0.231   7.517  14.669 -0.1897  0.0629 -0.2864
 7792W        W26646  12.502  11.044   2.735  0.1631 -0.0622 -0.2614
 7793W        W26647  11.124   2.301   2.056  0.1688 -0.0508 -0.0107
 7794W        W26648  17.030   2.277  16.928  0.1195 -0.2297  0.1867
 7795W        W26649   8.475  16.652   1.965 -0.1230  0.0951  0.3729
 7796W        W26650  12.037  13.856   3.562  0.0143 -0.0643 -0.0406
 7797W        W26651  15.989   0.373  13.931 -0.0555  0.0215  0.0753
 7798W        W26652  13.238   7.828  13.090 -0.3597  0.3183  0.0899
 7799W        W26653   8.724  10.268  12.697 -0.0305  0.1335  0.1365
 7800W        W26654  15.776  16.525   4.443 -0.2560  0.1261  0.0481
 7801W        W26655   9.732   0.219   4.647 -0.0216  0.0562 -0.0238
 7802W        W26656   0.039  16.058  16.527  0.0497  0.1554  0.2281
 7803W        W26657   1.543   1.193  12.898  0.2646  0.1873  0.1130
 7804W        W26658   8.668  13.254  17.320 -0.2487  0.0861 -0.2425
 7805W        W26659  15.334  11.879  17.187 -0.1914  0.3219 -0.0692
 7806W        W26660   5.973   4.244   4.193 -0.1373 -0.0995 -0.2669
 7807W        W26661  13.540   4.686  14.790 -0.0868 -0.1274  0.1523
 7808W        W26662   7.118   4.537   1.408  0.1172 -0.1803 -0.0930
 7809W        W26663   4.921  17.319  15.730 -0.1050 -0.2450 -0.2484
 7810W        W26664  10.693   7.698  12.995  0.4005  0.0892  0.0161
 7811W        W26665   5.503  16.427   4.014 -0.0045 -0.2411  0.3430
 7812W        W26666  15.349   5.884  15.309  0.0607 -0.2510 -0.0108
 7813W        W26667  12.641   6.171   3.347 -0.0914  0.2748  0.1177
 7814W        W26668   5.993  16.516  15.615  0.1926 -0.0505  0.1177
 7815W        W26669   9.024  12.220   4.895  0.1817  0.0067 -0.0728
 7816W        W26670   5.915  13.736  16.249 -0.1211  0.1559 -0.0210
 7817W        W26671  15.080   3.951  13.373  0.2979  0.0986  0.1154
 7818W        W26672   6.029  12.371   3.866  0.0369  0.1251 -0.0033
 7819W        W26673  16.571   9.005   3.418  0.1861 -0.0540 -0.0201
 7820W        W26674   3.845  10.198  15.223 -0.1736 -0.2686 -0.1063
 7821W        W26675   1.928   9.903   1.745 -0.3320  0.1333  0.1232
 7822W        W26676  10.535   4.086   0.699 -0.0300 -0.4128  0.0292
 7823W        W26677  12.651   5.475   4.354  0.0077  0.0396  0.2487
 7824W        W26678   9.023   8.077   1.672  0.2186  0.2624  0.3740
 7825W        W26679  13.672  12.935  13.456  0.3773  0.2380  0.2748
 7826W        W26680  11.245   0.119   3.477 -0.1310  0.2190  0.0615
 7827W        W26681   3.878  16.183  15.983  0.0691 -0.0359 -0.0681
 7828W        W26682  14.506  12.743   5.398 -0.2941 -0.1513  0.1032
 7829W        W26683  11.149  17.153   1.974  0.2891  0.0662 -0.1545
 7830W        W26684   8.325   7.727   3.983 -0.1829  0.0418  0.3457
 7831W        W26685  13.003  11.017   0.846  0.1871  0.1054 -0.1773
 7832W        W26686   2.270   5.804  13.693  0.0244  0.2860  0.1343
 7833W        W26687  16.334   1.652   4.569 -0.0187  0.0246  0.0624
 7834W        W26688  16.371   7.184  15.342  0.0224 -0.1104 -0.0545
 7835W        W26689   6.728   6.043  14.399  0.1675 -0.0272 -0.0042
 7836W        W26690   2.517   3.051  16.412 -0.0360  0.0318 -0.0842
 7837W        W26691  13.148   3.202  13.297  0.0036  0.0332  0.0366
 7838W        W26692   9.403   2.844  13.956  0.0654  0.1676  0.1962
 7839W        W26693  10.292  11.473  16.688  0.3290  0.2361 -0.3394
 7840W        W26694  11.170  16.117  16.317  0.0863  0.0784  0.1748
 7841W        W26695   0.343  14.934   4.432  0.3507 -0.0053  0.1226
 7842W        W26696  14.467   0.164   1.081 -0.1879 -0.4153  0.1090
 7843W        W26697   6.128  13.940  14.073  0.5329  0.2759  0.1889
 7844W        W26698  13.009   0.291  12.802  0.0887  0.0658  0.2832
 7845W        W26699  16.043   9.616   0.715 -0.0676  0.0122 -0.1180
 7846W        W26700   5.610  15.804   1.315  0.3136 -0.0188 -0.1011
 7847W        W26701   9.161  10.813   4.096  0.0783  0.0048  0.2328
 7848W        W26702   6.761  10.562  12.515 -0.1425  0.4454 -0.0923
 7849W        W26703  13.519  11.936  17.377  0.2421  0.1329 -0.3157
 7850W        W26704   5.648   9.344  12.369 -0.1386  0.1147 -0.0238
 7851W        W26705   6.344  10.004   1.255  0.0237  0.2178  0.2147
 7852W        W26706   5.716   3.845  13.857 -0.1856 -0.0963  0.1611
 7853W        W26707  15.927  13.450   3.897  0.0765  0.1365  0.1865
 7854W        W26708   0.276  16.277  16.176  0.0729 -0.1564 -0.1827
 7855W        W26709  10.349   7.726  15.546 -0.0062  0.1364 -0.1735
 7856W        W26710   7.270   6.276   1.745  0.0840  0.1592 -0.4011
 7857W        W26711   8.297  15.775   3.362 -0.0995 -0.1217 -0.0222
 7858W        W26712   7.472   1.935  16.005  0.2276 -0.0882 -0.0338
 7859W        W26713   2.284  15.538   0.899  0.0212 -0.0735 -0.2815
 7860W        W26714  12.337   4.747   1.954 -0.2552 -0.0285  0.0371
 7861W        W26715   3.441   3.568  13.920 -0.0307 -0.1654 -0.2507
 7862W        W26716  15.459  17.344   3.317  0.0520  0.1205 -0.1412
 7863W        W26717   7.190   2.021  13.822  0.0673  0.2290  0.0188
 7864W        W26718  16.723   6.908   1.262  0.0029  0.1620 -0.3720
 7865W        W26719  13.030   6.147   1.419 -0.0734  0.1035 -0.1213
 7866W        W26720  16.330   3.250   6.079 -0.0616 -0.2962  0.0228
 7867W        W26721   8.939   7.870   3.288 -0.1759 -0.2126  0.0037
 7868W        W26722  14.947   1.247  17.434  0.0170 -0.7030  0.2415
 7869W        W26723   7.301   8.101   3.022  0.0943 -0.3160 -0.0128
 7870W        W26724   5.884  10.456  16.879  0.2481 -0.0134 -0.4513
 7871W        W26725   2.512  16.918   2.557  0.1379  0.0632 -0.0298
 7872W        W26726   3.006   0.548  13.456  0.0345  0.3492 -0.0704
 7873W        W26727  17.183  10.170   2.533 -0.0568 -0.0110 -0.1873
 7874W        W26728  11.770   6.520   1.210 -0.1207 -0.1444 -0.2175
 7875W        W26729   9.612  10.038   5.957 -0.2021  0.1166  0.0652
 7876W        W26730   0.900   2.607   3.058  0.0245 -0.1457  0.0169
 7877W        W26731   5.688  14.443  16.814  0.0785  0.2772 -0.1400
 7878W        W26732  16.427   0.127   2.467 -0.0879 -0.2573 -0.2807
 7879W        W26733  12.047   5.393   0.881  0.1377  0.0228  0.2316
 7880W        W26734   4.762   0.876   1.568  0.0370 -0.1674  0.0634
 7881W        W26735   3.005   7.239  14.081  0.3791  0.0601  0.3182
 7882W        W26736   6.386  16.598   1.869  0.0877 -0.4216 -0.0016
 7883W        W26737   4.569   0.694  15.074  0.0583 -0.1438 -0.0457
 7884W        W26738   2.199  14.961   1.637 -0.1438 -0.0400  0.1585
 7885W        W26739  16.733   5.964   1.077  0.0725 -0.0561  0.0637
 7886W        W26740  10.081  16.581  12.332  0.2482 -0.2886 -0.1636
 7887W        W26741  15.159  14.342   0.071 -0.0247 -0.0396 -0.0336
 7888W        W26742   0.438  11.328  11.421  0.1426 -0.1285  0.0073
 7889W        W26743   5.142   2.699   0.788 -0.1048  0.0517 -0.2311
 7890W        W26744  12.301   2.915  17.072  0.2611  0.0783  0.2161
 7891W        W26745   1.357   3.792  13.019  0.3950  0.1602  0.0241
 7892W        W26746   0.931  11.574   2.960  0.1322 -0.1783 -0.1912
 7893W        W26747   5.180  10.215   2.007  0.1364  0.0829 -0.0117
 7894W        W26748   7.504  14.063  15.650  0.0002  0.0460 -0.3513
 7895W        W26749  14.216   7.479  12.778  0.0103  0.1123  0.1078
 7896W        W26750   7.835   7.935   2.879  0.0538  0.1417 -0.1240
 7897W        W26751   6.650   5.584   1.279  0.2537  0.1697  0.1236
 7898W        W26752   0.230  12.986   4.531  0.3356 -0.0666  0.0321
 7899W        W26753   0.500   8.197  14.407 -0.0285  0.1675 -0.2442
 7900W        W26754   5.989   0.778   3.853  0.4299 -0.0370 -0.3178
 7901W        W26755  10.542  16.947   1.741 -0.3418 -0.2321 -0.1598
 7902W        W26756  11.132  13.054  12.963 -0.0156  0.2704 -0.0409
 7903W        W26757  15.691   8.165   0.530  0.0387 -0.3077  0.1081
 7904W        W26758   1.731  10.122  13.632 -0.1168  0.1833  0.0597
 7905W        W26759   3.842  16.680  15.329  0.1567  0.1231  0.0158
 7906W        W26760  13.608   4.258  16.482 -0.1631  0.0446 -0.1355
 7907W        W26761   3.320  12.472  12.839  0.2182  0.1575 -0.1762
 7908W        W26762   5.694   5.161  14.178  0.3257 -0.1081 -0.3118
 7909W        W26763   3.181  14.211  17.229 -0.1254 -0.0217  0.1721
 7910W        W26764  14.809  13.715  14.619 -0.1818  0.0380 -0.2136
 7911W        W26765   9.626  10.826  12.981  0.1058 -0.1195  0.1958
 7912W        W26766  15.001   4.582  15.576  0.3362  0.0049  0.1303
 7913W        W26767   9.874  12.508  15.602  0.1069 -0.3577  0.1550
 7914W        W26768   0.919   2.791   1.582  0.1317 -0.0051 -0.0378
 7915W        W26769   8.101   4.833   1.609  0.2218  0.4562 -0.2933
 7916W        W26770   1.339  17.108  16.780 -0.1425 -0.0513  0.0642
 7917W        W26771   0.120  15.528   4.623 -0.1300 -0.2561  0.0983
 7918W        W26772   7.724  10.272  15.307  0.1292  0.0138 -0.0882
 7919W        W26773   6.152   8.952  13.128 -0.0311  0.3008  0.1203
 7920W        W26774  14.951   2.159   0.453  0.0685 -0.0104 -0.2225
 7921W        W26775  14.616   3.187   0.976  0.3402  0.2379 -0.1303
 7922W        W26776   6.495  11.846  14.662  0.0113 -0.1071 -0.0544
 7923W        W26777  12.860  15.413   2.861 -0.2928  0.2146 -0.4128
 7924W        W26778   5.175  15.998  16.706 -0.0405 -0.2574  0.2147
 7925W        W26779  11.667  10.316  17.103  0.1008 -0.0192  0.0429
 7926W        W26780  12.746   7.942  13.262  0.1402  0.0689 -0.0425
 7927W        W26781   4.261  13.633  12.410 -0.0624 -0.0049 -0.2268
 7928W        W26782   6.508   7.035  17.083  0.1582 -0.3149  0.2312
 7929W        W26783   4.621   1.928  16.161  0.0456  0.0437 -0.0587
 7930W        W26784   4.398   6.469   1.576 -0.2570 -0.0256 -0.2611
 7931W        W26785   9.578   7.646   4.484  0.1598  0.0217  0.1668
 7932W        W26786   6.294   7.782   4.230  0.0033  0.0980  0.1714
 7933W        W26787  15.676  10.299   1.890 -0.0776 -0.2591  0.0426
 7934W        W26788  13.588   2.733  14.869  0.1095  0.0328 -0.3507
 7935W        W26789  10.636  14.474  14.871 -0.1853  0.0081 -0.1403
 7936W        W26790   2.517   1.794  17.184  0.1326  0.2427  0.0768
 7937W        W26791   3.546   6.858  13.447 -0.0304 -0.2544 -0.0120
 7938W        W26792  17.192   6.729   1.294 -0.3050  0.1002  0.2446
 7939W        W26793   8.784   2.342  15.480  0.1465  0.2428  0.0149
 7940W        W26794   5.706   3.166   0.438  0.3955 -0.0183  0.1560
 7941W        W26795   6.225   3.298  16.556 -0.0057  0.2173 -0.0489
 7942W        W26796  13.465   3.458   1.686 -0.1809  0.1321 -0.0709
 7943W        W26797  17.340   3.970   5.399  0.1206  0.0406 -0.0409
 7944W        W26798   8.951   4.610   0.827 -0.0960  0.1414 -0.2969
 7945W        W26799   5.554  17.291  16.733 -0.1035  0.0550  0.4748
 7946W        W26800  16.540  11.105   1.252 -0.1662 -0.2834 -0.0835
 7947W        W26801   8.885   4.476   2.309 -0.1390 -0.0654  0.0280
 7948W        W26802  12.708   2.631   0.759  0.1481  0.0936  0.2181
 7949W        W26803   6.303  11.485  13.113  0.0144  0.0976  0.0455
 7950W        W26804  10.993   2.205  14.843 -0.2323  0.1343 -0.1500
 7951W        W26805   4.464   1.152   5.181 -0.0140 -0.0131  0.1787
 7952W        W26806  12.253   9.200   2.800  0.1553  0.1569  0.1456
 7953W        W26807   0.824   8.445  11.832  0.0535 -0.3526  0.3739
 7954W        W26808   3.471  10.018   4.247  0.2792 -0.4489 -0.4245
 7955W        W26809   5.615   6.308   4.029  0.1958  0.1341 -0.0843
 7956W        W26810   6.759   5.935  12.935 -0.2367 -0.0586 -0.0783
 7957W        W26811   9.444   3.442  13.002  0.1200 -0.3947  0.2449
 7958W        W26812   5.261  17.072  15.480  0.1525  0.2413  0.2199
 7959W        W26813  17.230   4.264   3.888  0.0537 -0.0411  0.2859
 7960W        W26814  11.725   2.245  16.397  0.1067  0.1260 -0.1086
 7961W        W26815   2.746  11.097   4.688  0.0088 -0.1668  0.0492
 7962W        W26816   4.060  10.112   4.465 -0.1457 -0.3612 -0.0064
 7963W        W26817  15.672   7.363   2.923 -0.0972 -0.0791  0.1102
 7964W        W26818   9.399   7.736   2.246  0.3337  0.0771 -0.2628
 7965W        W26819   2.177   1.667   0.167 -0.0077 -0.0312 -0.1197
 7966W        W26820  16.647  17.287  17.472 -0.2654 -0.0599  0.2364
 7967W        W26821   0.673   3.421  17.265 -0.1990 -0.2075  0.1558
 7968W        W26822  16.830   9.222  12.702 -0.1290 -0.1088 -0.2035
 7969W        W26823   4.803  10.104  15.716  0.2896 -0.1568 -0.0181
 7970W        W26824   9.375   7.257  15.177  0.2260 -0.0311  0.1400
 7971W        W26825   4.365   4.293  14.511 -0.2267  0.0986  0.1268
 7972W        W26826   6.531   0.264   5.010  0.1633 -0.0284  0.0643
 7973W        W26827  13.830   4.683   4.707  0.4118 -0.1820 -0.1866
 7974W        W26828   5.332  16.902   0.765  0.0495 -0.2337  0.1658
 7975W        W26829   0.761  10.430   5.705 -0.0451 -0.0844  0.0193
 7976W        W26830  11.161  13.070   1.167  0.0847 -0.1233 -0.0954
 7977W        W26831  13.028   0.272   4.486  0.0090  0.1891  0.3309
 7978W        W26832  12.162   0.833   4.296 -0.0664 -0.0728  0.2612
 7979W        W26833   4.659  12.533   5.856 -0.0087 -0.1732  0.0165
 7980W        W26834  15.385   9.798   0.976 -0.0446 -0.0562  0.3047
 7981W        W26835  10.531   9.606   2.680 -0.4548 -0.0566  0.1294
 7982W        W26836   2.881   5.506  12.994  0.3588  0.1221  0.0556
 7983W        W26837   5.732   2.250  15.858  0.0041  0.1862  0.0061
 7984W        W26838  14.416   7.445   4.947  0.1120 -0.0067  0.2869
 7985W        W26839  15.652  10.766  16.233 -0.0519  0.2719  0.1872
 7986W        W26840  14.213   4.101  12.957 -0.0800  0.0148 -0.3498
 7987W        W26841  12.407   2.787   4.678 -0.5255  0.0476  0.3485
 7988W        W26842  10.970   9.060   5.557 -0.2702 -0.1817 -0.0101
 7989W        W26843   6.966  15.214  14.703 -0.2042 -0.2445  0.0541
 7990W        W26844  17.072  16.737   1.663  0.1069  0.1172  0.0208
 7991W        W26845  14.806   0.018  16.628  0.1797 -0.1751  0.0173
 7992W        W26846   2.130  15.093  14.761 -0.1756  0.1519 -0.2538
 7993W        W26847  10.422   3.928   1.195  0.0162 -0.0042 -0.0997
 7994W        W26848   0.505  12.657   0.383 -0.2253  0.0258 -0.1714
 7995W        W26849   2.675   7.140  13.728 -0.3653 -0.1267  0.0664
 7996W        W26850   5.810  12.647   3.491 -0.1638  0.1192  0.1928
 7997W        W26851  12.652  12.448  17.113 -0.2784  0.2728  0.1005
 7998W        W26852   6.291   6.257  12.768 -0.1212  0.1901  0.0582
 7999W        W26853   6.213   9.541  16.732 -0.2848  0.1128 -0.1507
 8000W        W26854   7.064   4.474   2.440 -0.0674 -0.0730 -0.0129
 8001W        W26855   1.218   1.827   5.189 -0.1170  0.1258  0.0025
 8002W        W26856   5.037  11.666   3.939  0.1727 -0.0116 -0.2066
 8003W        W26857   4.784   6.123  12.833 -0.0296 -0.1417 -0.2847
 8004W        W26858   6.222  14.730   3.193  0.0102 -0.2080 -0.1420
 8005W        W26859   3.157   6.406   3.984 -0.1721 -0.0220  0.2629
 8006W        W26860   9.535   8.684  16.999  0.1612 -0.0909  0.2126
 8007W        W26861  12.579  15.625  12.784  0.0139  0.0580  0.0770
 8008W        W26862   2.033   2.540   0.360 -0.0184  0.1839 -0.3858
 8009W        W26863   1.505  17.379  17.190 -0.0534  0.2815 -0.1494
 8010W        W26864  14.434   3.115   1.448 -0.0510 -0.1357  0.0111
 8011W        W26865  10.015   6.599   5.369 -0.1092  0.0159 -0.4131
 8012W        W26866   0.972  10.197  16.331 -0.0815  0.2492 -0.1689
 8013W        W26867   6.683  11.721   1.624  0.0049  0.3066 -0.0530
 8014W        W26868   2.499  10.418  13.259 -0.1333  0.0609  0.0736
 8015W        W26869   5.856   4.858   4.905  0.3771  0.0954 -0.1910
 8016W        W26870  13.291  11.957   0.364  0.0655  0.1808 -0.1007
 8017W        W26871   5.276   8.019   3.348  0.0322 -0.2629  0.1365
 8018W        W26872   4.721  17.355  16.223 -0.3573 -0.1633  0.0684
 8019W        W26873   8.941   3.604   4.402  0.1538 -0.1372  0.0848
 8020W        W26874  12.589   3.341   4.852  0.1239  0.0309 -0.2175
 8021W        W26875  12.936   2.572   2.786 -0.0687  0.0091 -0.0172
 8022W        W26876  13.139   9.457   3.695  0.0354  0.1288 -0.1178
 8023W        W26877   2.484   3.730   0.361 -0.2895 -0.0953 -0.1450
 8024W        W26878   2.504  13.029   3.431 -0.0762 -0.3359 -0.0489
 8025W        W26879   5.245   0.279   1.204 -0.0573  0.0229  0.0332
 8026W        W26880  13.675   2.900  17.393  0.1513  0.0767  0.0239
 8027W        W26881  10.421  10.841  17.349  0.1498  0.0079 -0.0432
 8028W        W26882   6.086  15.268  13.117  0.0540  0.1217  0.0696
 8029W        W26883  13.421   7.685   2.916  0.1080  0.0566  0.1199
 8030W        W26884   0.714  10.615  14.254  0.1312  0.1769  0.0082
 8031W        W26885  14.089  14.510  13.524 -0.0764  0.3773  0.0079
 8032W        W26886   0.377  12.531  15.786 -0.0947  0.2733 -0.0973
 8033W        W26887  12.753   6.025   0.281 -0.1448  0.1694 -0.4196
 8034W        W26888   7.305  10.959   4.705  0.1186 -0.1966 -0.1107
 8035W        W26889   7.979  12.897  14.737 -0.2616 -0.2697  0.2590
 8036W        W26890   2.260  15.672   6.144 -0.1264  0.0859 -0.1109
 8037W        W26891  12.762  13.521  15.129 -0.0978 -0.0240  0.0706
 8038W        W26892   0.552   2.622   2.661  0.0051 -0.0496  0.0879
 8039W        W26893   8.293   1.120   4.010  0.0544  0.2738 -0.1367
 8040W        W26894  13.766   3.882   0.021  0.3720  0.0954 -0.1916
 8041W        W26895   5.883   0.197   3.718 -0.1760 -0.0554 -0.0755
 8042W        W26896   5.955  12.837   0.853  0.0977 -0.3788  0.1631
 8043W        W26897   7.906   9.091  12.208  0.0023 -0.0302  0.5199
 8044W        W26898   1.887   4.425   2.492 -0.0636 -0.0417  0.0256
 8045W        W26899  11.624   6.865   0.215 -0.0311 -0.0811 -0.0027
 8046W        W26900  16.131  11.412   3.637 -0.2618 -0.0074  0.0781
 8047W        W26901  10.215   4.719  15.582  0.2541 -0.0851 -0.2804
 8048W        W26902   2.524   7.919   1.147  0.0701  0.1673  0.0606
 8049W        W26903   9.766  13.505   2.001 -0.1869  0.2201 -0.0027
 8050W        W26904  10.214  12.143  12.199  0.0135  0.0271 -0.3164
 8051W        W26905   4.848   9.163   2.710  0.1144 -0.0167  0.0803
 8052W        W26906  14.853  15.133  14.107 -0.0152  0.1922 -0.0540
 8053W        W26907   4.804   0.391  14.783  0.1661  0.2582  0.1124
 8054W        W26908   5.494  10.770   1.180 -0.0862 -0.2219  0.0797
 8055W        W26909   9.618   6.575   3.323 -0.0184  0.1333 -0.0547
 8056W        W26910   5.302   4.215  15.054 -0.1005  0.3425 -0.0526
 8057W        W26911   9.712   5.998  14.849 -0.1251 -0.0810  0.1982
 8058W        W26912   7.414   4.125   2.935  0.1482  0.2564 -0.1804
 8059W        W26913  13.524   4.003  16.950 -0.1993 -0.0841 -0.0288
 8060W        W26914   4.006   8.623  12.369 -0.0184 -0.0213 -0.1534
 8061W        W26915  12.898   7.877  15.474  0.1314  0.0454  0.1703
 8062W        W26916  11.564  15.365  16.752  0.3321 -0.0215  0.0237
 8063W        W26917   5.028  14.179  14.920 -0.1034 -0.0270  0.3141
 8064W        W26918   7.507  17.191  14.274  0.1255 -0.0606 -0.2696
 8065W        W26919   7.710   4.500   3.705  0.2077 -0.2827  0.1062
 8066W        W26920  17.226   9.529   0.723  0.1069  0.2358 -0.0478
 8067W        W26921  15.271   5.203  16.245 -0.3420  0.1608 -0.0864
 8068W        W26922   1.830  16.028   3.499 -0.1257 -0.0648 -0.3142
 8069W        W26923  15.703   0.422   2.633 -0.0486 -0.1199 -0.2572
 8070W        W26924   6.866   4.898   1.044  0.1969 -0.1137  0.0197
 8071W        W26925  11.651  16.737  16.109  0.5819 -0.4675  0.1112
 8072W        W26926  15.125  13.127   3.355 -0.2842  0.0187  0.0812
 8073W        W26927   0.180  11.039   2.071 -0.1413  0.4580  0.3196
 8074W        W26928   4.404   4.687  11.337 -0.0417  0.1324  0.2250
 8075W        W26929   5.618  14.170   1.335  0.0159  0.0166  0.0830
 8076W        W26930   3.892   6.739   3.320  0.0030 -0.1654 -0.0298
 8077W        W26931   5.527  13.251  12.944 -0.2888 -0.1389  0.1288
 8078W        W26932  12.187  13.599   0.875 -0.2702 -0.0164  0.3959
 8079W        W26933  15.960   7.868   4.439 -0.1940 -0.1217  0.1939
 8080W        W26934  12.454  13.861  12.619 -0.1219 -0.2202  0.1068
 8081W        W26935  16.918   2.948  13.661 -0.1551 -0.3381  0.3372
 8082W        W26936   5.943   1.966  14.780 -0.0180 -0.1395  0.1446
 8083W        W26937   2.774   3.773   3.695 -0.3014 -0.1207 -0.1586
 8084W        W26938   7.865   7.242  16.352  0.0093  0.1949 -0.0917
 8085W        W26939   7.078  15.371   2.617 -0.0892  0.1073 -0.1597
 8086W        W26940  12.984   6.515  14.964 -0.1216 -0.1669  0.0269
 8087W        W26941  11.891   6.322  14.931 -0.2338 -0.1138 -0.1904
 8088W        W26942   6.524   2.789   5.295  0.1032  0.0160  0.0259
 8089W        W26943  13.085  15.046   3.079  0.1254 -0.2228  0.1348
 8090W        W26944   6.388   0.869  11.938  0.1939  0.0981  0.0005
 8091W        W26945  13.164   5.713  16.673  0.3093 -0.0105  0.0618
 8092W        W26946   4.197   0.279  17.429  0.1432  0.2262 -0.1614
 8093W        W26947   7.194   1.755  16.349  0.2964 -0.0114 -0.3428
 8094W        W26948  14.420  11.106   2.369  0.1736 -0.0077  0.4114
 8095W        W26949   2.914   9.351  13.740 -0.3929  0.0537 -0.1118
 8096W        W26950   1.575   2.128   2.016 -0.0118  0.1243 -0.1654
 8097W        W26951  12.063   0.769   1.769 -0.0966 -0.1163 -0.1150
 8098W        W26952  12.405   6.956  15.415  0.2284  0.0768 -0.1616
 8099W        W26953  12.395  15.599  13.997 -0.0012 -0.0165  0.0698
 8100W        W26954   7.252   8.594   2.100  0.2683 -0.1707 -0.0185
 8101W        W26955   6.507  16.059  17.301 -0.1169  0.1017  0.1328
 8102W        W26956   8.640   4.628   4.213 -0.1093 -0.1472  0.1090
 8103W        W26957   5.988  15.483  14.826 -0.2037  0.0089  0.1611
 8104W        W26958  10.053   7.017   4.808  0.3858 -0.0785  0.4183
 8105W        W26959   6.324   0.960  13.176 -0.0623 -0.0320 -0.1979
 8106W        W26960   3.313   2.641  15.419  0.1355 -0.2230 -0.0818
 8107W        W26961   5.269  14.815  16.047  0.1640  0.0212 -0.0633
 8108W        W26962   4.628   0.254  16.774  0.3209 -0.0060 -0.0686
 8109W        W26963  16.063   4.092   3.169  0.0276 -0.1291  0.1058
 8110W        W26964  11.668   5.670   0.857  0.3378 -0.0107  0.1033
 8111W        W26965  16.035  16.991   3.823 -0.0838  0.2014  0.2852
 8112W        W26966   2.740   8.541  12.880 -0.2942  0.1336  0.2747
 8113W        W26967   3.789   8.890   5.227  0.1084 -0.0016 -0.3040
 8114W        W26968  10.410   6.292  12.862 -0.0646 -0.4259 -0.1052
 8115W        W26969   2.457   3.425   5.028 -0.0623  0.1315  0.0000
 8116W        W26970   6.450  11.361   3.836  0.0621  0.3579 -0.1356
 8117W        W26971   3.101  15.950  17.331  0.0864 -0.1202  0.0403
 8118W        W26972   2.445   5.611  16.233  0.1810  0.0687  0.0666
 8119W        W26973  14.867   2.433  16.708  0.1079 -0.4969  0.3442
 8120W        W26974  11.256   6.453   1.151  0.4115  0.0752  0.0134
 8121W        W26975  11.670  14.102  14.426 -0.0478  0.0275  0.1131
 8122W        W26976   5.538   2.898  12.987 -0.0124 -0.3231  0.0002
 8123W        W26977  16.999  13.826  12.219 -0.3014  0.1541 -0.1713
 8124W        W26978   8.648   2.070  14.501  0.0102 -0.2620  0.1982
 8125W        W26979   1.617   3.113   3.350  0.0228  0.1597 -0.0546
 8126W        W26980  14.684   4.770  15.256  0.0452  0.0663 -0.3736
 8127W        W26981  16.441  14.969  16.406 -0.1558 -0.1506  0.3303
 8128W        W26982   1.733  13.375   4.895  0.1198 -0.0044  0.0294
 8129W        W26983   8.868   3.123   5.093  0.1397  0.0331 -0.0123
 8130W        W26984   4.244   7.957   0.593  0.1075  0.1025 -0.0764
 8131W        W26985   7.826   5.122   1.935 -0.1265 -0.2103 -0.0124
 8132W        W26986  12.989  13.262  15.551 -0.0819  0.0604  0.4142
 8133W        W26987   0.794   6.444   0.711 -0.0970 -0.0188  0.0330
 8134W        W26988   9.689   8.932   5.134  0.0520 -0.0365  0.1392
 8135W        W26989  11.277  13.531  15.974 -0.2289 -0.2089 -0.0444
 8136W        W26990  12.926   3.283  11.905  0.1121  0.0544  0.0225
 8137W        W26991   7.553   8.853   0.520  0.4004 -0.3277 -0.1387
 8138W        W26992   7.672  16.893  14.804 -0.3722 -0.0939 -0.1295
 8139W        W26993   7.966  12.161  12.969 -0.1644 -0.1793 -0.1535
 8140W        W26994  16.562   5.838   4.379  0.2784 -0.1786  0.0552
 8141W        W26995  12.132   8.414   4.684 -0.0647 -0.0896  0.0901
 8142W        W26996   9.173  15.107  17.266 -0.0175  0.0964 -0.1101
 8143W        W26997   0.599  11.218   2.702  0.0415 -0.3890 -0.1302
 8144W        W26998   6.162  12.733   5.532 -0.0909 -0.6564 -0.1930
 8145W        W26999   4.746   1.398  13.705  0.0522  0.0817  0.0225
 8146W        W27000   7.948  12.462   1.565 -0.2291  0.1653 -0.1168
 8147W        W27001  17.087  17.405  14.162  0.1016 -0.1010 -0.1597
 8148W        W27002  15.217   6.989   5.138  0.1520  0.0480 -0.0026
 8149W        W27003  10.573   2.232   1.564 -0.3962  0.0678 -0.0539
 8150W        W27004   2.238  12.820  13.439  0.4475  0.1590 -0.2450
 8151W        W27005   4.849   8.530   1.857 -0.1912 -0.0970  0.0112
 8152W        W27006   6.157  15.107  17.422 -0.1485  0.0009 -0.0782
 8153W        W27007   0.007   6.912   4.674 -0.2076 -0.0105 -0.1025
 8154W        W27008   9.158  13.993  16.325  0.1860  0.0343  0.1874
 8155W        W27009   4.832   0.357   3.783 -0.1783 -0.1161  0.1055
 8156W        W27010   7.044   0.786   0.509 -0.1060 -0.0405 -0.0676
 8157W        W27011  15.701  13.752  16.738  0.3138  0.0110 -0.2194
 8158W        W27012   3.501  15.239  15.807 -0.0235  0.0531 -0.1926
 8159W        W27013   8.161  14.796   5.176  0.2825 -0.0534 -0.2332
 8160W        W27014  17.257   6.393   2.226 -0.2645 -0.1283  0.2063
 8161W        W27015  16.715  11.244  16.332  0.0283  0.0509 -0.0634
 8162W        W27016  12.985  11.527   1.629 -0.0818  0.1005 -0.2229
 8163W        W27017  13.338   6.768   3.972 -0.0040  0.0163 -0.0709
 8164W        W27018   9.851   2.805  14.912  0.3578 -0.0711 -0.0361
 8165W        W27019   8.428   0.366  17.040  0.0541  0.1608  0.0674
 8166W        W27020   5.384   0.814  12.804 -0.1593 -0.0143 -0.1794
 8167W        W27021   0.128   0.289  16.508  0.5532  0.1498  0.0058
 8168W        W27022   5.647  11.766   1.634  0.0945 -0.0599 -0.0382
 8169W        W27023   9.766   0.168  14.256  0.3091  0.2635  0.0788
 8170W        W27024   9.834  15.399   2.107  0.1002 -0.1382  0.0861
 8171W        W27025  11.885   6.669   3.969  0.0007 -0.1984  0.0292
 8172W        W27026  16.811  13.071   5.117 -0.1907 -0.3116 -0.2739
 8173W        W27027  11.755   5.712   4.251 -0.0111  0.1850  0.1060
 8174W        W27028   3.808   2.703  16.693  0.1164 -0.1236 -0.2537
 8175W        W27029  14.855   1.645  13.578 -0.0671 -0.5167 -0.2367
 8176W        W27030  11.464   8.588  15.007 -0.1852 -0.1840  0.1574
 8177W        W27031   8.643  15.584  15.659 -0.3458 -0.0568  0.0144
 8178W        W27032   2.688  13.670   1.073  0.1176  0.0185  0.1402
 8179W        W27033   4.182   6.053   3.147  0.0496 -0.0536  0.3577
 8180W        W27034   4.423   5.140   4.187  0.1290 -0.1140 -0.1678
 8181W        W27035   2.964  10.077  16.104 -0.2575  0.1269  0.0399
 8182W        W27036   4.427  14.653  17.123 -0.1574  0.0525 -0.3141
 8183W        W27037  10.633  12.283  16.800 -0.0122 -0.2984 -0.0478
 8184W        W27038   6.594   2.667   2.981 -0.2357  0.1543 -0.2750
 8185W        W27039   0.533   1.549  15.080 -0.0800  0.0732  0.0620
 8186W        W27040   0.158  15.736   1.353  0.0234 -0.3148 -0.0858
 8187W        W27041  10.553   3.290   4.735 -0.3212 -0.3091  0.2107
 8188W        W27042   2.815   3.370  12.346 -0.0662 -0.2996  0.1286
 8189W        W27043   1.060  13.398  16.402  0.0475  0.0967  0.0836
 8190W        W27044  15.502  14.638   5.208  0.0259 -0.0122  0.0048
 8191W        W27045   3.916   1.622   1.270 -0.1710  0.4844  0.2075
 8192W        W27046  11.506   6.702   2.577  0.1103  0.0737  0.2473
 8193W        W27047   4.373   9.476  15.160  0.2130 -0.2022  0.0362
 8194W        W27048  11.535   8.970  13.496 -0.0845  0.0893  0.1720
 8195W        W27049   0.493   9.471   4.998 -0.1285  0.4707 -0.4264
 8196W        W27050  14.731  13.739  13.799  0.0329  0.1935  0.3570
 8197W        W27051   4.391   2.154  14.918  0.0208 -0.1051  0.0823
 8198W        W27052   5.388   9.911  15.170 -0.1548  0.1595 -0.0819
 8199W        W27053   4.223  13.162  12.389 -0.0833  0.4609  0.3061
 8200W        W27054  10.422   7.297   2.560  0.2874  0.0686  0.2420
 8201W        W27055  15.323   7.199   1.723  0.1961  0.2093 -0.1211
 8202W        W27056   2.445   8.810   3.673  0.3665 -0.4278  0.0475
 8203W        W27057  11.600  10.443  13.486  0.3303 -0.0773  0.1875
 8204W        W27058   8.822  11.655  13.026  0.0075  0.1653 -0.1163
 8205W        W27059   0.404   6.523  14.490 -0.2569  0.0157 -0.0136
 8206W        W27060   9.452   1.685   2.487 -0.0994  0.1477 -0.1076
 8207W        W27061  13.341   1.481  16.545 -0.0558 -0.5174 -0.3013
 8208W        W27062   5.947   3.471  13.608 -0.2887 -0.1342 -0.2737
 8209W        W27063  13.148   0.933   0.007 -0.1059  0.0092  0.1966
 8210W        W27064  12.005   4.465   2.179  0.1664 -0.1426 -0.1339
 8211W        W27065   6.588   2.312   1.528  0.0565  0.0258  0.1125
 8212W        W27066   3.916   4.061   3.281 -0.0086  0.0965 -0.2341
 8213W        W27067   9.178   3.095  15.190  0.4070 -0.2180  0.0209
 8214W        W27068   7.421   9.412  16.781  0.0174  0.1812  0.3097
 8215W        W27069  17.208   9.911  16.568  0.0741  0.0003  0.0137
 8216W        W27070  17.297  11.956   3.651  0.0927  0.1953 -0.1396
 8217W        W27071   2.041   7.236  12.122 -0.2053  0.0817 -0.1537
 8218W        W27072  11.633  11.824  14.361 -0.3042 -0.2310 -0.0841
 8219W        W27073   3.815   8.023   0.301  0.1033 -0.1993 -0.0828
 8220W        W27074   9.710   3.167  16.823  0.0464 -0.1279 -0.1867
 8221W        W27075  12.099  15.655   2.269  0.1833 -0.0492 -0.1040
 8222W        W27076   5.743   4.486   2.385 -0.0578 -0.0132  0.2575
 8223W        W27077  14.819   1.619   0.275  0.3262 -0.1560  0.4119
 8224W        W27078  13.425   5.174  11.886 -0.1210 -0.0826  0.0375
 8225W        W27079  12.210  11.410  12.660  0.0540  0.0410 -0.0903
 8226W        W27080   0.897  15.149   4.487  0.0068  0.0371  0.0300
 8227W        W27081   9.113  13.573   2.720  0.5122  0.2493  0.2342
 8228W        W27082  15.743   6.581  15.940  0.3111  0.4081  0.0183
 8229W        W27083   0.663   9.901   5.009 -0.1868  0.1646 -0.1443
 8230W        W27084  12.452   7.957  12.579 -0.1072 -0.0189 -0.0735
 8231W        W27085  11.645  15.673  13.050  0.1550 -0.1050  0.0773
 8232W        W27086   0.675   0.389   2.290  0.0924  0.1117  0.1250
 8233W        W27087   6.268   4.610  13.462 -0.0129 -0.4223  0.0463
 8234W        W27088   0.774   9.523   3.873 -0.0967  0.2008  0.1916
 8235W        W27089   3.155  14.914   4.132 -0.2379 -0.0973 -0.0022
 8236W        W27090  11.751   5.786   4.810 -0.3443 -0.1057 -0.0770
 8237W        W27091   3.940  12.742  17.153  0.3941  0.3272  0.0486
 8238W        W27092   9.786   5.535   0.813 -0.1953  0.2361 -0.1363
 8239W        W27093   0.276   8.209   2.779 -0.0773 -0.1346  0.2979
 8240W        W27094  15.996   7.453   4.747  0.1042  0.3425  0.1051
 8241W        W27095  14.825   8.620  16.916  0.2950  0.2931  0.1568
 8242W        W27096  10.808   2.089  16.564  0.0204 -0.5429  0.2975
 8243W        W27097   5.249   8.548   3.360  0.0058 -0.0989 -0.0147
 8244W        W27098   1.509  13.667  12.639  0.0613 -0.2416  0.2035
 8245W        W27099   2.455  10.740  15.220 -0.0552  0.2370  0.2272
 8246W        W27100   0.733  10.983   4.888  0.0974  0.0971 -0.2199
 8247W        W27101   1.831  17.285  16.486 -0.0132 -0.0901  0.1597
 8248W        W27102   4.550  15.585   4.279 -0.1953  0.1727 -0.0757
 8249W        W27103   5.913   6.110  15.851 -0.2368  0.0798 -0.1716
 8250W        W27104   9.650  14.224  14.233  0.0163  0.0416  0.0607
 8251W        W27105   7.120   1.593   4.295 -0.1956  0.1258  0.4967
 8252W        W27106   1.603  14.992  14.688 -0.1758 -0.0354  0.0709
 8253W        W27107   7.897   8.655  17.176 -0.1444  0.0957 -0.0661
 8254W        W27108   9.940   2.232   3.663 -0.2003 -0.0139  0.0780
 8255W        W27109   4.238  10.562  15.008 -0.0272 -0.1112  0.2371
 8256W        W27110   2.056   9.942  12.901  0.1873 -0.0510  0.1495
 8257W        W27111   4.412  17.172  15.799  0.1056  0.0385 -0.0460
 8258W        W27112  14.337  15.710  14.916  0.3840 -0.1388  0.0410
 8259W        W27113   9.281   9.203   4.010  0.1296 -0.1242  0.4271
 8260W        W27114   3.413   0.752   2.704 -0.0217 -0.1493  0.1708
 8261W        W27115   4.459   0.005  14.888  0.2248  0.1386  0.1240
 8262W        W27116   5.849   5.565   4.366 -0.1660  0.0359 -0.0762
 8263W        W27117   4.910  15.585   2.049  0.5061 -0.0398  0.0418
 8264W        W27118  12.260   8.902  14.553  0.0531 -0.0972 -0.2923
 8265W        W27119   9.313   2.785   1.037 -0.4774 -0.1196 -0.1543
 8266W        W27120  16.887   7.825   2.882 -0.1194 -0.2610  0.2787
 8267W        W27121   0.965  11.048  14.957 -0.2206 -0.0039 -0.0965
 8268W        W27122   1.749  14.837   4.427  0.2118 -0.0120 -0.2194
 8269W        W27123   9.403  16.324   2.265  0.0699 -0.2883  0.0770
 8270W        W27124  14.274   7.452  13.630 -0.3959  0.0498 -0.0192
 8271W        W27125   1.645   6.089  14.645  0.4560 -0.0399 -0.0675
 8272W        W27126   5.444  12.272  13.741 -0.0387 -0.2390  0.1858
 8273W        W27127   6.255  13.114   1.995 -0.5037 -0.4842  0.1698
 8274W        W27128   8.603   5.570  12.712  0.0923 -0.2515  0.1394
 8275W        W27129   0.048  13.801   1.661  0.1182  0.2193 -0.1082
 8276W        W27130  16.134  10.894   1.106 -0.3344 -0.0137 -0.2077
 8277W        W27131  11.797  11.612  12.449 -0.0772 -0.0039 -0.3522
 8278W        W27132  12.745   9.686  14.794 -0.0937  0.0306 -0.2145
 8279W        W27133  14.447   8.132  13.491 -0.0569  0.0213 -0.2524
 8280W        W27134  14.631  16.752   0.255  0.2244  0.3459 -0.4120
 8281W        W27135  13.680   6.995   0.229  0.0708 -0.1165 -0.1079
 8282W        W27136   6.236  15.841   3.691 -0.0754 -0.0885  0.0537
 8283W        W27137  12.720  13.729   0.264  0.2262 -0.0937 -0.0461
 8284W        W27138   9.540   3.430   0.323  0.0744  0.0471  0.0857
 8285W        W27139   6.642   2.507  16.808 -0.0779  0.0669 -0.2384
 8286W        W27140   2.815  14.514  14.894  0.0303 -0.0415 -0.3392
 8287W        W27141   5.265  12.873   0.040  0.2678 -0.0160 -0.1341
 8288W        W27142   8.429   9.250  12.606 -0.2373 -0.0889  0.1177
 8289W        W27143  16.858   4.617  12.831  0.4795  0.3271  0.1710
 8290W        W27144  11.070  12.155  14.774 -0.4608  0.2256 -0.0407
 8291W        W27145   9.740   3.447  12.552  0.0355 -0.2191  0.1269
 8292W        W27146   2.545   4.946  13.419  0.0103 -0.1220 -0.2485
 8293W        W27147  13.211   6.150   3.285  0.0902  0.1744 -0.1421
 8294W        W27148  14.659   7.867   4.778 -0.2157 -0.0100  0.3376
 8295W        W27149   4.883  14.909   1.221 -0.1080 -0.0249 -0.1001
 8296W        W27150   1.645   1.937  16.277  0.1617  0.1160  0.2404
 8297W        W27151  11.251  13.188   0.187  0.3184  0.1145  0.2191
 8298W        W27152   1.110   4.657   2.128  0.0128 -0.0267  0.4204
 8299W        W27153   5.587  12.695   4.002 -0.1254  0.0229  0.1974
 8300W        W27154  11.588   6.315   1.623  0.1228  0.3934  0.1134
 8301W        W27155  16.181  12.859  14.451  0.1254 -0.1501  0.1985
 8302W        W27156   0.295   2.968   0.252 -0.1798 -0.2333 -0.0478
 8303W        W27157  16.243   0.343   1.759 -0.2712 -0.2393 -0.3215
 8304W        W27158   3.400  15.075  15.286  0.2586 -0.1041  0.1462
 8305W        W27159  15.031  11.015  16.586 -0.4303 -0.1896 -0.0250
 8306W        W27160   3.193   6.740   2.649  0.0610  0.3033 -0.1454
 8307W        W27161  15.409  15.521  14.209 -0.1866 -0.0237  0.0012
 8308W        W27162  13.760   7.440   4.963  0.0767  0.1374  0.1104
 8309W        W27163  15.162  10.960  12.612  0.0051  0.0137 -0.2521
 8310W        W27164   2.566   4.839  15.369 -0.0542 -0.0349  0.2866
 8311W        W27165   6.511   3.163   2.451 -0.2340 -0.0057 -0.0280
 8312W        W27166   9.659   5.416   2.367  0.1234 -0.2202  0.0410
 8313W        W27167   6.657   7.274   4.252 -0.3248  0.2955  0.1755
 8314W        W27168   0.873  12.709  16.257 -0.2003 -0.0409 -0.1184
 8315W        W27169   0.606  16.193   2.389  0.2003 -0.0993  0.1932
 8316W        W27170   9.106   2.822  16.023  0.1484  0.0293 -0.3208
 8317W        W27171  15.513  14.122  16.995  0.2934 -0.0213 -0.0166
 8318W        W27172   7.489   2.818   1.785 -0.0228 -0.0286  0.0293
 8319W        W27173  10.248   6.205   5.141  0.1018  0.2733  0.0521
 8320W        W27174  15.162   4.761   1.801 -0.1196  0.0515 -0.1180
 8321W        W27175   0.060  13.766   0.616 -0.1667  0.2238 -0.2324
 8322W        W27176   2.310   0.568  16.714  0.0381  0.0585 -0.1242
 8323W        W27177   9.080   9.908  16.860 -0.0644 -0.0079  0.0433
 8324W        W27178   4.486  10.276   2.923  0.1712  0.1109 -0.0488
 8325W        W27179   5.239  16.040   1.846 -0.3715 -0.1239 -0.0229
 8326W        W27180  10.851  11.029  15.057  0.1509  0.4866  0.0814
 8327W        W27181   5.187  15.469  14.773  0.1808 -0.1548  0.0300
 8328W        W27182  11.848   6.009   0.505 -0.0224 -0.0920 -0.0460
 8329W        W27183   9.393  13.595   0.568 -0.1824  0.2843 -0.1112
 8330W        W27184   2.108   8.308   2.414 -0.0444  0.0732  0.0749
 8331W        W27185  16.856   2.309   4.784 -0.0984 -0.1774  0.0149
 8332W        W27186  15.615   3.246   4.175  0.1729  0.2074 -0.3050
 8333W        W27187  13.101  16.458  16.948 -0.0095  0.1258  0.1914
 8334W        W27188   9.898   4.663  15.203  0.1333  0.2025  0.2272
 8335W        W27189  13.621   6.405   1.164 -0.0050 -0.2727 -0.0506
 8336W        W27190  16.761   7.665  13.695  0.3789  0.3971 -0.1860
 8337W        W27191   2.912   5.463   2.694  0.0357  0.1802 -0.1005
 8338W        W27192  11.375  12.987   5.943 -0.1269 -0.0532  0.0800
 8339W        W27193   7.318  16.387  16.212  0.0364  0.1825  0.4567
 8340W        W27194   3.715  14.170   0.073  0.2448  0.1230  0.0466
 8341W        W27195   1.916   1.224  12.499  0.3973  0.2009 -0.0180
 8342W        W27196  14.257  10.398  12.998  0.0285 -0.0408  0.0994
 8343W        W27197  14.527  11.709  12.577  0.0779  0.0291  0.0962
 8344W        W27198   4.880  12.656  13.298  0.1728 -0.2036  0.4257
 8345W        W27199   6.361  13.819   5.120  0.2363 -0.0678  0.1293
 8346W        W27200  13.106  10.236  15.707 -0.3373  0.3981  0.1365
 8347W        W27201  13.565   6.439   3.692 -0.0114  0.0271 -0.0676
 8348W        W27202   4.685   1.408   2.417  0.1182 -0.1047 -0.1331
 8349W        W27203   0.418  10.818   1.685  0.0264  0.0805 -0.1299
 8350W        W27204   1.398   3.881  16.531  0.0395  0.0470 -0.1160
 8351W        W27205   9.936   2.047  17.370 -0.0474 -0.2119 -0.0011
 8352W        W27206  17.112  11.703   2.365  0.0046 -0.1996  0.2968
 8353W        W27207   3.483  15.095  17.353 -0.0520 -0.0402 -0.2520
 8354W        W27208   5.770  12.295   4.320  0.2303 -0.0417  0.0173
 8355W        W27209  13.617  16.722  16.135  0.2089  0.0399  0.4944
 8356W        W27210   3.630   8.467  15.759 -0.1304  0.0167 -0.2433
 8357W        W27211  14.698   4.705   0.638 -0.0181 -0.0380  0.0440
 8358W        W27212   5.621   0.016   1.040  0.1078 -0.0493 -0.0640
 8359W        W27213   7.196   3.922   4.152  0.1170  0.0202 -0.2191
 8360W        W27214  16.054   9.795  12.722 -0.0193 -0.0777 -0.2626
 8361W        W27215   3.935   6.882   3.774 -0.1195 -0.2793  0.0757
 8362W        W27216   5.877   1.545   0.124  0.0273  0.0640  0.1155
 8363W        W27217  10.850   5.899  14.335 -0.1248 -0.0338  0.2175
 8364W        W27218   7.139   4.678  15.971  0.2881  0.1429 -0.2103
 8365W        W27219   8.442   8.633  16.154  0.0709  0.0165 -0.2753
 8366W        W27220  10.391   5.846  14.148  0.0603  0.2082  0.1616
 8367W        W27221   5.464   7.755   0.948 -0.3410  0.0821 -0.0654
 8368W        W27222  17.122   9.117  15.534 -0.0366 -0.2042  0.0812
 8369W        W27223   0.288   4.190   3.599  0.0151  0.0747 -0.0806
 8370W        W27224  10.184  13.119  12.348  0.0790  0.0697  0.1489
 8371W        W27225   9.643  11.449   4.623  0.2300  0.1191 -0.0658
 8372W        W27226   2.073   6.362   3.998 -0.0006  0.1405 -0.0363
 8373W        W27227   7.499   1.368   2.093  0.1756  0.0378  0.0895
 8374W        W27228   0.969  12.782   2.009 -0.0918 -0.1618 -0.2850
 8375W        W27229   5.112   6.977   4.027  0.1818 -0.0923  0.4614
 8376W        W27230   7.269  10.658  13.638  0.1093  0.1596 -0.2231
 8377W        W27231   1.668   3.007  14.799  0.0586  0.1616  0.2761
 8378W        W27232  14.747   9.029   1.008 -0.1046  0.1148  0.2343
 8379W        W27233  10.770   2.677   0.790 -0.0718  0.0045  0.1669
 8380W        W27234  16.475   4.724   6.382 -0.4665  0.2735  0.0258
 8381W        W27235  15.499   0.230  15.674 -0.1585  0.1684  0.1896
 8382W        W27236  11.882   0.598  16.456  0.0062 -0.1098  0.2923
 8383W        W27237   9.083  10.606  16.162 -0.0452  0.0301 -0.1702
 8384W        W27238   2.376   3.040  13.981 -0.0385  0.0917 -0.0356
 8385W        W27239  13.712   0.163  16.635  0.2262  0.1345  0.1018
 8386W        W27240   7.396   5.542  16.823  0.0808 -0.0710 -0.3084
 8387W        W27241  14.788   8.483  15.653 -0.3546 -0.0819 -0.0115
 8388W        W27242  14.952  12.572  12.569  0.0386 -0.0922  0.0313
 8389W        W27243  16.289  11.095   0.679  0.0699  0.0765 -0.5337
 8390W        W27244   1.078   2.849  16.623  0.0803 -0.0591  0.2078
 8391W        W27245   9.465   5.059   1.736 -0.3015  0.2705 -0.2959
 8392W        W27246   4.584  16.614   0.111 -0.0144  0.2697  0.3018
 8393W        W27247  15.253  11.307   4.541 -0.1562  0.1205 -0.3001
 8394W        W27248   7.876   3.253   0.186 -0.3187  0.3573  0.0767
 8395W        W27249   0.633  14.329  16.864 -0.2884  0.2578 -0.1109
 8396W        W27250  15.629  11.257   1.841 -0.1254 -0.0295  0.2198
 8397W        W27251  13.840   4.133  11.440  0.0057  0.1047 -0.0111
 8398W        W27252   5.788  13.108   2.152 -0.1178 -0.2797 -0.2886
 8399W        W27253   4.992  16.653   0.380 -0.0310  0.1349 -0.0284
 8400W        W27254  15.876   4.168  17.292 -0.0287 -0.0740 -0.0539
 8401W        W27255   1.940  13.653   0.660 -0.1485 -0.3261  0.3031
 8402W        W27256  14.082  11.487   2.230  0.0115 -0.0366  0.1041
 8403W        W27257   0.590  17.196  15.138  0.0298 -0.3159 -0.0024
 8404W        W27258  14.926  12.968   0.240 -0.4536 -0.1916  0.0107
 8405W        W27259   1.601  13.075  15.225  0.1253  0.1665 -0.0639
 8406W        W27260   0.637   9.937  16.775  0.3129  0.4488  0.0177
 8407W        W27261   2.230   1.759   0.869 -0.0438  0.1024  0.1165
 8408W        W27262   0.726  11.906  17.138 -0.0593  0.1080  0.2320
 8409W        W27263   5.740  15.343   5.340  0.2146 -0.0073 -0.4587
 8410W        W27264   3.335   1.804  16.174  0.0213 -0.1247 -0.3041
 8411W        W27265  10.698  15.347   0.677  0.1354 -0.1389  0.1701
 8412W        W27266  13.142  14.683  14.568  0.1122 -0.0074  0.0153
 8413W        W27267   9.966   8.808   2.922 -0.1589 -0.3804  0.2099
 8414W        W27268   8.374   4.378  15.739  0.0318  0.1185  0.5463
 8415W        W27269   3.973   9.774  13.727 -0.4104 -0.0177  0.1610
 8416W        W27270   7.434   0.311   4.709  0.5546  0.0911  0.0953
 8417W        W27271  16.874   8.572  14.334  0.1943  0.2337 -0.1536
 8418W        W27272  12.299   4.000   0.755  0.1514  0.0911 -0.2409
 8419W        W27273   6.341  12.778   3.470 -0.0159  0.2727  0.0799
 8420W        W27274   0.179   3.447  15.039 -0.1838  0.1765  0.1799
 8421W        W27275   4.291  12.495   4.971  0.0451 -0.0315  0.1524
 8422W        W27276  10.875   7.128   4.635 -0.0412 -0.0099  0.1700
 8423W        W27277  10.868   5.431   1.695  0.3405  0.2485  0.0719
 8424W        W27278  12.853   7.670  12.436  0.1392  0.0042  0.2933
 8425W        W27279   3.898  11.661   0.880  0.2353 -0.2809  0.0898
 8426W        W27280   8.574   9.900   0.785 -0.1002  0.0265 -0.2439
 8427W        W27281  10.592   5.815  12.846  0.0722 -0.1314  0.3753
 8428W        W27282  11.975   1.777  13.964  0.0174 -0.0972  0.0840
 8429W        W27283  15.177   0.807   0.937 -0.0460  0.3368  0.0596
 8430W        W27284  12.401   2.972  14.217  0.0614  0.0473  0.3522
 8431W        W27285  15.904   7.013   3.409 -0.0850 -0.0670 -0.0242
 8432W        W27286   9.473   2.479   3.009 -0.2305  0.0997  0.5069
 8433W        W27287   0.167  12.970  16.626  0.0594 -0.0803 -0.3608
 8434W        W27288   0.906   4.683   1.314  0.1682  0.0329 -0.0415
 8435W        W27289   1.923   1.528   3.963 -0.1809  0.4106 -0.3977
 8436W        W27290   5.199   8.833  16.115 -0.1933  0.0442 -0.1486
 8437W        W27291  11.699   1.134   4.410  0.0612  0.4481  0.0949
 8438W        W27292   1.065  13.275  15.491  0.0707 -0.2164 -0.0786
 8439W        W27293   5.709  11.365  13.674  0.0478  0.2341 -0.2151
 8440W        W27294  11.438   5.676   0.449 -0.0763 -0.0416 -0.2022
 8441W        W27295   6.424   8.951  16.007 -0.1795 -0.0187 -0.1624
 8442W        W27296   0.716   9.523  13.109  0.1858 -0.0574  0.0585
 8443W        W27297  16.737   9.806   3.634 -0.4137  0.4587 -0.1554
 8444W        W27298   3.241  17.237   2.462  0.0364 -0.1634  0.1751
 8445W        W27299  12.049  11.696  15.318 -0.2491 -0.1886 -0.0960
 8446W        W27300   8.804   3.723  16.439  0.0839 -0.1473  0.0165
 8447W        W27301   9.912  12.893  16.747  0.1067 -0.0415 -0.3505
 8448W        W27302   0.997   3.122   0.190  0.3391 -0.1003  0.2476
 8449W        W27303   0.520  14.687   4.875  0.1662 -0.0984 -0.0528
 8450W        W27304   3.566   5.169  15.066  0.0389 -0.0855  0.1087
 8451W        W27305  10.465  10.797  14.863  0.1385 -0.2855  0.2191
 8452W        W27306  11.078   6.392   4.695 -0.1223  0.0223 -0.3031
 8453W        W27307   6.823  12.150  16.318  0.0619 -0.1979  0.0164
 8454W        W27308   8.448   9.624  16.412  0.0580 -0.1356 -0.0891
 8455W        W27309  13.476  15.727  12.394  0.1487 -0.0919  0.4519
 8456W        W27310  16.060   0.665   3.339 -0.0735 -0.0225  0.0892
 8457W        W27311   1.503  11.979   4.859  0.1345  0.1810  0.0652
 8458W        W27312  15.927  11.162  13.988 -0.0659  0.0628  0.0494
 8459W        W27313   2.535   3.229   3.460  0.1427 -0.2321  0.1590
 8460W        W27314   8.932  15.062  12.291  0.0910  0.0714  0.0635
 8461W        W27315   4.632   8.139   0.957 -0.0455  0.0803  0.0212
 8462W        W27316  17.372   3.122  16.435  0.2562  0.2790 -0.0168
 8463W        W27317   2.245  11.157  15.504  0.2095 -0.0708 -0.0949
 8464W        W27318   6.426   0.399  13.676  0.3206  0.0491 -0.2221
 8465W        W27319  11.200  16.059   2.270 -0.0800 -0.0840  0.2322
 8466W        W27320  12.690   8.739  14.319  0.0377 -0.0788  0.2335
 8467W        W27321   9.112   6.949   4.425 -0.1960  0.1232  0.1632
 8468W        W27322   1.335   9.186  12.970 -0.1297  0.2252  0.0094
 8469W        W27323   8.449  15.999   2.797 -0.0938  0.0210 -0.0445
 8470W        W27324   0.558  16.349  15.710 -0.0845 -0.2667  0.0712
 8471W        W27325   6.925  11.151   4.013 -0.0814  0.3418 -0.0123
 8472W        W27326   5.831  12.702   1.344 -0.0256 -0.2515 -0.3086
 8473W        W27327   5.330  10.274   4.496 -0.1381  0.2667 -0.1162
 8474W        W27328  16.311   0.945  13.076  0.3382 -0.2177 -0.0057
 8475W        W27329   5.747   9.569   0.342 -0.0287 -0.0262 -0.3752
 8476W        W27330  11.641  13.018   5.482  0.1372 -0.0857 -0.0695
 8477W        W27331   6.940  15.931  14.161 -0.3272  0.1290 -0.3484
 8478W        W27332   6.921   8.220  14.595 -0.1198 -0.2014 -0.2219
 8479W        W27333   8.157   8.159   3.156 -0.0808 -0.0088 -0.0084
 8480W        W27334   1.781  15.133   0.743 -0.0991  0.2030  0.1008
 8481W        W27335  13.501  15.751   4.779  0.0115 -0.2099  0.3895
 8482W        W27336   7.729   3.519   5.524  0.2229  0.0983 -0.1076
 8483W        W27337  14.066  16.492   5.293 -0.1152  0.0812 -0.1295
 8484W        W27338   0.998   1.698   4.202  0.0807  0.0730  0.1525
 8485W        W27339   8.875  15.849   4.901 -0.0325 -0.0334  0.1327
 8486W        W27340  12.426  13.319  15.532 -0.1163  0.2195 -0.0506
 8487W        W27341  17.384  11.257  12.209 -0.3232 -0.0909  0.1833
 8488W        W27342   5.432  13.623   5.499  0.2243  0.1626 -0.0989
 8489W        W27343  15.418  14.951   1.955 -0.0470 -0.1346  0.0040
 8490W        W27344  15.898   7.587  13.064  0.0563  0.1655 -0.1600
 8491W        W27345  12.884   7.160   2.300 -0.1094 -0.0599  0.1412
 8492W        W27346   9.131   5.223   5.309  0.1619  0.1864  0.0598
 8493W        W27347  12.378  12.440  15.820  0.0434  0.3611  0.2577
 8494W        W27348   6.228  11.687  17.460  0.0389 -0.0674  0.0250
 8495W        W27349   5.767  11.863  12.344 -0.1060  0.3094 -0.0477
 8496W        W27350   7.286   6.866  13.611  0.1347  0.0892  0.3707
 8497W        W27351  17.069  15.823   1.199 -0.0724  0.0472 -0.2328
 8498W        W27352   7.704   0.325  14.369  0.1716 -0.1353  0.0889
 8499W        W27353   6.532   8.460   3.746 -0.1059 -0.0424 -0.0602
 8500W        W27354   4.033   7.579   0.348 -0.1678  0.2197 -0.0741
 8501W        W27355   9.433   2.341  13.921  0.0399  0.2106 -0.4034
 8502W        W27356  11.435  12.458   0.310 -0.1460  0.0198 -0.3636
 8503W        W27357  12.974   2.438  12.935 -0.0305  0.0702 -0.1519
 8504W        W27358  13.156   4.683   3.274  0.0536  0.1254 -0.0208
 8505W        W27359  14.420  10.137   5.548 -0.0814 -0.0899 -0.1860
 8506W        W27360   7.225  12.905   0.507  0.1117 -0.0044  0.3270
 8507W        W27361   3.340  12.605  14.713  0.2723  0.1525 -0.4232
 8508W        W27362   6.355  12.490  12.823  0.0482 -0.0292  0.0044
 8509W        W27363  14.591  13.853   4.344 -0.0781 -0.2378 -0.3889
 8510W        W27364  14.802   5.899  16.619  0.0469  0.1136  0.0240
 8511W        W27365   5.250   3.800   4.715  0.0118 -0.1421  0.1108
 8512W        W27366   0.254   8.821   4.210  0.0539 -0.2445 -0.0490
 8513W        W27367  15.414  10.480   2.406 -0.0477  0.0104 -0.0745
 8514W        W27368   3.380  17.174  12.732 -0.1523 -0.0089 -0.1059
 8515W        W27369  13.705  13.405   0.520 -0.2098  0.2703  0.1555
 8516W        W27370   8.888   1.842   2.602 -0.1206 -0.0508  0.1016
 8517W        W27371  15.329   8.097   1.818  0.1372  0.0853  0.2526
 8518W        W27372  11.848   0.012   1.560  0.1409 -0.0164  0.1089
 8519W        W27373  16.738   5.511  14.129  0.1369 -0.1036  0.0186
 8520W        W27374  15.727   3.485  11.765  0.0752 -0.0625 -0.1817
 8521W        W27375  13.438  14.311   3.555  0.0024 -0.1039  0.1530
 8522W        W27376   4.114   1.035  15.820 -0.3748 -0.2649 -0.3251
 8523W        W27377   6.786  13.333   0.648 -0.0772  0.0743  0.1105
 8524W        W27378  17.008  14.668  15.210  0.2582 -0.1437  0.0885
 8525W        W27379   6.279   8.371   3.005 -0.0132 -0.1128 -0.5561
 8526W        W27380   7.134   1.983   0.493 -0.1523  0.2969 -0.0666
 8527W        W27381   4.688  10.752   2.729  0.1558 -0.0831 -0.0409
 8528W        W27382   1.605  11.137   1.764  0.1116  0.0434  0.1605
 8529W        W27383   8.174   8.518  13.085 -0.1566  0.0714 -0.1372
 8530W        W27384  17.404  12.629   4.812  0.0086  0.1333  0.0079
 8531W        W27385  13.832  12.335   3.332  0.0803  0.1508 -0.1428
 8532W        W27386   3.067   7.697  16.678 -0.0674 -0.3526 -0.1674
 8533W        W27387  16.612  13.449   4.470  0.0102  0.0981  0.0304
 8534W        W27388   4.784   2.470  14.356 -0.1322 -0.0138 -0.2875
 8535W        W27389   5.636   1.032  13.343  0.0261  0.3005 -0.2364
 8536W        W27390   4.673   8.069  17.404  0.1694  0.0161  0.0016
 8537W        W27391  10.977   0.350   1.428 -0.2983 -0.0144 -0.0193
 8538W        W27392  15.209   5.764   1.858  0.0673  0.2071 -0.0092
 8539W        W27393   2.425   4.658   5.309  0.3918  0.0707  0.2683
 8540W        W27394  16.843  13.868   3.640 -0.1480 -0.0962 -0.1006
 8541W        W27395   2.796  14.965  16.804 -0.0975  0.0656  0.0754
 8542W        W27396   0.811  15.127  12.367  0.0925  0.4183 -0.4266
 8543W        W27397  12.505  12.093  13.095  0.1913  0.1166 -0.0823
 8544W        W27398  17.020  13.737   0.842 -0.2027  0.0661  0.1947
 8545W        W27399  16.082   1.978  17.277  0.1878  0.1300 -0.1813
 8546W        W27400  15.753  11.644  17.145 -0.0801  0.2361  0.2961
 8547W        W27401   3.673   5.032   0.622 -0.0513  0.1188  0.1402
 8548W        W27402  12.171   4.286  16.201  0.1259  0.2820  0.2115
 8549W        W27403   3.341  12.247   1.148 -0.3585 -0.1466 -0.0191
 8550W        W27404   0.575  13.600  13.949 -0.1803  0.0025  0.0383
 8551W        W27405  11.040  12.218   0.067 -0.4193  0.0627  0.1058
 8552W        W27406   8.835  14.274   4.597 -0.1101  0.2309 -0.1481
 8553W        W27407  16.666  17.137  13.058  0.5755 -0.1816  0.2624
 8554W        W27408   2.185   6.004   4.974 -0.1311 -0.2940 -0.0820
 8555W        W27409   2.721   4.206  17.366  0.1521 -0.1305 -0.0091
 8556W        W27410   7.252  14.119   3.073  0.3262  0.3149  0.0959
 8557W        W27411  11.635  15.861  14.386 -0.2372 -0.0108  0.0455
 8558W        W27412   7.471  12.442  15.764  0.1181 -0.2229  0.1251
 8559W        W27413   1.455   7.549  15.327 -0.2703  0.2239  0.1519
 8560W        W27414  16.708   8.528   1.037  0.1538 -0.1753  0.1459
 8561W        W27415   1.696  13.791   1.055  0.0928  0.1447  0.1934
 8562W        W27416   0.822  15.329   2.118  0.0244 -0.0051 -0.1520
 8563W        W27417  17.206   0.480  12.457  0.3215 -0.2687 -0.3309
 8564W        W27418   8.123  13.388  14.484 -0.1510  0.1678 -0.1125
 8565W        W27419  12.243  11.676  12.215 -0.0251  0.0042  0.1661
 8566W        W27420   3.962   1.660   0.483  0.2626  0.2077  0.1917
 8567W        W27421  17.158   7.501  14.567  0.2743 -0.2942  0.0416
 8568W        W27422  13.893   6.189   5.381  0.1298  0.1601  0.1769
 8569W        W27423   9.817   6.575  16.375  0.2519  0.2046 -0.2290
 8570W        W27424  13.923  17.220  12.856 -0.1843 -0.2090 -0.0264
 8571W        W27425  16.883  13.581  12.622  0.0790  0.1758  0.2378
 8572W        W27426   8.343  13.080  13.032  0.0642 -0.0430  0.4602
 8573W        W27427   5.247  15.396   2.531  0.1988  0.4253  0.0442
 8574W        W27428  11.602   2.321   2.295 -0.0819  0.1995  0.0520
 8575W        W27429   6.515   2.689  13.833 -0.0836 -0.2215 -0.2364
 8576W        W27430   7.773   2.429  14.530 -0.1992 -0.4142 -0.0653
 8577W        W27431   2.188  11.410   2.911  0.1309 -0.0461 -0.2485
 8578W        W27432  15.043  14.943  13.452 -0.0064  0.1073 -0.0456
 8579W        W27433  16.137   0.281  16.289  0.1443 -0.1955  0.4075
 8580W        W27434  12.766   2.214  17.188  0.0421  0.3130 -0.1569
 8581W        W27435   4.018  16.153  17.430  0.1547 -0.1987 -0.0070
 8582W        W27436  12.551   7.822   0.690  0.3628 -0.0843  0.2245
 8583W        W27437  10.598  14.550  17.463 -0.2571  0.0217 -0.2836
 8584W        W27438   0.713   6.158   3.593  0.2055 -0.0506  0.3913
 8585W        W27439   1.246   4.498  14.675  0.1818  0.0906  0.1007
 8586W        W27440   7.116  16.884  16.036  0.2549  0.1227 -0.3775
 8587W        W27441   0.586   5.431   2.840 -0.0041  0.2928 -0.4197
 8588W        W27442  17.051   9.038  12.277  0.0241 -0.0992  0.1046
 8589W        W27443   9.587  16.954  16.022  0.2385  0.0312  0.0329
 8590W        W27444   4.388  13.993   2.795 -0.1789  0.0708  0.1427
 8591W        W27445  11.146  16.181  13.256  0.0293 -0.0826 -0.2002
 8592W        W27446  17.397  15.070  17.156  0.1046  0.2523  0.0333
 8593W        W27447  16.039   7.604  15.547  0.4964 -0.3445 -0.0389
 8594W        W27448   9.797   8.061   2.190  0.0237 -0.0123 -0.0644
 8595W        W27449  12.440   1.394  15.811  0.0879 -0.0863 -0.0219
 8596W        W27450   4.893   7.376  14.798  0.1470  0.0189  0.0775
 8597W        W27451   6.851   1.814  17.240 -0.1325 -0.0990  0.1354
 8598W        W27452   2.292   5.018  16.858  0.1550  0.2139 -0.2295
 8599W        W27453   6.579  13.312  16.313  0.0785 -0.0430  0.2585
 8600W        W27454  10.921   4.547  14.411  0.2219 -0.1871  0.2038
 8601W        W27455   8.373   5.238   3.210 -0.0786  0.2427  0.2569
 8602W        W27456   9.397   1.017  16.359  0.1345  0.4260 -0.2204
 8603W        W27457  16.392  15.771  11.679 -0.1330  0.0737 -0.4408
 8604W        W27458  11.048   5.335  12.399 -0.3173 -0.2090 -0.0856
 8605W        W27459   9.887  11.277  12.979 -0.0091 -0.2384 -0.1336
 8606W        W27460  12.731   2.171   1.170  0.0476  0.0963 -0.2341
 8607W        W27461   9.418   8.918  14.569  0.1352  0.2644 -0.0795
 8608W        W27462   7.350   1.980  14.468  0.0261  0.2025 -0.1368
 8609W        W27463   9.240   3.355   4.679 -0.0715  0.2504  0.3641
 8610W        W27464  11.612   1.061  15.288  0.2680 -0.1204 -0.0684
 8611W        W27465   5.644   7.934  14.319  0.1028 -0.0150 -0.2599
 8612W        W27466   3.903  16.878  12.848  0.0788 -0.0485 -0.3477
 8613W        W27467   8.774   9.001   1.619  0.0629 -0.0696  0.0921
 8614W        W27468   9.525   6.487  17.256  0.0506  0.0003  0.3157
 8615W        W27469  11.370   7.316   4.564 -0.0539 -0.0629 -0.0780
 8616W        W27470  13.409   5.414   2.732 -0.0238 -0.1350 -0.0285
 8617W        W27471   4.601   7.205  15.440  0.0509  0.1990 -0.1016
 8618W        W27472  15.692   7.321  16.479 -0.2099  0.1480  0.1038
 8619W        W27473  13.237  15.072  13.033  0.0440 -0.0081  0.1030
 8620W        W27474   6.139   0.574   4.839  0.3767 -0.0250  0.1811
 8621W        W27475   8.443  11.858   4.177  0.4233  0.0907 -0.1387
 8622W        W27476  14.117  16.238  13.269 -0.3667  0.0360  0.1247
 8623W        W27477   7.856   3.636  17.289 -0.1011  0.1218 -0.0062
 8624W        W27478  12.948   5.620   1.199 -0.1613 -0.1510  0.2782
 8625W        W27479  13.948   8.193  15.052  0.0296 -0.0724 -0.1173
 8626W        W27480  17.110   3.650  12.351 -0.2631 -0.2152 -0.0887
 8627W        W27481  12.405  15.867  13.485  0.0709 -0.2486 -0.0039
 8628W        W27482  11.831   2.882   1.646  0.1353 -0.0004  0.0736
 8629W        W27483   7.022   3.253   2.615 -0.0783  0.0671 -0.1665
 8630W        W27484   1.812   4.687   3.137 -0.1289  0.1777  0.2511
 8631W        W27485   7.039   7.739   1.246 -0.1426  0.1030 -0.0888
 8632W        W27486   9.719   4.713  13.804  0.3272  0.1875  0.1039
 8633W        W27487  10.597   0.109   4.822 -0.0496 -0.1081  0.1337
 8634W        W27488  13.344   3.798  14.998  0.0289 -0.1091 -0.1282
 8635W        W27489  11.870   7.967  13.208  0.0807  0.0051  0.2792
 8636W        W27490  13.694  11.874   3.137  0.1637 -0.1987 -0.0501
 8637W        W27491  14.331   0.019   4.564 -0.3148 -0.2184  0.2435
 8638W        W27492   7.286  14.667  15.980 -0.0203 -0.2462 -0.2817
 8639W        W27493  13.614  10.025  13.506  0.0389 -0.1620 -0.1805
 8640W        W27494   9.358   0.553  16.114  0.2413 -0.1097 -0.0361
 8641W        W27495   4.008   3.404  16.488  0.1576  0.1371  0.1307
 8642W        W27496  14.533   2.517  15.048  0.0527 -0.0558 -0.2233
 8643W        W27497  14.918   9.816  16.040 -0.3341  0.3050 -0.0302
 8644W        W27498   5.281  16.600   1.922  0.0630 -0.1676  0.0621
 8645W        W27499  15.461   6.141  15.740 -0.1267 -0.2206  0.2278
 8646W        W27500  15.203  12.134   2.905 -0.1823 -0.1633 -0.1130
 8647W        W27501  15.799  16.085  16.539  0.1892 -0.3064  0.1547
 8648W        W27502   2.370   4.698   2.515  0.0678  0.1166 -0.3415
 8649W        W27503  13.418   4.803   4.281 -0.2277 -0.1859  0.0119
 8650W        W27504  15.634   0.100  13.558  0.2326 -0.0429 -0.3152
 8651W        W27505   8.966   2.173   0.206  0.0430  0.0541  0.0561
 8652W        W27506   0.075   2.944   4.058 -0.1718 -0.2741  0.1876
 8653W        W27507   3.765   1.403  14.497 -0.1178 -0.1850 -0.3441
 8654W        W27508   0.569  11.339  15.814 -0.3980  0.2715 -0.2985
 8655W        W27509  12.785   2.536  13.965  0.0839 -0.1768  0.1396
 8656W        W27510   2.392  13.889  12.473 -0.0575  0.0500  0.0496
 8657W        W27511  16.446   3.180  13.442  0.1243 -0.0203 -0.0362
 8658W        W27512   7.277   9.696   0.293 -0.2777 -0.0803  0.3270
 8659W        W27513   6.840   8.219   1.317 -0.1700  0.1965 -0.1337
 8660W        W27514   4.881  10.000  13.789 -0.0408 -0.1352  0.1177
 8661W        W27515  13.734   7.735   2.071 -0.2586 -0.4157 -0.1665
 8662W        W27516   0.220  11.580  14.908 -0.3061 -0.1253 -0.0268
 8663W        W27517  14.268   0.394   1.506  0.0497 -0.0027  0.1415
 8664W        W27518   5.570   6.572  11.297 -0.4281 -0.0360  0.0915
 8665W        W27519   2.055   9.914   0.108 -0.1088 -0.2037 -0.1166
 8666W        W27520   1.222  15.516   3.125  0.1223 -0.4051 -0.1187
 8667W        W27521   8.332   5.351   3.684 -0.1096  0.3312  0.0302
 8668W        W27522   6.272  17.195   4.994 -0.0647 -0.0945  0.3063
 8669W        W27523  14.833   7.202   4.273 -0.1941  0.0944  0.1803
 8670W        W27524   4.010   3.113   2.110 -0.1597 -0.2877 -0.3639
 8671W        W27525   7.333   0.993   6.160  0.2098 -0.1672  0.1066
 8672W        W27526   5.534  13.762  17.466 -0.0696  0.0356  0.1080
 8673W        W27527  13.161   4.749   0.314  0.1633  0.3621 -0.1723
 8674W        W27528   0.604   2.596   5.370 -0.0044 -0.3154  0.0315
 8675W        W27529   2.195   8.437  15.713 -0.0049 -0.0145 -0.0817
 8676W        W27530   3.928  12.335  14.820 -0.1498  0.1265  0.0244
 8677W        W27531   6.857   9.506   0.098  0.0101  0.0522  0.0262
 8678W        W27532   7.141   1.527   3.496 -0.1061 -0.2124  0.1212
 8679W        W27533  11.499  14.806  12.564  0.0953  0.2395 -0.1352
 8680W        W27534   3.436  10.163  14.931 -0.1450  0.2132 -0.2932
 8681W        W27535  13.946  11.055  12.369 -0.1026  0.0681  0.1306
 8682W        W27536  17.239  12.735   1.901  0.2417 -0.0841  0.1127
 8683W        W27537  13.226  14.215  14.698 -0.2304  0.2641  0.1950
 8684W        W27538   9.774  17.105  14.149  0.0739  0.3030 -0.0659
 8685W        W27539   1.014  15.807  17.345  0.1721  0.0744  0.0496
 8686W        W27540  14.996  13.192  16.240 -0.1242  0.3232  0.0552
 8687W        W27541   4.389   5.323   2.673 -0.0137 -0.2702  0.2099
 8688W        W27542   5.158   0.235  16.105 -0.2602 -0.1336  0.0720
 8689W        W27543   9.575  15.018   2.874 -0.0184 -0.0072  0.0709
 8690W        W27544   0.035  16.774   0.276  0.0253 -0.1651 -0.2149
 8691W        W27545  15.460   2.261  13.311 -0.1646  0.1780 -0.2456
 8692W        W27546  17.137  14.252   3.274 -0.0768  0.0109 -0.0934
 8693W        W27547   5.422   7.199  15.641  0.2320 -0.0402 -0.2589
 8694W        W27548   2.106  12.612   2.863 -0.1345 -0.1185 -0.1756
 8695W        W27549   3.476   9.705  14.435 -0.1475  0.2007 -0.0008
 8696W        W27550   2.659  14.169  17.005  0.0638 -0.2325 -0.0679
 8697W        W27551   2.198   3.381   0.846 -0.0943  0.0639  0.1726
 8698W        W27552  16.204   0.245  14.356  0.2392  0.2669  0.1774
 8699W        W27553  16.946  17.401  13.661 -0.0871 -0.0891 -0.2343
 8700W        W27554   0.240   9.730   5.321  0.2123  0.4187 -0.1048
 8701W        W27555  11.050  12.090  17.013  0.2290  0.0902  0.0325
 8702W        W27556   8.405   5.721   0.930 -0.0557 -0.0586 -0.0062
 8703W        W27557  11.287   2.793   0.084  0.1872  0.2441  0.1057
 8704W        W27558  16.606  10.686   4.974 -0.0229  0.3572 -0.1270
 8705W        W27559  11.989  14.775  17.460  0.2673  0.0473 -0.0275
 8706W        W27560  11.503   5.220   2.380 -0.0345 -0.1866 -0.1337
 8707W        W27561   6.044   3.034   4.621  0.2006  0.3385  0.2165
 8708W        W27562  13.480  16.749   3.829  0.2816 -0.0446  0.1750
 8709W        W27563   2.668   4.359   1.492  0.1417  0.2970 -0.3144
 8710W        W27564  16.473   4.746  14.281  0.0321 -0.0295 -0.0535
 8711W        W27565  11.310  13.710   1.710  0.3451  0.0027 -0.2997
 8712W        W27566  12.430   0.504   5.338  0.0551 -0.3082  0.3624
 8713W        W27567  15.061   7.001   1.325  0.0670  0.0243  0.1677
 8714W        W27568   8.174  10.211  12.791  0.1530  0.0350  0.0155
 8715W        W27569   4.354   7.071   3.422 -0.1399  0.2714 -0.1054
 8716W        W27570   1.692  10.400   1.700  0.0386 -0.1687  0.0001
 8717W        W27571   5.971  11.851   5.005 -0.0840 -0.1546  0.0661
 8718W        W27572   5.478   8.157   2.410  0.3365  0.1425  0.1560
 8719W        W27573   8.275  16.705   3.406  0.0165 -0.0605 -0.1589
 8720W        W27574   1.547   5.601   1.681 -0.1406  0.2509 -0.1598
 8721W        W27575   4.234   0.427  12.760  0.0247 -0.0397 -0.2354
 8722W        W27576  13.400  11.964  12.582  0.1958  0.2837  0.0526
 8723W        W27577  14.931  17.281  15.599 -0.0072  0.0361  0.2150
 8724W        W27578   0.922   7.995  14.019 -0.1035  0.0966  0.1423
 8725W        W27579  12.037  16.108  13.313 -0.2187  0.0714  0.3636
 8726W        W27580  11.419   1.806  14.631  0.2726 -0.1725 -0.0965
 8727W        W27581   5.472  13.499   4.226 -0.0939  0.3532  0.0694
 8728W        W27582   1.950  16.049   4.427  0.1470 -0.0603 -0.0403
 8729W        W27583   4.573  16.627   0.752  0.0267 -0.2217  0.2406
 8730W        W27584   7.711   5.153   2.461  0.0915  0.0036  0.0875
 8731W        W27585   1.583   2.532   0.211  0.1662  0.1322  0.2061
 8732W        W27586   8.136  13.917  14.454 -0.1999  0.2751  0.0330
 8733W        W27587   5.136  12.812  15.128 -0.2418 -0.0883  0.1615
 8734W        W27588   4.866   3.387  14.586  0.1847  0.1519  0.0357
 8735W        W27589  13.620   3.742  16.441 -0.2489 -0.0609 -0.0774
 8736W        W27590   1.082  17.084  17.262 -0.0028 -0.3884  0.3024
 8737W        W27591  16.051   2.929   4.845  0.2147  0.2080  0.0020
 8738W        W27592   8.783   6.836  14.345  0.0464 -0.0406 -0.0962
 8739W        W27593  11.359   5.704  12.268  0.4504  0.0666 -0.1284
 8740W        W27594   8.840   9.081   3.142  0.0697 -0.0712 -0.3623
 8741W        W27595   1.801  12.778   0.895 -0.1906  0.3490  0.1771
 8742W        W27596   1.236  13.451   5.019  0.1336 -0.1559 -0.1031
 8743W        W27597   7.496   6.169  14.980 -0.2045 -0.0954 -0.0315
 8744W        W27598   4.211   8.982  12.076  0.3349  0.1899  0.0118
 8745W        W27599  12.275   5.456   3.522 -0.0401 -0.3000  0.2528
 8746W        W27600   8.115  13.160   2.801 -0.0125 -0.3076  0.2878
 8747W        W27601   3.996   8.297  15.466  0.0515 -0.1437  0.0381
 8748W        W27602   1.388   0.585   1.322  0.0767  0.1487  0.0174
 8749W        W27603   0.232  16.918  14.859 -0.0764 -0.1236 -0.0159
 8750W        W27604   5.382  15.145   4.582 -0.0865  0.3818 -0.3044
 8751W        W27605   5.775  11.747  15.143  0.0616 -0.0208 -0.4675
 8752W        W27606  15.786  14.367  13.964 -0.0280 -0.2848 -0.1137
 8753W        W27607  14.843   4.380  16.769 -0.0111 -0.0441  0.3431
 8754W        W27608   3.042   6.730  13.867 -0.1438  0.0774 -0.1888
 8755W        W27609   6.227   3.046   2.034  0.5563  0.2160 -0.1473
 8756W        W27610  10.303  14.067   4.776 -0.1449  0.0095 -0.0375
 8757W        W27611   7.860  10.278   1.614  0.2448 -0.0814  0.1756
 8758W        W27612   9.687   0.274  15.802 -0.0213  0.1119 -0.1015
 8759W        W27613   3.530   9.468  15.726 -0.2319 -0.0357  0.0008
 8760W        W27614  12.279   5.487  16.983 -0.2730  0.0426 -0.1944
 8761W        W27615   1.285   2.864  15.998  0.2324 -0.3452  0.1071
 8762W        W27616   4.736   8.884  13.885  0.3435 -0.0086  0.1175
 8763W        W27617   0.471  15.460  14.308 -0.0753 -0.0213 -0.3414
 8764W        W27618   0.125   8.036   0.058  0.2101 -0.2256 -0.2757
 8765W        W27619   5.895   4.852  13.831  0.0733 -0.0550  0.2961
 8766W        W27620  10.392  12.263  13.147  0.2065 -0.1195  0.0983
 8767W        W27621   9.548   6.680   4.211 -0.0728 -0.0368 -0.0294
 8768W        W27622   4.101  11.478   1.898 -0.0217  0.2253  0.1874
 8769W        W27623   2.451   2.343  17.083 -0.3731 -0.1102 -0.1997
 8770W        W27624   2.474   7.648   0.376 -0.0836  0.0982 -0.0231
 8771W        W27625  15.284   1.339  15.090  0.2181  0.0008  0.0175
 8772W        W27626  12.856   4.120  16.950  0.2183 -0.0613  0.2259
 8773W        W27627   2.283  13.695  13.852  0.0409  0.1264 -0.1108
 8774W        W27628  15.904   9.769  17.196  0.1696  0.3334 -0.1014
 8775W        W27629   5.342  16.633  17.333 -0.0564 -0.4090 -0.2599
 8776W        W27630   0.915   5.169   4.746 -0.2460  0.1389  0.5558
 8777W        W27631   6.631  13.270   1.148 -0.1793  0.0130  0.4192
 8778W        W27632  15.755  15.033   5.385  0.0911  0.3434 -0.0666
 8779W        W27633   7.359  16.671   3.853 -0.2284  0.0013  0.1710
 8780W        W27634   0.910  13.941  16.169 -0.2063  0.1691 -0.1004
 8781W        W27635   8.513   8.062   1.632 -0.1504  0.1041  0.0628
 8782W        W27636   7.617  12.729   2.242 -0.2357  0.1788 -0.2764
 8783W        W27637   6.840   2.144   1.899  0.0035  0.7148 -0.0293
 8784W        W27638  12.558   5.684   3.160 -0.0208  0.1411  0.0590
 8785W        W27639   9.543   3.968  14.389 -0.0668  0.1011 -0.1475
 8786W        W27640   6.106  10.179   4.527  0.0073  0.1071 -0.3552
 8787W        W27641  13.560   2.772   4.020  0.1040 -0.2970  0.2440
 8788W        W27642  13.756  15.361   3.261  0.0707 -0.0118 -0.0626
 8789W        W27643   5.492   1.977  14.581  0.1294 -0.2458 -0.1896
 8790W        W27644   0.814  12.275  15.888 -0.1095  0.0395 -0.1955
 8791W        W27645   8.783  10.867  13.027  0.1504 -0.1285 -0.1608
 8792W        W27646   0.002   9.263   2.268 -0.1198 -0.0909  0.0090
 8793W        W27647  14.528   0.849  13.696  0.2693 -0.0020  0.0559
 8794W        W27648   2.579  16.554   0.335 -0.0477  0.0923 -0.0550
 8795W        W27649  16.537   8.955  17.287 -0.1047  0.2028  0.2390
 8796W        W27650   5.490   1.011   4.991  0.3042 -0.0523 -0.1802
 8797W        W27651  13.199   2.469  15.604 -0.0411 -0.2876 -0.0843
 8798W        W27652   5.921   4.648  14.906 -0.0145 -0.2323  0.2642
 8799W        W27653  17.268   0.828   3.669  0.3206 -0.2124  0.0289
 8800W        W27654   8.878  13.583  14.937 -0.2728  0.2444  0.0885
 8801W        W27655  13.805   7.721   4.378  0.0680  0.0430  0.1405
 8802W        W27656   0.885   1.109  13.305 -0.0173  0.2329 -0.0501
 8803W        W27657   6.649   9.175   1.445 -0.0582  0.1300  0.2176
 8804W        W27658  10.526  12.499   5.044 -0.0888  0.0386  0.1720
 8805W        W27659  15.608   9.098  15.462  0.0760 -0.0994 -0.1158
 8806W        W27660   0.492  14.886  17.328 -0.0541 -0.1067 -0.0302
 8807W        W27661   7.925  14.954  14.515 -0.0132 -0.2834 -0.0308
 8808W        W27662   0.346  14.289   2.741  0.2397 -0.1716  0.2129
 8809W        W27663  15.162   1.365  13.297 -0.1371 -0.0266 -0.0361
 8810W        W27664   3.082  16.698  16.287  0.3617 -0.0845 -0.0526
 8811W        W27665   6.635   3.906   3.207 -0.0796 -0.2512 -0.0327
 8812W        W27666  16.794  13.672  16.340 -0.0979  0.1412  0.2590
 8813W        W27667   6.052   9.560  17.243 -0.2259  0.0048  0.1820
 8814W        W27668   2.923  15.918  11.732 -0.0600 -0.1012 -0.1234
 8815W        W27669   2.919   9.354   3.700  0.2414 -0.1009 -0.0067
 8816W        W27670   5.007  12.026   1.949 -0.1879 -0.1645  0.4369
 8817W        W27671   9.254   4.707  16.998  0.0870 -0.4934  0.1675
 8818W        W27672   7.052  13.230  13.112 -0.0104 -0.1770 -0.2009
 8819W        W27673  16.387   7.738  13.378  0.0922 -0.0429 -0.1518
 8820W        W27674   6.695  12.394  13.231  0.1073  0.0731  0.1543
 8821W        W27675  11.912  12.073  13.003  0.2249 -0.0272  0.1825
 8822W        W27676   5.815   8.646  15.000 -0.1843 -0.1837 -0.2391
 8823W        W27677  14.942   0.862   0.457  0.1956 -0.1172 -0.0032
 8824W        W27678  11.150  14.872  15.497 -0.0360 -0.2257  0.1883
 8825W        W27679  10.136  11.770   2.662 -0.0270 -0.1348 -0.1195
 8826W        W27680   0.225  14.920   5.399 -0.0007  0.1055  0.3117
 8827W        W27681  10.998  16.040  16.786 -0.2401 -0.0125  0.0667
 8828W        W27682   6.205  11.437  16.354 -0.0297 -0.2130 -0.0403
 8829W        W27683  12.640  11.617   1.163  0.0603  0.0904 -0.0181
 8830W        W27684   9.661   9.786  12.984 -0.0036 -0.0834  0.0411
 8831W        W27685   9.271  11.550   0.690  0.2022 -0.3848  0.1895
 8832W        W27686   6.772  14.111  11.416  0.0384 -0.0852 -0.0311
 8833W        W27687   0.153  12.092   5.636 -0.3182  0.3246  0.2593
 8834W        W27688   7.370  13.811  17.428 -0.2668 -0.1373  0.1393
 8835W        W27689  10.134   3.142  15.235 -0.1199 -0.0988 -0.1033
 8836W        W27690   4.786   9.371   3.184  0.0095 -0.1630 -0.3781
 8837W        W27691  16.997   2.310  14.223  0.1050 -0.0424  0.1792
 8838W        W27692   2.304   1.654  11.525  0.1287 -0.1191 -0.0313
 8839W        W27693   3.027  16.422  15.472  0.0125 -0.2508 -0.1235
 8840W        W27694   5.024  14.461   3.864 -0.0544  0.0891  0.0882
 8841W        W27695  15.247   3.180   5.273 -0.2842  0.0494 -0.1161
 8842W        W27696  17.046  15.098  14.838  0.1360 -0.1726  0.1625
 8843W        W27697  16.246  15.148   4.223  0.0421  0.2308  0.0754
 8844W        W27698  13.977   4.219  13.821 -0.2877 -0.0540 -0.2376
 8845W        W27699  13.428   6.114  15.820 -0.0346 -0.0729  0.2699
 8846W        W27700   1.297  11.531   1.826  0.1222 -0.0464  0.1697
 8847W        W27701  13.765   8.212   2.174 -0.1401 -0.0728 -0.0415
 8848W        W27702   9.813   8.344  13.007 -0.0627  0.3138 -0.1867
 8849W        W27703  12.047   3.400   4.134 -0.2817 -0.2163 -0.2254
 8850W        W27704   3.995  14.639   3.669  0.1141  0.2051  0.0038
 8851W        W27705   6.973  16.221  12.767 -0.0902 -0.3566  0.0722
 8852W        W27706  10.862  11.719  14.998 -0.0260 -0.1539 -0.1135
 8853W        W27707  10.631  13.689  14.489  0.3285 -0.1209  0.2048
 8854W        W27708  11.070   7.596  12.162  0.5019 -0.2179 -0.2460
 8855W        W27709  10.840   5.372  14.535 -0.0637 -0.4093  0.2506
 8856W        W27710   3.574  10.652   3.734  0.1267 -0.1612 -0.0201
 8857W        W27711  15.010   8.658  15.246 -0.0688 -0.0256  0.0703
 8858W        W27712   4.499  16.099   0.186 -0.0971 -0.1124  0.1395
 8859W        W27713  11.887   2.546   1.310 -0.2870  0.1451 -0.0068
 8860W        W27714   5.831  17.352   1.529 -0.0086 -0.1513  0.2400
 8861W        W27715  11.776   1.432   2.982 -0.1463  0.0819  0.1193
 8862W        W27716  16.796  15.558   4.864  0.0909 -0.0438  0.0382
 8863W        W27717   1.013  12.040  12.350  0.2934  0.1564 -0.1232
 8864W        W27718  10.202   7.886  12.316  0.1665  0.0930  0.2223
 8865W        W27719   2.062   9.741   2.461  0.0681 -0.3665  0.1217
 8866W        W27720   8.419  11.417  13.852  0.1991 -0.0831  0.2984
 8867W        W27721  16.291   3.351  15.467 -0.0089 -0.1010 -0.2375
 8868W        W27722  15.446  14.320   1.735 -0.1489 -0.1034 -0.1191
 8869W        W27723  14.789  14.907  14.531  0.0156 -0.0442 -0.0837
 8870W        W27724  15.691   2.772   2.351 -0.0561 -0.1478 -0.0677
 8871W        W27725   8.319  16.672  12.552  0.1776 -0.0437  0.1203
 8872W        W27726   7.952  15.633   4.982  0.0159 -0.0410 -0.3434
 8873W        W27727  12.533   3.021  16.632  0.1283  0.2135  0.0799
 8874W        W27728  12.222   0.253  14.616 -0.0501 -0.1717  0.0061
 8875W        W27729   4.451   2.982  17.264  0.1330 -0.0397  0.1721
 8876W        W27730   5.424   4.659   2.881 -0.2468 -0.1429  0.2833
 8877W        W27731   1.330   9.354  14.617 -0.0056 -0.1689 -0.3048
 8878W        W27732  16.729  16.658  12.840  0.1961  0.0689  0.2158
 8879W        W27733   9.465   1.836   4.919  0.0960 -0.0007  0.1033
 8880W        W27734   2.698  13.569   4.082 -0.0511  0.0368 -0.0523
 8881W        W27735   7.107  14.825   0.953  0.0798  0.0035 -0.0922
 8882W        W27736   4.839   7.080   4.941  0.1047 -0.2685  0.0042
 8883W        W27737  15.984   8.700   2.706 -0.1990  0.0058 -0.2245
 8884W        W27738   2.844  14.537   1.488  0.5210 -0.0784  0.0482
 8885W        W27739   5.751  13.662   2.426 -0.3324 -0.0962 -0.3163
 8886W        W27740   3.204   4.317   4.227  0.0029 -0.1448  0.0226
 8887W        W27741  14.500  15.094  15.665  0.2457  0.2476  0.2431
 8888W        W27742  13.932   8.472   4.620  0.0955 -0.1010 -0.0360
 8889W        W27743  11.053   7.259  15.358 -0.2775 -0.2799  0.3431
 8890W        W27744  16.499  15.286   2.660  0.0715 -0.0768 -0.1983
 8891W        W27745   2.670   6.487   3.497  0.1977  0.0948 -0.0692
 8892W        W27746   5.274   8.177  16.681  0.1803 -0.0342  0.0401
 8893W        W27747  13.495   6.409  13.370 -0.1514 -0.1789 -0.2251
 8894W        W27748   4.620  13.339   3.804  0.0776 -0.0140  0.0619
 8895W        W27749   7.237   8.914   5.744  0.1290  0.0653 -0.2502
 8896W        W27750   9.234  10.282   1.306 -0.0348  0.0537  0.0407
 8897W        W27751   2.447   7.489   2.089 -0.0743  0.0844 -0.0702
 8898W        W27752   0.884   7.339  16.810 -0.2272  0.0237  0.3214
 8899W        W27753   1.785   0.527  13.347 -0.1662 -0.1268 -0.1511
 8900W        W27754  11.898  10.723   4.345  0.2540 -0.0955  0.0522
 8901W        W27755  10.465  15.282  16.263  0.2895 -0.1195  0.1129
 8902W        W27756   6.935  12.035   1.996  0.2718  0.1212  0.2747
 8903W        W27757   9.822   6.769   2.442 -0.0467 -0.4576  0.0277
 8904W        W27758   3.144  14.785   1.802  0.1375  0.1921 -0.0305
 8905W        W27759   9.279   2.205  15.189  0.2008 -0.0708 -0.2079
 8906W        W27760   8.136  11.652   0.495 -0.2051 -0.0087  0.0203
 8907W        W27761  16.927  16.947  14.620  0.2994 -0.0081 -0.1617
 8908W        W27762   2.148   9.745  13.938  0.2304  0.0765  0.0121
 8909W        W27763   6.902   5.579  15.541 -0.1832  0.0595  0.1487
 8910W        W27764   1.952   2.109  13.049 -0.3189  0.1427 -0.4356
 8911W        W27765  17.252   5.162   3.426 -0.2713 -0.0833  0.1970
 8912W        W27766  16.312  12.452   5.965  0.1754  0.0722 -0.0179
 8913W        W27767   3.163  10.537  17.038  0.0985 -0.0776 -0.3884
 8914W        W27768  10.871   0.070  15.662 -0.1468  0.0628 -0.0008
 8915W        W27769  11.296   3.252   3.527 -0.1286 -0.1149  0.0820
 8916W        W27770   2.908   8.485   1.335 -0.0504 -0.2507 -0.1294
 8917W        W27771   2.763   3.221  13.714 -0.0147 -0.2954 -0.0256
 8918W        W27772  13.750  15.874  15.594  0.0305 -0.0410  0.1611
 8919W        W27773  12.875  10.162  14.780  0.0324  0.2473  0.0543
 8920W        W27774   3.400   1.109  14.280  0.2241  0.0543  0.1872
 8921W        W27775   7.675  10.574  14.931  0.0551 -0.0221 -0.1091
 8922W        W27776  13.960  11.940   1.503  0.1612 -0.0554 -0.0767
 8923W        W27777   0.943   1.211   2.516  0.0035 -0.2986 -0.0157
 8924W        W27778   3.693   3.587   3.538  0.1153 -0.2029 -0.2163
 8925W        W27779  14.502  17.372  13.267  0.0204  0.3518 -0.0450
 8926W        W27780   7.487   5.923  17.113 -0.1427  0.0088 -0.0247
 8927W        W27781   4.643   7.689  14.284  0.0483 -0.3863 -0.1812
 8928W        W27782   9.068  11.272   4.025  0.1473  0.0451 -0.1957
 8929W        W27783  10.128  16.553   1.770 -0.2479  0.0651 -0.1250
 8930W        W27784   7.595   6.338   4.266 -0.0274  0.1631 -0.0235
 8931W        W27785   8.407   4.586   2.459 -0.2079  0.5132 -0.2639
 8932W        W27786   8.491   3.911   3.596 -0.1141  0.2043  0.1479
 8933W        W27787   6.657   7.103   0.680  0.1343  0.2275  0.3441
 8934W        W27788  13.736   9.892   4.207 -0.1497  0.1638  0.0974
 8935W        W27789  16.021   6.598   0.501  0.1120 -0.2243 -0.0939
 8936W        W27790   0.599  13.576  15.390 -0.2972  0.0501 -0.0330
 8937W        W27791   7.119   0.004  16.764  0.0962 -0.0482 -0.0196
 8938W        W27792   6.402   9.411  12.977 -0.1466 -0.1155 -0.1882
 8939W        W27793  16.073  12.796   1.094 -0.2409 -0.0589  0.1388
 8940W        W27794   5.755  17.237   2.158  0.1445  0.1803 -0.4137
 8941W        W27795  11.422   2.170   5.261  0.3552  0.1070  0.2435
 8942W        W27796  15.444   9.000  11.856 -0.2682  0.1969 -0.1603
 8943W        W27797   0.167  16.294  15.163  0.2956 -0.0153 -0.0608
 8944W        W27798   7.020   4.405  15.589  0.0436  0.0473  0.3404
 8945W        W27799  11.341  10.835   2.747 -0.3345 -0.4425 -0.0856
 8946W        W27800   3.538   4.889   2.546 -0.1566  0.1996 -0.0933
 8947W        W27801  12.905   7.997  13.798 -0.0223  0.1250 -0.1337
 8948W        W27802   1.199  12.880  14.479  0.1011 -0.0170  0.3257
 8949W        W27803  10.387  12.480  12.690 -0.1566 -0.0426 -0.0825
 8950W        W27804  13.846   7.385   3.299  0.0990 -0.1457  0.0983
 8951W        W27805   3.109  13.345   1.849  0.0204 -0.0090  0.2546
 8952W        W27806   3.401   0.580   0.846  0.3467  0.1488  0.2778
 8953W        W27807  13.600   0.761  14.499 -0.0437 -0.2090  0.1196
 8954W        W27808  16.217   7.706   2.843 -0.0136  0.2833  0.1600
 8955W        W27809   3.143   9.232  15.888 -0.0985 -0.3403  0.1643
 8956W        W27810   7.405  13.682  13.927  0.3295 -0.0920  0.0117
 8957W        W27811  12.606  16.317   3.418 -0.0154 -0.0571 -0.0908
 8958W        W27812  11.265  14.388  15.710  0.0182  0.1093 -0.3645
 8959W        W27813   8.247   6.106   4.497  0.1415 -0.4100  0.2092
 8960W        W27814   5.146   2.032  12.826  0.0891 -0.0900  0.0380
 8961W        W27815   4.940   8.670  15.328 -0.4470  0.4903 -0.1468
 8962W        W27816   8.236  12.624  14.361  0.0814  0.0711 -0.1218
 8963W        W27817  13.275  11.850  14.062  0.2052  0.2034  0.0313
 8964W        W27818   6.114   7.581  15.157 -0.0281 -0.0215  0.0361
 8965W        W27819  10.760   5.089  16.086  0.0848 -0.3082  0.0123
 8966W        W27820   6.720   8.031  16.386 -0.1734  0.1978 -0.1398
 8967W        W27821  12.509   3.960   1.632 -0.0527  0.2046 -0.2975
 8968W        W27822  17.290  14.194   0.701  0.0004 -0.1014  0.1278
 8969W        W27823   6.478   0.532   2.480 -0.0134  0.2824  0.2929
 8970W        W27824  12.187  12.736   4.619  0.2562 -0.2162 -0.0206
 8971W        W27825   3.860   7.747  17.296 -0.2364  0.1119  0.0477
 8972W        W27826  13.006  16.368   3.180 -0.0334  0.1596 -0.4324
 8973W        W27827   9.561  13.642  16.117 -0.0318 -0.1225  0.2202
 8974W        W27828  14.630   7.993  14.924  0.2414 -0.1207  0.0190
 8975W        W27829   8.259   6.789   3.309  0.1162  0.2510 -0.0990
 8976W        W27830  11.717   3.519  13.627  0.0540  0.1296 -0.1551
 8977W        W27831   0.446   0.434   4.316 -0.0077 -0.0913  0.0512
 8978W        W27832   7.404   8.564   4.434 -0.0074  0.0067  0.0690
 8979W        W27833  12.921   2.471  12.257 -0.2649 -0.2788 -0.0761
 8980W        W27834   2.233  12.242   1.491 -0.0383 -0.1971 -0.1119
 8981W        W27835  17.344   8.374   4.502 -0.2658  0.2605 -0.2462
 8982W        W27836   4.923   9.023   0.603  0.0725  0.0136 -0.0993
 8983W        W27837  11.574   2.276   2.881 -0.0574 -0.1092 -0.1129
 8984W        W27838   6.370   5.526   4.346  0.1229 -0.1871  0.1505
 8985W        W27839   7.812   2.127   5.056 -0.0476  0.0384  0.0465
 8986W        W27840   4.852   9.584  12.105 -0.1614 -0.0836  0.0836
 8987W        W27841   6.755  17.045  14.748 -0.1494 -0.1627 -0.0115
 8988W        W27842  16.352   7.027   4.734  0.5735 -0.0412  0.0984
 8989W        W27843  10.424  11.499   1.196  0.1281  0.0852  0.0372
 8990W        W27844   3.036   2.279   2.573  0.0817  0.0727  0.2988
 8991W        W27845   6.738   6.341  16.199 -0.2343  0.1444  0.0579
 8992W        W27846  12.488  14.622   3.534  0.3262 -0.0120  0.0883
 8993W        W27847   2.136   0.167   4.434  0.0172 -0.3707  0.1593
 8994W        W27848   1.611  12.824   2.778 -0.1550  0.1748 -0.1229
 8995W        W27849   4.823   6.886   0.569  0.0647  0.0285 -0.1662
 8996W        W27850  16.177  11.425  15.133 -0.2279 -0.2588  0.0341
 8997W        W27851  10.250  16.098  14.721  0.0247 -0.2595 -0.0344
 8998W        W27852  15.338  17.292  14.828  0.0264 -0.0087  0.0973
 8999W        W27853   4.812   4.691   1.467 -0.0421  0.1267 -0.0633
 9000W        W27854   8.034  13.827  17.182  0.1140 -0.0149 -0.1840
 9001W        W27855   7.503  11.588  12.371  0.2310  0.0498  0.2175
 9002W        W27856   3.811  16.059  13.148  0.0056  0.2416 -0.0841
 9003W        W27857   6.186   9.464  12.509 -0.0023 -0.1967  0.0606
 9004W        W27858   1.308  11.501  16.206  0.1622  0.2854 -0.2174
 9005W        W27859   0.177  13.275  15.314 -0.5130  0.1996 -0.0182
 9006W        W27860  11.234   0.244  14.113 -0.0145 -0.2227  0.1518
 9007W        W27861  10.524   1.492   2.394 -0.0273  0.3733 -0.1130
 9008W        W27862   4.912   5.358   2.739  0.2101  0.0121  0.1597
 9009W        W27863  16.601   6.776  13.369 -0.1753  0.0078  0.1520
 9010W        W27864  14.134   9.204   2.372 -0.1986 -0.0155 -0.1626
 9011W        W27865  11.288   1.628   2.876  0.1248  0.0416  0.1581
 9012W        W27866   8.467  16.188   0.576  0.1370 -0.0462  0.1940
 9013W        W27867  17.170   3.544   5.160  0.0248  0.1763 -0.0260
 9014W        W27868   3.186   3.413  14.394 -0.1391  0.1914  0.3230
 9015W        W27869  13.077   9.772  16.936  0.1719 -0.2972 -0.0144
 9016W        W27870  10.347  15.500   4.753 -0.2065  0.1139 -0.2616
 9017W        W27871  14.326  16.608  15.655 -0.0109 -0.1251 -0.0950
 9018W        W27872  17.194  16.740  12.540  0.2536  0.0710 -0.0042
 9019W        W27873  10.769  12.960   0.898 -0.1751 -0.5378 -0.0582
 9020W        W27874  14.955  11.476  17.073 -0.1285  0.1172  0.0439
 9021W        W27875   8.660  10.917   3.926 -0.0077 -0.3868 -0.0350
 9022W        W27876   9.198  16.558   4.115  0.0324  0.2166  0.1983
 9023W        W27877   0.141   7.562   0.930  0.2270 -0.2293  0.1401
 9024W        W27878  11.767   5.958   5.267 -0.0880 -0.0108 -0.1263
 9025W        W27879  14.591  16.400  15.260 -0.0695 -0.1266  0.1019
 9026W        W27880   6.243   6.935   2.694 -0.0537  0.0777 -0.2412
 9027W        W27881   2.448  10.661  16.244 -0.1390 -0.1549  0.0223
 9028W        W27882   7.276  15.178  12.948  0.2548 -0.1459  0.3228
 9029W        W27883  17.315  12.312   2.637 -0.0836 -0.0588  0.1686
 9030W        W27884   2.853   6.576   2.112  0.2648 -0.1030  0.2931
 9031W        W27885  12.365  12.077   2.845  0.1630  0.2497  0.2022
 9032W        W27886   3.895   5.658  13.736  0.2292 -0.0870 -0.0008
 9033W        W27887   4.571   8.480   2.693 -0.2338 -0.2069 -0.4718
 9034W        W27888  13.851   7.345   1.844  0.0710  0.2522  0.1112
 9035W        W27889   7.061  14.295   0.996  0.1571  0.1007  0.0681
 9036W        W27890   4.333   0.672   2.893  0.0005 -0.0561  0.0582
 9037W        W27891   8.547   5.704   4.184 -0.0586 -0.0899 -0.0394
 9038W        W27892   0.596   9.567  16.098 -0.0072  0.1080  0.4433
 9039W        W27893   0.025   9.411   3.503 -0.0748 -0.1781  0.0768
 9040W        W27894  16.029  12.800  13.023  0.0222  0.0608  0.2175
 9041W        W27895  11.502  13.595   0.377  0.1557  0.3012 -0.4498
 9042W        W27896   6.611  15.417  16.732  0.2448  0.1361  0.1346
 9043W        W27897   7.364  13.068  16.036 -0.0463 -0.0653 -0.2555
 9044W        W27898  16.579   5.223  12.936 -0.1647  0.2847 -0.0110
 9045W        W27899  10.347  12.730   1.597 -0.0368  0.0788 -0.1434
 9046W        W27900  13.295  12.690  13.041 -0.1862  0.3177  0.0789
 9047W        W27901   5.123  12.389  12.837  0.1108 -0.1810  0.0952
 9048W        W27902  12.799  16.562  13.653  0.1875 -0.1733 -0.2967
 9049W        W27903  16.843   8.667   5.334  0.0970 -0.0655 -0.1468
 9050W        W27904  13.805   7.554  13.945  0.0465 -0.3786 -0.2596
 9051W        W27905   8.128  15.183   2.640  0.2141 -0.1205 -0.3314
 9052W        W27906  10.947   7.013  13.010 -0.0134 -0.0835  0.0106
 9053W        W27907   3.634  13.135   3.818 -0.4665 -0.1129 -0.1731
 9054W        W27908  14.796  12.393   2.847  0.0342 -0.2624  0.3143
 9055W        W27909   1.804  15.112   3.727 -0.1783  0.0595  0.0041
 9056W        W27910   5.737   5.250   5.221  0.0100  0.2345 -0.0222
 9057W        W27911  14.573   5.595   1.380 -0.0995  0.1238 -0.0932
 9058W        W27912   1.116   0.276   3.627 -0.1698 -0.3378  0.2441
 9059W        W27913   1.478   1.772  15.400  0.1622 -0.3115  0.2021
 9060W        W27914  13.171   8.958   5.217  0.1067 -0.3671 -0.1372
 9061W        W27915   1.262  10.529  13.171  0.2079  0.0747 -0.0225
 9062W        W27916   7.483   3.772  13.082  0.1374  0.0732 -0.2291
 9063W        W27917  11.882   9.248   3.224  0.1910 -0.0902 -0.2437
 9064W        W27918  14.725  14.095   2.193 -0.0563 -0.1457 -0.0476
 9065W        W27919  16.745   0.661  12.954  0.3084 -0.1083 -0.1256
 9066W        W27920   6.200   5.632   3.306 -0.4489 -0.1550 -0.0348
 9067W        W27921  11.169   0.404   4.708  0.2073  0.2670  0.0485
 9068W        W27922   7.928   0.845  14.245  0.0310 -0.0526  0.2257
 9069W        W27923   9.814   0.610   4.300  0.0126 -0.0167  0.0157
 9070W        W27924   9.368   7.367   1.245 -0.0166 -0.0339 -0.0306
 9071W        W27925   0.904   5.361  13.104  0.2318 -0.1121  0.1617
 9072W        W27926  15.233   4.878   4.623 -0.0023  0.0831  0.1214
 9073W        W27927   3.283  16.826   0.038 -0.1330 -0.1517  0.0971
 9074W        W27928   7.171   6.662   4.041  0.0747 -0.0567 -0.3502
 9075W        W27929   3.362  12.528   3.391 -0.0446 -0.0709 -0.1860
 9076W        W27930  13.414  11.816   3.562 -0.0366  0.2587 -0.0396
 9077W        W27931  11.015  10.369   2.149 -0.2150 -0.2483 -0.4131
 9078W        W27932  14.476   6.570   0.298 -0.0127 -0.0369  0.0200
 9079W        W27933  10.424  11.361   5.224 -0.3438 -0.0100 -0.0924
 9080W        W27934   1.341   5.220   3.972 -0.2074  0.0138 -0.2465
 9081W        W27935   2.597  12.154   3.784 -0.0189  0.3390  0.0840
 9082W        W27936   7.264   9.352   5.411 -0.2759 -0.0169  0.1056
 9083W        W27937  13.557  10.659  12.243 -0.2291  0.0767  0.0437
 9084W        W27938  11.040   3.728  16.266 -0.0874  0.0491  0.0032
 9085W        W27939   9.047  10.812   3.559  0.0532  0.0264 -0.0083
 9086W        W27940   0.463   7.951   4.902  0.0013  0.0229 -0.3946
 9087W        W27941  15.581   5.658  16.033  0.0062  0.0829  0.1954
 9088W        W27942  10.042   4.921  14.746  0.0597 -0.0241  0.0520
 9089W        W27943  15.613  10.019  14.072  0.1844 -0.1030 -0.1848
 9090W        W27944   3.802   1.140   4.439 -0.0446 -0.0150 -0.1737
 9091W        W27945  10.163  16.966  16.629 -0.0002 -0.1841 -0.2160
 9092W        W27946  10.252   3.036   2.467  0.0317 -0.1485  0.1168
 9093W        W27947  16.030   9.656  14.779 -0.0697 -0.0137  0.1769
 9094W        W27948  13.719   8.989   1.025  0.2972 -0.4006 -0.2014
 9095W        W27949   1.969   8.089  14.234  0.1198  0.0416 -0.1200
 9096W        W27950  12.062   6.205  12.730 -0.1024 -0.0663  0.0044
 9097W        W27951  13.509  14.827  15.444  0.0157 -0.1085  0.0309
 9098W        W27952   4.519   3.648  15.127  0.1689 -0.1893  0.4074
 9099W        W27953   2.197  12.325   5.431 -0.2333 -0.0154 -0.0680
 9100W        W27954  10.626  12.646   0.516 -0.1468  0.0126 -0.1458
 9101W        W27955   7.737   1.017   1.762  0.1713 -0.0302  0.1668
 9102W        W27956   9.326  13.032   0.648 -0.1771 -0.3132  0.2129
 9103W        W27957   3.236   3.012   3.950 -0.1346 -0.1843 -0.0893
 9104W        W27958   3.786  10.143  16.796 -0.1168  0.0978  0.3096
 9105W        W27959   6.411   2.366  12.371  0.1666  0.2181 -0.0907
 9106W        W27960   6.152  15.265  16.844 -0.0366  0.3212  0.1083
 9107W        W27961  12.930   3.881   3.621 -0.1813  0.1340 -0.1344
 9108W        W27962   8.320   1.615   0.366  0.3116 -0.0957  0.0960
 9109W        W27963  11.069   6.269   4.199  0.1368 -0.1232  0.1414
 9110W        W27964  11.464   5.288   0.078 -0.0396 -0.1836 -0.1838
 9111W        W27965   8.840   2.917   0.697  0.1609  0.1846  0.2500
 9112W        W27966  13.310   0.591   2.626 -0.0881 -0.0182 -0.2900
 9113W        W27967   2.668   0.380   1.479 -0.0257 -0.4058 -0.0351
 9114W        W27968  16.694  10.837  14.042 -0.1333 -0.1170  0.0736
 9115W        W27969  14.646   1.537  13.141 -0.1926  0.0069  0.2012
 9116W        W27970   4.780  11.655   3.118  0.2360  0.1452  0.2283
 9117W        W27971   9.065   3.520   0.124  0.0566 -0.0940  0.0715
 9118W        W27972   0.777   1.923   4.919 -0.1618  0.0699 -0.1070
 9119W        W27973   7.557  10.222   5.229 -0.2075 -0.0115  0.1235
 9120W        W27974  13.344   6.129  12.483  0.2077 -0.1704  0.0398
 9121W        W27975   3.883  15.159   4.818  0.0466 -0.1904  0.0101
 9122W        W27976   1.010   1.329   0.730  0.1807 -0.0384  0.0714
 9123W        W27977   2.313  11.847  16.639 -0.1023 -0.0553 -0.0085
 9124W        W27978   6.155  16.656  16.688  0.2117  0.1497 -0.1579
 9125W        W27979   1.485   3.651  16.014 -0.3593  0.2144  0.1116
 9126W        W27980  13.082   1.438   2.235 -0.0494 -0.2100 -0.1661
 9127W        W27981   9.034   1.121  14.263  0.1256 -0.0634 -0.1575
 9128W        W27982  11.040   5.479   4.840 -0.4291  0.0804  0.1347
 9129W        W27983   5.168   7.376  13.795  0.1234  0.0688 -0.0049
 9130W        W27984   2.730   6.844   0.862  0.0461 -0.2885 -0.1439
 9131W        W27985  13.589   5.477   0.150 -0.2193 -0.0687  0.0343
 9132W        W27986   2.907  10.328  13.796 -0.3438  0.2786  0.3121
 9133W        W27987   6.120  16.553   1.389 -0.0980 -0.0084 -0.2243
 9134W        W27988   1.995   7.575  15.412  0.1946  0.2085  0.0471
 9135W        W27989   0.852   4.962   2.495 -0.1058 -0.0754 -0.0841
 9136W        W27990  13.440  13.757  12.578 -0.0482 -0.2187 -0.3998
 9137W        W27991  13.835  13.200  16.834 -0.1001 -0.0931  0.1468
 9138W        W27992   7.004   3.461  14.723 -0.1637  0.2011 -0.0052
 9139W        W27993  10.493  16.317  15.129  0.0039  0.3507 -0.4261
 9140W        W27994   6.484  12.174  17.307 -0.2192 -0.1947  0.2103
 9141W        W27995  14.886  11.286   2.479 -0.1715 -0.0983 -0.0241
 9142W        W27996  11.209   0.752  14.251  0.2832  0.0874  0.0659
 9143W        W27997  14.384  10.613   2.533  0.0928  0.0052 -0.0166
 9144W        W27998   0.186  13.167  14.281 -0.3122  0.0108 -0.0129
 9145W        W27999  13.608   1.738  16.965  0.1306  0.0388 -0.1207
 9146W        W28000   8.829  13.019   0.526 -0.0596  0.0343  0.2898
 9147W        W28001  10.836   0.996  17.427  0.4741 -0.2316  0.1153
 9148W        W28002   1.661   8.247   3.894  0.1611 -0.1552 -0.0041
 9149W        W28003   3.235  11.502   3.819 -0.2175  0.0130 -0.0239
 9150W        W28004   8.159  15.427  12.596 -0.1253  0.0722  0.0235
 9151W        W28005  14.253   7.594   1.432 -0.1664  0.0489 -0.0988
 9152W        W28006   5.145  13.222  16.788  0.1540 -0.1765 -0.0613
 9153W        W28007  13.831   9.919   5.594 -0.2751  0.1687  0.3392
 9154W        W28008   5.864   9.153  14.735 -0.0731 -0.2257 -0.3170
 9155W        W28009  11.500   2.290  12.696 -0.5737  0.0593 -0.2913
 9156W        W28010   9.301  11.939  15.996  0.2124 -0.0115 -0.0837
 9157W        W28011   0.592   4.897  13.087 -0.0250  0.2112  0.1534
 9158W        W28012  10.481  16.603  12.812 -0.0192 -0.0076  0.0274
 9159W        W28013   7.781  12.596  17.201  0.0339  0.0129 -0.2006
 9160W        W28014   9.552   7.245   2.613  0.1553  0.1995 -0.1102
 9161W        W28015   2.928  12.017   2.384  0.0679  0.2080  0.1295
 9162W        W28016   5.956   6.893   3.810 -0.2014  0.2038  0.0090
 9163W        W28017   9.879   8.255   3.399 -0.1527 -0.1307  0.1219
 9164W        W28018   2.320   6.462  13.082 -0.3116  0.2991 -0.1039
 9165W        W28019  13.007  16.047   4.733 -0.0920 -0.2927 -0.1980
 9166W        W28020  16.315   5.391  16.049 -0.2111  0.2857 -0.2128
 9167W        W28021   0.759   8.773  15.743  0.0081 -0.0525  0.2522
 9168W        W28022   5.060   5.999  16.276  0.2163 -0.0319 -0.0220
 9169W        W28023   3.529   5.895   4.688  0.1294 -0.0158 -0.2414
 9170W        W28024   0.830   8.568  13.260 -0.1192 -0.0352 -0.0377
 9171W        W28025   6.728  13.837  14.356 -0.1205 -0.1259 -0.2782
 9172W        W28026   5.174   9.068  13.637 -0.2994 -0.0757  0.1035
 9173W        W28027  15.477  16.138   2.720 -0.1521 -0.1509 -0.1921
 9174W        W28028   6.201   2.307   0.452 -0.0838 -0.0155  0.2643
 9175W        W28029  12.508  10.268  11.915 -0.0919  0.0288 -0.0882
 9176W        W28030   0.060  11.263   1.623  0.2656  0.3373 -0.1702
 9177W        W28031   6.620   7.502  16.918 -0.1357 -0.0660  0.0214
 9178W        W28032  15.272  17.007  15.275 -0.0603  0.0338  0.1599
 9179W        W28033  14.770   6.338  13.893 -0.0774  0.1202  0.0120
 9180W        W28034  12.213  13.473  14.273 -0.0822 -0.1431  0.0175
 9181W        W28035   0.731   1.836   1.593  0.2313 -0.0901  0.0627
 9182W        W28036  16.406   2.816  14.283 -0.0854 -0.1755 -0.0664
 9183W        W28037   6.036   1.933   2.210  0.1642  0.1140 -0.2070
 9184W        W28038   7.448   3.194  17.354 -0.0962  0.1049  0.0591
 9185W        W28039   2.250   5.619  12.815  0.0604 -0.0122 -0.0274
 9186W        W28040   0.878   8.441  16.043 -0.3698  0.1208  0.1060
 9187W        W28041   6.828   2.991   4.196 -0.0611 -0.1175  0.0738
 9188W        W28042  11.207  12.803   1.666 -0.1708  0.0856 -0.0682
 9189W        W28043  10.208  15.767  13.066  0.1028  0.1988  0.1900
 9190W        W28044   5.914   7.230   2.981 -0.0300 -0.1433  0.0679
 9191W        W28045  11.580  17.107  15.011  0.0540  0.1098  0.3992
 9192W        W28046  11.579   4.835   4.999  0.1461  0.0182  0.0064
 9193W        W28047  10.294   3.431   4.300 -0.0643 -0.0365 -0.2221
 9194W        W28048  15.604   2.614  12.826 -0.0063 -0.0928 -0.0847
 9195W        W28049  16.180  10.043   0.514  0.3670 -0.0136 -0.0445
 9196W        W28050  12.738   7.386   1.626  0.1102  0.1887 -0.0379
 9197W        W28051  15.667  10.057   2.368 -0.0155  0.0773 -0.0224
 9198W        W28052  12.739   1.445   0.243  0.0617  0.0091 -0.0371
 9199W        W28053   8.731   4.004  16.917  0.3416  0.1081 -0.0722
 9200W        W28054   7.278   2.578   0.268  0.1679  0.0014  0.2620
 9201W        W28055  12.079   2.850   4.316  0.0625  0.0784 -0.1745
 9202W        W28056  11.449   6.947   1.155 -0.2960  0.3896 -0.1615
 9203W        W28057  11.360   4.368  13.238 -0.0749 -0.2268  0.2824
 9204W        W28058  16.692  16.431   4.090  0.0887  0.0305  0.1529
 9205W        W28059  10.847  15.264   3.747 -0.0369  0.0501 -0.3263
 9206W        W28060  12.596   9.043  15.387  0.1394  0.0215 -0.0087
 9207W        W28061   8.957  12.097  16.839  0.2275 -0.1630  0.3041
 9208W        W28062  13.905   9.476  16.380 -0.0084  0.1266 -0.0628
 9209W        W28063  12.955   5.805   2.714  0.0054 -0.0515 -0.2076
 9210W        W28064   6.028   1.091  13.744 -0.0049  0.0952 -0.0801
 9211W        W28065   4.572   2.451   2.842 -0.0897 -0.0695  0.1825
 9212W        W28066   6.315  15.898   4.206  0.2532 -0.1337  0.1400
 9213W        W28067   9.603  13.706   1.002 -0.1997 -0.0488 -0.1120
 9214W        W28068  14.701   4.086  17.310 -0.0344 -0.0615  0.1685
 9215W        W28069  10.692   1.224   0.394  0.0544 -0.0575  0.0094
 9216W        W28070   7.837  11.799   2.420  0.2104  0.0531 -0.1967
 9217W        W28071   2.486  12.645  12.425 -0.0226  0.1568  0.2111
 9218W        W28072  12.803   8.525  13.070  0.0281 -0.0673  0.1861
 9219W        W28073   3.418  14.262  13.794  0.2686 -0.0610 -0.0428
 9220W        W28074   7.898   3.760   2.887 -0.1446  0.1438  0.1183
 9221W        W28075   6.536   5.341  15.842  0.0802 -0.0632 -0.3410
 9222W        W28076   9.186   8.969  17.337 -0.0896  0.0855  0.0333
 9223W        W28077   2.043   0.620   0.423 -0.2072  0.1331 -0.0044
 9224W        W28078   4.174   2.502  15.569  0.0683  0.1482 -0.0847
 9225W        W28079  16.752  10.663  14.515 -0.0314  0.1213 -0.2668
 9226W        W28080   6.356  10.350  17.289 -0.1279 -0.0594 -0.4715
 9227W        W28081   8.244   1.154   0.253 -0.0585  0.1657 -0.0585
 9228W        W28082  10.173   6.937  12.017  0.0508  0.1052 -0.2066
 9229W        W28083   6.972   1.102   0.970  0.0089  0.3276 -0.0428
 9230W        W28084  14.778  13.219   3.770  0.2840  0.0155  0.0868
 9231W        W28085   7.549   3.318  13.936  0.0500  0.1924  0.0274
 9232W        W28086   5.713   9.958   4.253  0.2521  0.0595 -0.2223
 9233W        W28087   7.020   6.845   4.891 -0.0927  0.1584  0.1358
 9234W        W28088   7.463  15.894   1.738  0.1100  0.2734 -0.0748
 9235W        W28089  16.283   8.847  15.673 -0.0739 -0.1983 -0.0891
 9236W        W28090   0.468   2.841   4.967  0.1821  0.3178  0.2548
 9237W        W28091   7.213   2.972   0.678  0.0562  0.0868 -0.2390
 9238W        W28092  13.938   9.191   1.407  0.0342  0.1728 -0.2420
 9239W        W28093   4.193   0.633   4.495  0.1409 -0.1564 -0.2255
 9240W        W28094  10.721   6.075   5.107  0.0309  0.2294 -0.0558
 9241W        W28095   1.149   6.871   2.578  0.4606 -0.0782  0.0427
 9242W        W28096   1.078  16.167   1.189 -0.0631  0.1938 -0.3741
 9243W        W28097  12.670  11.646   5.050  0.0377  0.1598  0.1197
 9244W        W28098   7.396   7.574  13.542  0.1802 -0.1311 -0.3568
 9245W        W28099  16.768   6.865   0.054 -0.0755 -0.1165 -0.1389
 9246W        W28100  15.763   3.789   4.937 -0.0127  0.1022 -0.1262
 9247W        W28101  11.727   4.228  16.434 -0.3485 -0.3162 -0.2512
 9248W        W28102  15.301  16.066  14.192  0.0773 -0.2184 -0.1494
 9249W        W28103   9.950   1.690   5.069  0.1694 -0.2126 -0.0640
 9250W        W28104   7.676   8.605   1.368 -0.1845 -0.3831 -0.2110
 9251W        W28105  16.443  10.874  17.343 -0.2928 -0.3984  0.1130
 9252W        W28106  15.373  13.076   0.492 -0.3117 -0.1844 -0.0013
 9253W        W28107  12.754   9.672  13.239 -0.1457 -0.2231  0.0496
 9254W        W28108  10.419   0.830  13.532 -0.0540 -0.4380 -0.0660
 9255W        W28109  13.979  14.624   0.914 -0.4193 -0.3240  0.1956
 9256W        W28110   6.332   3.253   1.126 -0.0621 -0.0139 -0.0467
 9257W        W28111   1.575   1.303   3.554  0.2096  0.0466 -0.0166
 9258W        W28112  14.166  16.505  14.554 -0.1312  0.2749 -0.2693
 9259W        W28113  14.837   7.215  13.607  0.1395  0.0705  0.2922
 9260W        W28114  12.709   4.469   0.978  0.1779  0.3341 -0.0159
 9261W        W28115   6.923  15.900  15.984  0.0530 -0.2800 -0.2692
 9262W        W28116   6.164   1.067   0.923 -0.3681 -0.1742 -0.1650
 9263W        W28117   0.411   7.057  12.973 -0.1686 -0.0855  0.0897
 9264W        W28118  11.113  11.454   4.441 -0.0092 -0.0869  0.3220
 9265W        W28119  12.004  11.181   1.080 -0.0340 -0.2876 -0.0398
 9266W        W28120  10.193   9.348   4.447  0.2171  0.1307 -0.2542
 9267W        W28121  13.146  14.374   2.263  0.4287 -0.0282  0.0828
 9268W        W28122   4.420   4.020  15.564 -0.1919 -0.1148 -0.2095
 9269W        W28123  15.726   0.369   3.127  0.1255 -0.2356 -0.0559
 9270W        W28124  16.683  11.824  12.112 -0.1478 -0.0073 -0.1665
 9271W        W28125   0.791   6.816  14.784 -0.1245  0.1506 -0.2688
 9272W        W28126   7.624  14.137  15.072  0.0290  0.0832  0.0504
 9273W        W28127   1.234   9.182  15.592 -0.2087 -0.0248 -0.3380
 9274W        W28128  11.044   2.702  14.769  0.1978  0.2381 -0.0054
 9275W        W28129   8.726   9.475   2.737  0.2229  0.5167 -0.1521
 9276W        W28130  12.704   7.266   4.965 -0.0634  0.0251 -0.0692
 9277W        W28131   7.053   7.616  14.467  0.0412 -0.2459 -0.0398
 9278W        W28132   8.768  10.835  14.938  0.0904  0.0662  0.1417
 9279W        W28133   7.978  14.009  11.758  0.1126  0.1989 -0.0569
 9280W        W28134   7.170   4.526  16.958 -0.0537 -0.0503  0.2891
 9281W        W28135   0.334   1.600   3.713 -0.2443  0.0888 -0.0932
 9282W        W28136  14.602  14.254   1.623  0.0941  0.1849  0.4434
 9283W        W28137  14.681  10.578   3.914 -0.0611 -0.2645 -0.1048
 9284W        W28138  14.209   0.948  11.547 -0.3053 -0.1830 -0.0399
 9285W        W28139  10.560   6.509   0.565 -0.1448  0.2765  0.0524
 9286W        W28140  10.553   6.271   4.701  0.5111  0.0821  0.4028
 9287W        W28141  15.249   2.542  13.641 -0.3400 -0.1654 -0.1576
 9288W        W28142   2.050  13.034  13.019 -0.1816  0.1357 -0.2288
 9289W        W28143   5.084   0.468   4.181  0.0544  0.1448 -0.1536
 9290W        W28144   8.515   8.504   3.039 -0.1975 -0.1156  0.1886
 9291W        W28145  16.571  14.836   1.891 -0.0172 -0.0925 -0.0596
 9292W        W28146  10.311   4.383  16.332  0.1101  0.0831 -0.0890
 9293W        W28147   2.990   1.197   0.859 -0.0208  0.1842 -0.2428
 9294W        W28148   6.073  12.028  13.201 -0.0676  0.0034  0.1982
 9295W        W28149  15.149   8.108  15.702 -0.3362  0.0945 -0.0764
 9296W        W28150   5.023   7.339  13.292  0.0872 -0.0399 -0.1745
 9297W        W28151  13.892  10.621   2.447  0.0716  0.1875  0.1527
 9298W        W28152   6.103  14.611   4.450 -0.2171 -0.0564  0.0427
 9299W        W28153  17.142   4.325   1.149 -0.0129  0.2815  0.1763
 9300W        W28154  10.722   8.338   2.050  0.3363 -0.1292  0.1292
 9301W        W28155   1.173  10.122   4.883  0.0790  0.0174  0.3657
 9302W        W28156   0.112   1.937   4.634  0.1243 -0.1363  0.1246
 9303W        W28157  12.783   0.894   1.079 -0.2107  0.1911 -0.2864
 9304W        W28158   8.342  17.132  15.489  0.3094 -0.1969 -0.2570
 9305W        W28159  16.219   5.975  17.307  0.0582  0.2026 -0.0173
 9306W        W28160   4.657  14.945   0.054  0.1781  0.2934 -0.0421
 9307W        W28161  11.813  15.641   3.631 -0.0206  0.0773 -0.1599
 9308W        W28162   2.491   1.780   2.727  0.2884  0.1761  0.0293
 9309W        W28163   3.618   7.664   5.448  0.4517  0.0772 -0.1067
 9310W        W28164  15.521  10.294  14.633 -0.0484  0.0262  0.0796
 9311W        W28165  12.431  13.388   5.204  0.2004 -0.0092 -0.0110
 9312W        W28166  14.578   9.871  14.203 -0.0431  0.1143 -0.2010
 9313W        W28167   2.162  10.347  17.245  0.1574  0.0893  0.4570
 9314W        W28168  14.813   2.023   3.993  0.3514  0.2405  0.0961
 9315W        W28169   4.010  13.935   5.062  0.0862  0.2226 -0.0625
 9316W        W28170  11.175   7.599  16.823 -0.2440 -0.5086  0.2593
 9317W        W28171   5.645   2.612  16.881 -0.0375  0.1548  0.2273
 9318W        W28172  16.202   8.522   4.993 -0.0450  0.0014 -0.1442
 9319W        W28173   3.058  12.696   1.101 -0.0235  0.1593 -0.2488
 9320W        W28174  12.731   1.114  17.227  0.0120  0.1335 -0.3489
 9321W        W28175   4.256  15.879  15.958 -0.1754  0.2192  0.0381
 9322W        W28176  12.241  11.166  12.237 -0.2743  0.0095 -0.0723
 9323W        W28177   8.812  12.150  16.278  0.0596 -0.1128 -0.1634
 9324W        W28178   9.097  12.531   0.809  0.0887 -0.0692  0.0993
 9325W        W28179  13.124  14.074   4.921  0.3885  0.1492  0.2150
 9326W        W28180   8.649  14.086   5.233  0.1778  0.1576 -0.1517
 9327W        W28181  10.350   1.219  13.979  0.1232 -0.2092  0.1044
 9328W        W28182   8.759   2.757  15.201 -0.2486 -0.1701  0.1267
 9329W        W28183  16.431   3.477   4.811  0.2176  0.2363  0.1807
 9330W        W28184  11.222   4.627  12.807  0.0712 -0.1676  0.2754
 9331W        W28185   3.502  13.254  16.370 -0.0259  0.5758 -0.1174
 9332W        W28186   2.114  12.452   3.632 -0.2489  0.4068  0.1432
 9333W        W28187  17.148   0.052  17.309  0.1637  0.0054  0.1744
 9334W        W28188   8.070  17.280  13.743  0.1566  0.0740 -0.1367
 9335W        W28189  12.314   2.871  13.330 -0.0115  0.4189  0.2029
 9336W        W28190  13.594  10.122   4.844  0.0226  0.2311  0.1274
 9337W        W28191   4.244  16.892   1.009 -0.1401  0.1410  0.0578
 9338W        W28192   9.922  11.316   1.975  0.2224 -0.2750 -0.0085
 9339W        W28193   5.404   0.149   1.676  0.2397 -0.0874  0.2982
 9340W        W28194  16.685  15.296   0.412  0.1988 -0.2274  0.3779
 9341W        W28195  13.441   7.722   0.785  0.3392 -0.1740 -0.0147
 9342W        W28196  15.169   4.841   6.022 -0.3831  0.2582  0.1590
 9343W        W28197   0.244   2.303  16.369 -0.1759  0.1483  0.0548
 9344W        W28198  16.340   1.760  15.230 -0.0759  0.0784  0.0159
 9345W        W28199   8.849   9.613  14.046  0.1084 -0.0074 -0.2712
 9346W        W28200   1.379   9.180  13.551 -0.0785  0.2471 -0.0264
 9347W        W28201  10.379  11.565   4.090 -0.0431 -0.1239  0.1904
 9348W        W28202   6.764   4.032  12.540 -0.1807 -0.2286  0.0301
 9349W        W28203  10.787   0.856   4.203 -0.0488 -0.1918  0.0933
 9350W        W28204   8.751  10.277   5.349 -0.1626  0.2830  0.0642
 9351W        W28205  13.932   7.863  13.536 -0.0849  0.2425 -0.2802
 9352W        W28206  16.727   4.375   1.452 -0.0208 -0.1050 -0.1650
 9353W        W28207   5.849   2.734   4.223 -0.1274 -0.2417  0.0976
 9354W        W28208   3.635   4.389  13.303 -0.0276  0.1911  0.2989
 9355W        W28209  10.326  14.042   1.963 -0.1321 -0.3682 -0.1722
 9356W        W28210   7.413   0.768  16.729 -0.0390  0.4631  0.0402
 9357W        W28211   1.504   5.042   1.696 -0.5335  0.0110 -0.0837
 9358W        W28212   5.604   5.183  15.809  0.0111 -0.1600 -0.0225
 9359W        W28213  17.150  10.874   2.203  0.2381  0.3285  0.2063
 9360W        W28214   2.477  15.110   0.012  0.1060 -0.2817  0.1750
 9361W        W28215   9.373  14.581   2.288 -0.3381  0.2209 -0.0693
 9362W        W28216  13.606  13.982  15.714 -0.2883  0.1588 -0.3000
 9363W        W28217  12.630   4.099  15.412  0.0130  0.1747 -0.0352
 9364W        W28218  15.825  16.129  12.465 -0.0419 -0.1421  0.0124
 9365W        W28219  16.210  10.476  17.179  0.0084 -0.0245  0.1180
 9366W        W28220  11.342   6.146  15.072  0.1837  0.1339 -0.0788
 9367W        W28221   2.379   1.473   2.257  0.2568 -0.3253 -0.0505
 9368W        W28222   0.843   8.537   0.333 -0.0786 -0.2182 -0.2163
 9369W        W28223   9.829   4.940  15.806  0.0409  0.2156 -0.0693
 9370W        W28224   4.317   7.941   4.777  0.2005 -0.0522 -0.2980
 9371W        W28225   1.799  10.146   2.165  0.1704  0.0756 -0.0301
 9372W        W28226   4.115   3.380   0.267 -0.0288 -0.0991 -0.1572
 9373W        W28227  11.806   0.838   2.937 -0.0200 -0.0818  0.0830
 9374W        W28228  16.789  11.999  13.885  0.0335 -0.0420  0.2992
 9375W        W28229  15.063  14.872   3.452 -0.0005  0.1168  0.0134
 9376W        W28230   8.309   9.329   2.982 -0.0626 -0.1411 -0.0811
 9377W        W28231  13.608   3.834  15.404 -0.3660  0.1172 -0.0556
 9378W        W28232   2.417   3.929   2.742  0.3082  0.1909 -0.1367
 9379W        W28233   9.175  15.491  12.364  0.0199  0.1314 -0.4117
 9380W        W28234  12.708   6.123  17.219 -0.1051  0.1896  0.0216
 9381W        W28235  11.222   0.141  16.289  0.1162  0.2004 -0.0557
 9382W        W28236   7.208  15.081   4.955 -0.2037  0.0629 -0.0876
 9383W        W28237  13.842   1.572   0.938  0.0836  0.3054 -0.1371
 9384W        W28238  10.115   3.495   4.793  0.0293  0.0263  0.1782
 9385W        W28239   3.490   9.848  15.344  0.2771 -0.4274 -0.2022
 9386W        W28240   2.039  14.535   4.724  0.0684 -0.1081 -0.1474
 9387W        W28241  11.406  12.391  17.243 -0.0663  0.1027 -0.0291
 9388W        W28242   4.971   1.442  13.251  0.0822 -0.1982  0.0892
 9389W        W28243  16.480   7.617  16.877  0.2473 -0.0074 -0.4041
 9390W        W28244  16.003   5.111  15.749  0.1506 -0.1295 -0.1560
 9391W        W28245   5.637  17.396   5.184  0.0842  0.1901 -0.0009
 9392W        W28246  11.832   3.707   0.999 -0.2698 -0.0299 -0.2709
 9393W        W28247   3.791   7.766  13.250  0.3428 -0.0260 -0.1073
 9394W        W28248   1.404   9.426   4.652  0.1015 -0.2113 -0.0808
 9395W        W28249  10.101   7.945  15.126  0.1773  0.1588 -0.0394
 9396W        W28250   1.921   7.519  14.932  0.1956 -0.1609 -0.0645
 9397W        W28251  13.677  14.591   2.185  0.1105  0.1625  0.2248
 9398W        W28252  11.997  10.911   0.492  0.4785  0.1312 -0.0359
 9399W        W28253  10.224  14.898  13.768 -0.0314  0.1046 -0.0675
 9400W        W28254   5.003   2.281   4.520  0.1428  0.1896 -0.0357
 9401W        W28255  10.861   5.397   2.904 -0.1818 -0.2251  0.1534
 9402W        W28256  10.260   6.232   2.602  0.0553 -0.2891  0.1007
 9403W        W28257  14.872  14.265  15.753 -0.0029  0.1287  0.1185
 9404W        W28258   5.283   6.823   0.965  0.0607  0.1210  0.3416
 9405W        W28259   6.034   4.362   1.976  0.0964  0.2850  0.0471
 9406W        W28260   1.339   1.709   0.651 -0.1445  0.1917 -0.1510
 9407W        W28261   0.789  14.388  16.378  0.0273 -0.2109  0.0156
 9408W        W28262   7.045   3.470   0.001 -0.1753  0.0004 -0.1204
 9409W        W28263   2.558   9.797  15.602 -0.4058 -0.1172 -0.1263
 9410W        W28264  12.800  12.247   4.198 -0.0855  0.0118  0.6502
 9411W        W28265   0.570   2.883  17.345 -0.0577  0.1601 -0.0470
 9412W        W28266  14.390  16.640  12.533 -0.1127 -0.2236  0.0383
 9413W        W28267  14.345  14.547  15.627  0.2320 -0.0481 -0.2171
 9414W        W28268  11.085  17.023  11.356 -0.3611  0.0857  0.0222
 9415W        W28269   1.455   5.116  14.866  0.2845 -0.0487 -0.0305
 9416W        W28270   1.309   6.023   1.497  0.1127  0.1874  0.2607
 9417W        W28271   3.213  11.055  14.318 -0.1323  0.1398 -0.1920
 9418W        W28272   3.460  17.074   1.965  0.1196  0.1039  0.2754
 9419W        W28273  12.865   9.989   4.598 -0.1445 -0.1267  0.1119
 9420W        W28274   6.250  12.814  16.754 -0.2481 -0.1850 -0.1052
 9421W        W28275  13.424  10.125  13.032  0.0607  0.0317 -0.0249
 9422W        W28276   1.657   0.435  14.122  0.1407 -0.3189 -0.1528
 9423W        W28277   9.311   6.822   2.431 -0.2486 -0.0791 -0.1213
 9424W        W28278  14.254   5.888  13.325  0.2621  0.0293 -0.0206
 9425W        W28279  10.446  14.559   0.474 -0.2102 -0.0137  0.3941
 9426W        W28280   7.479   8.936   3.489 -0.2274 -0.0383  0.2974
 9427W        W28281  10.761  12.261   2.256 -0.2985  0.0249  0.1413
 9428W        W28282   4.344  16.607  16.594 -0.3552 -0.2093 -0.0985
 9429W        W28283   0.793  10.025   1.426 -0.2391 -0.0317 -0.2061
 9430W        W28284  16.494   3.818   4.420  0.0015 -0.0555 -0.4206
 9431W        W28285   2.372   1.598  15.666 -0.2406  0.0373 -0.1384
 9432W        W28286  11.030   7.919  14.838  0.0986  0.1098 -0.0725
 9433W        W28287   6.794   7.712  15.792  0.0592 -0.2253 -0.0456
 9434W        W28288   9.577   4.048   2.877 -0.0701 -0.0393  0.0600
 9435W        W28289  13.178  17.199   2.175 -0.1754 -0.1765 -0.0291
 9436W        W28290   7.180   1.370  13.575  0.0977 -0.2596 -0.0382
 9437W        W28291  16.507   1.282   0.759 -0.1452 -0.1868  0.0461
 9438W        W28292  11.676   7.646   2.363 -0.4105 -0.3433  0.0236
 9439W        W28293   8.970   5.815   0.926 -0.0517  0.0786 -0.0169
 9440W        W28294   1.738  13.021  16.999  0.2727 -0.0249  0.0238
 9441W        W28295   1.325  13.076   4.558  0.0966 -0.0008  0.0666
 9442W        W28296   4.366  13.003  17.303 -0.1361  0.2861  0.4057
 9443W        W28297   7.053   5.345   2.186 -0.1184  0.1127  0.0426
 9444W        W28298   0.948   8.132   4.800 -0.1765  0.1186 -0.0692
 9445W        W28299   2.950  15.507  12.742 -0.1111  0.3271 -0.1566
 9446W        W28300   9.786  13.179   3.875 -0.0408  0.0747  0.0709
 9447W        W28301   8.126   4.207   6.226  0.1825  0.0325 -0.0911
 9448W        W28302   1.350  17.115   0.703  0.0093 -0.2667 -0.0723
 9449W        W28303  13.961  12.125   4.295  0.2221 -0.1323  0.1270
 9450W        W28304  15.801  10.428   3.544 -0.2251 -0.2036  0.0498
 9451W        W28305   4.872   7.694   4.851  0.0121 -0.2649  0.2324
 9452W        W28306   0.592   5.936  15.617  0.0010 -0.1591  0.2211
 9453W        W28307   7.219  12.974  16.504  0.0482 -0.0121  0.0741
 9454W        W28308   6.530   3.641  13.495 -0.3062 -0.2045  0.0313
 9455W        W28309  12.286  14.389  15.470 -0.1065 -0.0572  0.3564
 9456W        W28310   6.852   2.572  13.073 -0.0467  0.1743 -0.1278
 9457W        W28311   1.454  15.397  13.032 -0.4365  0.0191  0.1452
 9458W        W28312   0.072   5.865  16.430  0.0298  0.0052  0.1675
 9459W        W28313   8.139   4.035  16.030  0.1193  0.0751  0.1053
 9460W        W28314  14.605   2.753  16.441  0.2211 -0.0093  0.0496
 9461W        W28315  16.178  11.507   1.049 -0.0263  0.0663 -0.0368
 9462W        W28316   3.372   1.526   3.985  0.1641  0.1265  0.3155
 9463W        W28317  16.383   7.354  13.985 -0.3334 -0.1124 -0.0081
 9464W        W28318   8.386  12.027   2.382 -0.1505 -0.1449  0.0156
 9465W        W28319  12.835  13.828   6.445 -0.1117 -0.1657 -0.0926
 9466W        W28320  12.920  15.754  13.146 -0.0126 -0.1496  0.0256
 9467W        W28321   3.007   9.020  12.142 -0.0539  0.5121 -0.0068
 9468W        W28322  11.182   7.044  13.982 -0.0568 -0.2256 -0.5857
 9469W        W28323  12.694  12.842   1.161  0.0144  0.1058  0.0840
 9470W        W28324  11.513   9.931  12.736 -0.0232  0.1938 -0.0217
 9471W        W28325  15.937  12.308  12.180 -0.0027 -0.3232 -0.0325
 9472W        W28326   9.005  15.906   1.442  0.0094  0.2164  0.0049
 9473W        W28327  16.506  11.391  12.095 -0.0406 -0.1001  0.2516
 9474W        W28328   3.917   5.565   4.738 -0.2386 -0.2211 -0.2022
 9475W        W28329   7.867   9.271   3.178  0.1892 -0.1884  0.2103
 9476W        W28330   5.747  16.695  13.667 -0.0613 -0.1406 -0.2243
 9477W        W28331   1.213  12.608   5.272  0.4446 -0.0468  0.1944
 9478W        W28332   9.951  15.789   2.573 -0.1009 -0.0882 -0.0440
 9479W        W28333  15.947   0.835   4.864 -0.0793 -0.0355 -0.1259
 9480W        W28334   0.537  16.605  13.201 -0.0184 -0.3497 -0.3224
 9481W        W28335  10.840   1.870   2.264 -0.0322  0.2430  0.2722
 9482W        W28336   6.533  10.212   4.828  0.1435  0.0024  0.0563
 9483W        W28337   3.826   9.995  14.254 -0.0243  0.2419  0.1116
 9484W        W28338  13.130   8.364   1.930 -0.2395  0.0696  0.2022
 9485W        W28339   4.809   6.543   1.299  0.2764 -0.1284  0.2709
 9486W        W28340   5.313   3.523  15.377  0.2459  0.1429 -0.0317
 9487W        W28341  16.104  12.314   5.031  0.0151  0.0148 -0.1282
 9488W        W28342   5.830  14.011   5.120 -0.0027  0.2847  0.1780
 9489W        W28343  12.685   7.118  13.748 -0.5134 -0.4123  0.2344
 9490W        W28344  12.327   0.053   5.511 -0.1539  0.0308 -0.1288
 9491W        W28345   7.406  12.025   2.646  0.2196 -0.2468  0.1522
 9492W        W28346  12.634  15.074   3.319 -0.0861  0.0339 -0.1844
 9493W        W28347  14.072   2.545   5.283  0.0043  0.1973 -0.0317
 9494W        W28348  12.315   3.975  17.078  0.2729 -0.0811  0.0752
 9495W        W28349  15.096  14.361   3.155  0.4079 -0.4332  0.0251
 9496W        W28350   5.652   3.870  15.143 -0.0731  0.1619  0.0614
 9497W        W28351   5.399  13.196  13.833  0.2491  0.0155  0.1576
 9498W        W28352   8.094   8.554   3.847 -0.0931 -0.0811 -0.2760
 9499W        W28353   3.959   1.549   4.687 -0.0581  0.0584 -0.1859
 9500W        W28354  14.021   9.791   3.077 -0.3904 -0.2490 -0.1273
 9501W        W28355   7.243   0.187  12.596  0.1957  0.3097 -0.0812
 9502W        W28356   1.934  11.884   5.561  0.0947  0.2904  0.1241
 9503W        W28357   6.864   6.704  16.795  0.3424  0.0335 -0.2358
 9504W        W28358  14.404   2.841  13.600  0.1347 -0.1186  0.2578
 9505W        W28359  12.473   4.308  12.459 -0.0215 -0.1169 -0.1273
 9506W        W28360   4.629   1.620  15.137  0.0255  0.0522 -0.0972
 9507W        W28361   9.750  14.758  13.925 -0.2782 -0.0205  0.2302
 9508W        W28362   1.110  16.746  13.570  0.0820 -0.1267 -0.1735
 9509W        W28363  15.792   1.193  12.676 -0.1982 -0.2480  0.0596
 9510W        W28364  11.751  14.510  16.622 -0.0877  0.2126 -0.3491
 9511W        W28365  16.407  11.747   3.453 -0.1774  0.1731  0.4670
 9512W        W28366   1.865  15.443  12.730 -0.1515  0.1350  0.1708
 9513W        W28367  10.232   4.442   4.809  0.2140 -0.1091  0.0534
 9514W        W28368   2.378   1.621  14.217  0.0787  0.2716 -0.2541
 9515W        W28369   0.816  17.029  13.219 -0.1953  0.0620 -0.0952
 9516W        W28370   0.165   5.120  13.114 -0.0117 -0.2130 -0.1513
 9517W        W28371   1.840   2.514  11.938  0.0818 -0.3143  0.0188
 9518W        W28372   7.129   1.848   4.708  0.0651  0.3238  0.1747
 9519W        W28373  17.096  17.318   5.141 -0.1160  0.0959 -0.1624
 9520W        W28374  16.103   8.676  13.639  0.0557  0.0494 -0.3906
 9521W        W28375  14.041  11.177   3.840 -0.0535  0.0787 -0.0630
 9522W        W28376  15.445   5.606  14.020  0.0302  0.1580  0.0139
 9523W        W28377  10.665   6.256  16.812 -0.2789  0.3132  0.0717
 9524W        W28378   4.003   3.813  15.234 -0.0285  0.1385  0.1677
 9525W        W28379   0.349   7.117  11.580 -0.0589  0.2024 -0.2747
 9526W        W28380   1.876   9.976  17.105  0.3969 -0.1082  0.1601
 9527W        W28381   4.898   6.859  13.653 -0.2147  0.3003 -0.3327
 9528W        W28382   4.680  16.304   3.514 -0.0361 -0.3881  0.0679
 9529W        W28383   1.112  11.111   2.983 -0.2135 -0.2212  0.1929
 9530W        W28384   0.393  14.102  16.490  0.0556  0.1367  0.0371
 9531W        W28385   1.013  14.098  13.285  0.0284 -0.2359 -0.0491
 9532W        W28386  13.280  13.309  12.530  0.2567  0.2150 -0.1591
 9533W        W28387  15.492   4.222   1.841 -0.1142 -0.1521 -0.3641
 9534W        W28388  12.668  10.010  15.211 -0.2463 -0.1138 -0.0889
 9535W        W28389   8.776  11.647   1.149 -0.1446  0.0093 -0.0890
 9536W        W28390   5.275   0.918  15.608 -0.0217 -0.1630 -0.1676
 9537W        W28391   2.264   4.721  12.093 -0.0885  0.2746 -0.0954
 9538W        W28392  13.808   4.669  15.211  0.1979 -0.2819 -0.1109
 9539W        W28393  16.544   3.983  16.734  0.4595  0.1103 -0.1791
 9540W        W28394   6.823  17.266  12.598 -0.1640 -0.1226  0.1286
 9541W        W28395   1.338   1.563   1.128 -0.3261 -0.0112 -0.0111
 9542W        W28396   6.275   3.789  15.546  0.1030  0.0121  0.1511
 9543W        W28397   3.133   8.903  16.693  0.0807 -0.0434 -0.0697
 9544W        W28398   7.044   5.119  13.304  0.4056 -0.0708  0.2034
 9545W        W28399   8.065   0.016  14.207 -0.0553 -0.2462 -0.0190
 9546W        W28400  16.050  12.245  15.518  0.1978  0.1280 -0.0860
 9547W        W28401  11.682   0.919  14.815  0.0195 -0.0468 -0.0171
 9548W        W28402  13.576   6.472  16.267 -0.1662 -0.0600 -0.0382
 9549W        W28403  13.298   3.149   2.041 -0.1640  0.0087 -0.0517
 9550W        W28404  16.877  13.156  16.095  0.1719  0.1431  0.1433
 9551W        W28405  10.845  12.872  16.347  0.2022 -0.0923 -0.2257
 9552W        W28406   6.150   2.355  15.056 -0.0177  0.0566 -0.0113
 9553W        W28407  12.220  10.371  15.239 -0.3335 -0.2046  0.1479
 9554W        W28408   9.513   5.843   1.049  0.0518  0.3329 -0.0972
 9555W        W28409  13.791   2.839   2.634  0.0215  0.1613 -0.2476
 9556W        W28410   7.318  10.388   0.979  0.2687  0.2534  0.1425
 9557W        W28411  15.077  14.014  14.303  0.1492  0.1497 -0.0352
 9558W        W28412   7.058   2.377   2.298 -0.0081 -0.0285 -0.3219
 9559W        W28413   8.874   5.568  13.937  0.1810  0.2396 -0.2271
 9560W        W28414  14.304   5.249   6.269 -0.1388  0.1103 -0.1365
 9561W        W28415   8.908  11.928  12.614  0.1670  0.0802  0.1804
 9562W        W28416  14.753  11.872   2.852 -0.2852  0.3754  0.1941
 9563W        W28417   5.762   9.396   3.476 -0.0705  0.1190 -0.1076
 9564W        W28418  14.353  13.221   5.497 -0.1003 -0.0616 -0.3162
 9565W        W28419   5.692   4.199  14.760 -0.1936  0.2968  0.3877
 9566W        W28420   0.845  10.902  16.826 -0.0836  0.1510  0.2214
 9567W        W28421   0.340   1.387   4.327 -0.0068 -0.2269 -0.2047
 9568W        W28422   2.742   3.298  17.008  0.0087 -0.0331  0.3153
 9569W        W28423   3.702   4.397  13.801  0.1375 -0.3436 -0.1266
 9570W        W28424   2.968   8.582   4.456 -0.1556  0.1693 -0.2551
 9571W        W28425  14.276  14.809   4.835  0.0598 -0.0372 -0.0612
 9572W        W28426   0.583   4.022   0.290  0.0684  0.3040 -0.0833
 9573W        W28427   6.784  16.182  15.496 -0.2998  0.1952 -0.2818
 9574W        W28428   1.053   7.733  14.502 -0.0070 -0.0201  0.5121
 9575W        W28429   8.950   1.284  15.150 -0.1174  0.1118  0.1365
 9576W        W28430  16.406   6.310  13.649  0.1527  0.0473  0.1772
 9577W        W28431   2.311  12.305   0.322  0.4308 -0.0620 -0.0877
 9578W        W28432  10.972   2.567  13.164  0.1643 -0.2552 -0.0393
 9579W        W28433  16.466  13.017   2.174  0.2630  0.0879  0.0424
 9580W        W28434  13.086  11.045  13.016  0.4837  0.1951 -0.1665
 9581W        W28435   4.215  15.052  16.818 -0.0278 -0.1363 -0.1953
 9582W        W28436   5.160   1.771  15.403 -0.0353 -0.0972 -0.0680
 9583W        W28437   7.725  15.663  14.130 -0.0749  0.2323  0.1725
 9584W        W28438   5.709   7.763  17.343  0.1343  0.2794 -0.1418
 9585W        W28439   3.975   6.434   2.019 -0.2311  0.3622  0.1223
 9586W        W28440   7.627   2.210   0.477 -0.0548  0.0436  0.2000
 9587W        W28441  13.989   0.648  16.584 -0.0259  0.1661 -0.0232
 9588W        W28442   9.064  17.232   2.537 -0.1602 -0.2510 -0.1295
 9589W        W28443   5.175  11.527   3.394 -0.1021  0.0027  0.0672
 9590W        W28444  14.952   2.128   3.240 -0.3625  0.0084 -0.1549
 9591W        W28445   2.350   4.191   2.324  0.0738 -0.0582 -0.0038
 9592W        W28446   5.749   9.760   2.663 -0.1890  0.1032 -0.0313
 9593W        W28447   8.129   2.550  13.515  0.2579 -0.1791  0.0794
 9594W        W28448   3.547   0.513  13.488 -0.2856 -0.1911 -0.1565
 9595W        W28449   5.142   2.067   1.968  0.1576 -0.4546 -0.0253
 9596W        W28450  12.046  15.177  13.776 -0.1685  0.1184 -0.1080
 9597W        W28451   8.240  15.534  16.945  0.1050 -0.1762  0.3390
 9598W        W28452   8.175   2.702   3.001  0.1530  0.2561 -0.0795
 9599W        W28453   7.835   9.794   4.654  0.2523 -0.2493 -0.2796
 9600W        W28454  11.497   6.004  16.731  0.0576 -0.1659  0.2905
 9601W        W28455   9.651  14.055  13.308 -0.0830 -0.0101 -0.0169
 9602W        W28456  14.429   3.722  16.831  0.1680  0.0511  0.1879
 9603W        W28457   9.055  10.834  14.241  0.1731 -0.2996  0.1997
 9604W        W28458  12.410  10.237  12.734  0.1133  0.2825  0.1684
 9605W        W28459  11.849  12.210   0.332 -0.0747  0.1047 -0.0732
 9606W        W28460   5.079   6.420   1.706 -0.3069  0.2898 -0.2778
 9607W        W28461   3.705   4.440   4.063  0.1676  0.0148 -0.3495
 9608W        W28462  16.921   7.136  13.738  0.0382  0.7220  0.0087
 9609W        W28463  16.616   6.837   5.178  0.2399 -0.0947 -0.1184
 9610W        W28464  15.855  16.698  14.668 -0.0785  0.1753  0.3298
 9611W        W28465  14.045   8.057  17.038 -0.2123  0.0613  0.1016
 9612W        W28466  12.438  14.079   1.660 -0.0236 -0.2164  0.2683
 9613W        W28467   0.613   6.830   3.970 -0.1459 -0.0465 -0.0886
 9614W        W28468  13.877  12.765   2.042 -0.0268  0.1434 -0.0212
 9615W        W28469   9.722   0.893   0.324  0.0940  0.0406 -0.3350
 9616W        W28470   4.542  16.089  13.779 -0.1659  0.0619  0.1071
 9617W        W28471   4.227  14.204  11.946 -0.0675  0.1437 -0.0212
 9618W        W28472   2.776   8.716  14.542  0.2080  0.2620 -0.1091
 9619W        W28473   2.271  10.922   1.131  0.1586  0.0054  0.0972
 9620W        W28474   0.525   2.071   6.191  0.1382  0.2537 -0.2078
 9621W        W28475  14.229   8.276   0.567  0.2284 -0.1390 -0.3339
 9622W        W28476  10.848   1.645  13.062  0.0376 -0.2604 -0.0362
 9623W        W28477   3.934  11.895  16.743 -0.0316  0.0766 -0.0241
 9624W        W28478  11.383   3.745   0.239  0.2105  0.2393 -0.0139
 9625W        W28479  17.195   1.416  12.910  0.3902 -0.0046  0.3107
 9626W        W28480  14.075  13.166   4.186  0.1402 -0.2534 -0.1406
 9627W        W28481  10.342   0.436  16.397 -0.3455  0.0915 -0.0495
 9628W        W28482   5.175  11.052   2.045 -0.1367 -0.1804  0.1043
 9629W        W28483   5.017   4.974   3.560 -0.0587  0.1568 -0.0566
 9630W        W28484   8.763   0.112  15.686  0.1711  0.2177 -0.0020
 9631W        W28485   9.479   1.692   1.987  0.1744 -0.1098  0.3115
 9632W        W28486   4.530  11.898  17.046  0.3177  0.1639 -0.0330
 9633W        W28487   4.420   8.791   1.748  0.0676 -0.0369 -0.3122
 9634W        W28488   5.411  11.128   1.603 -0.3922 -0.0424 -0.1761
 9635W        W28489   0.442  14.839  15.847  0.1930 -0.0442 -0.0805
 9636W        W28490  12.308   4.252  13.592 -0.0441  0.1308  0.0543
 9637W        W28491   9.963  11.965  15.558  0.1937 -0.2881 -0.1046
 9638W        W28492  15.190   8.717   4.617 -0.2675  0.0869  0.2611
 9639W        W28493   5.541   7.358  15.111 -0.0938 -0.1085 -0.1623
 9640W        W28494   6.967  13.583  15.186  0.0651  0.0827  0.0660
 9641W        W28495  13.106  14.005   0.827 -0.0094  0.2738 -0.1706
 9642W        W28496   5.184   5.962  14.748 -0.1564 -0.1745  0.2110
 9643W        W28497  13.009  10.424   1.194  0.1693  0.2973 -0.0061
 9644W        W28498   5.964   0.952   6.344  0.2656  0.1113  0.1511
 9645W        W28499   3.126  11.561  13.339 -0.3549 -0.2266  0.2265
 9646W        W28500  10.804   4.589  15.929 -0.2882  0.2496  0.2927
 9647W        W28501  10.909   2.753   2.884 -0.1137 -0.0786  0.0056
 9648W        W28502   4.042   8.084   1.545 -0.0621  0.0350  0.1647
 9649W        W28503  13.804   3.074  14.337 -0.0789  0.1429 -0.2426
 9650W        W28504   4.164  12.934   4.069  0.1334  0.1387 -0.2295
 9651W        W28505   0.587   6.305   2.236  0.0845 -0.1457  0.3634
 9652W        W28506  10.277   5.346  14.429 -0.0256 -0.0509  0.2059
 9653W        W28507   4.680   5.505   0.944  0.3662 -0.0075 -0.0389
 9654W        W28508   9.001   5.572  13.090 -0.0270  0.1175 -0.1428
 9655W        W28509  13.933  10.039  13.031  0.0820  0.0097  0.1910
 9656W        W28510  11.233  13.651   2.225  0.0561 -0.0403  0.2671
 9657W        W28511   9.303   4.207  13.200 -0.2836 -0.5072  0.0554
 9658W        W28512   9.111  12.409  14.871 -0.1840  0.1194  0.1842
 9659W        W28513  10.149   5.376   4.687 -0.1844 -0.0654 -0.0556
 9660W        W28514   7.403  11.337  16.631 -0.0746 -0.0496  0.2206
 9661W        W28515   9.737  12.753   4.857  0.1340 -0.1929 -0.0589
 9662W        W28516  15.050   3.270   2.940 -0.0184 -0.0534  0.1759
 9663W        W28517  16.077   7.270   3.802 -0.1121  0.1052  0.1110
 9664W        W28518  15.058   0.973  12.482 -0.1505 -0.1554  0.0035
 9665W        W28519   0.505   5.231  12.274  0.0346  0.2888  0.2021
 9666W        W28520   3.438  14.653  13.485 -0.1055  0.0025 -0.1367
 9667W        W28521   2.828  12.261   1.308  0.1275 -0.0030  0.1904
 9668W        W28522  10.227  16.174   2.289 -0.1272  0.1813  0.0930
 9669W        W28523   2.371   0.422  12.473  0.0547 -0.0941 -0.1767
 9670W        W28524   7.080   3.515   5.355 -0.0141  0.1031 -0.3913
 9671W        W28525   4.776   6.637  14.108  0.2141 -0.0308  0.2096
 9672W        W28526   3.006  10.981   1.469  0.2185  0.1144  0.2493
 9673W        W28527  12.708  16.446   0.495  0.1409 -0.0838 -0.0746
 9674W        W28528  11.660   2.870  16.342  0.0648  0.1181 -0.0833
 9675W        W28529  12.822   0.748   3.499  0.1425 -0.1540  0.0527
 9676W        W28530   7.318   3.135  14.477  0.1929 -0.1628 -0.0489
 9677W        W28531   3.423   7.832  14.795 -0.0263  0.0603  0.1153
 9678W        W28532  14.400   9.777   2.668 -0.4209  0.0815 -0.0165
 9679W        W28533  12.442   1.340  16.345  0.3357 -0.1875  0.3454
 9680W        W28534   9.283  13.655  13.452  0.0684  0.2451  0.1376
 9681W        W28535  10.763   9.463   1.201  0.2681  0.0546  0.3020
 9682W        W28536   3.082   9.076   3.334 -0.0268 -0.1802  0.2271
 9683W        W28537  16.572   2.271  13.226 -0.1738 -0.0571 -0.1672
 9684W        W28538  12.994   5.866   3.662 -0.3215  0.3996  0.0142
 9685W        W28539   4.353   9.417  13.609 -0.1434 -0.3615 -0.0907
 9686W        W28540   8.768  13.084  15.328  0.0233 -0.1236 -0.2240
 9687W        W28541  11.126  13.104  16.623 -0.4118  0.1747 -0.0515
 9688W        W28542   1.115  11.473   3.871 -0.2379 -0.1274 -0.3184
 9689W        W28543   6.679   8.355   4.612  0.0001  0.1865  0.4084
 9690W        W28544   6.193  11.098   2.556  0.0874 -0.2777 -0.1189
 9691W        W28545   0.859  13.006   0.563  0.2090  0.0359  0.1604
 9692W        W28546  10.513   2.090  15.103  0.0336 -0.0482 -0.0524
 9693W        W28547   7.772  14.641   1.420 -0.0586 -0.2731  0.0826
 9694W        W28548   0.238  16.566   3.385 -0.0354  0.4490  0.2189
 9695W        W28549   0.491   7.461  16.590  0.1410  0.0122 -0.1238
 9696W        W28550  10.199   2.757  16.199 -0.1515 -0.0412 -0.0838
 9697W        W28551   5.051   4.635  14.269  0.1949 -0.0599 -0.2140
 9698W        W28552  17.102  11.015   3.800 -0.1202 -0.0482 -0.0070
 9699W        W28553   1.735  13.714  14.660  0.1932  0.0215 -0.0460
 9700W        W28554  11.245  13.283  12.533  0.0904 -0.1326  0.0909
 9701W        W28555   3.448   5.954   0.930 -0.0409 -0.1254 -0.1067
 9702W        W28556   9.971  11.497  13.448  0.0700  0.0312 -0.0946
 9703W        W28557   9.164  13.960  13.863 -0.0999  0.2654  0.2627
 9704W        W28558   6.702   0.137  14.080  0.1996  0.0481  0.2555
 9705W        W28559   9.366  15.053   0.220 -0.0943  0.0056  0.0723
 9706W        W28560   0.975  15.719  14.988 -0.0575 -0.0026  0.1315
 9707W        W28561   6.752   3.490   4.345 -0.0176 -0.0491 -0.0057
 9708W        W28562   5.203  13.940   1.338  0.2267 -0.1965 -0.2835
 9709W        W28563   8.828  12.816  14.909 -0.0011 -0.1426  0.0314
 9710W        W28564   3.817   7.785   0.779  0.1741 -0.0042 -0.4093
 9711W        W28565   5.005   0.581   5.066 -0.5230  0.0100 -0.3537
 9712W        W28566  17.330   8.363   2.312  0.0589 -0.0840  0.1790
 9713W        W28567   4.900   5.073  13.730 -0.1647  0.2915  0.4441
 9714W        W28568  12.215  13.441  17.452 -0.0425 -0.0590 -0.1156
 9715W        W28569  13.833  10.291   5.260 -0.1956 -0.1025 -0.4452
 9716W        W28570  16.899  15.315   1.249 -0.1584 -0.4525  0.0741
 9717W        W28571  10.992  16.300   1.850 -0.0812  0.1724 -0.2271
 9718W        W28572  11.911   1.676  14.438  0.0220 -0.0942  0.3600
 9719W        W28573   2.122   3.391   4.200  0.4076  0.1780  0.0070
 9720W        W28574   4.173   4.242   5.113  0.1395 -0.3861 -0.1451
 9721W        W28575   2.955  13.388  13.123  0.0473  0.0438 -0.1662
 9722W        W28576   7.204  16.048  13.202 -0.4548 -0.1747 -0.2787
 9723W        W28577   6.912   3.807  17.046  0.1067  0.1069 -0.2773
 9724W        W28578   0.713  12.532  12.495 -0.0915 -0.3268 -0.1530
 9725W        W28579   1.368  11.900   2.659  0.2780 -0.1755  0.0550
 9726W        W28580  12.005  15.674  13.638 -0.0109 -0.0082 -0.3112
 9727W        W28581   2.770   2.352  12.656 -0.0237 -0.1537  0.0310
 9728W        W28582   9.290   9.779  14.056 -0.1312  0.0620  0.0560
 9729W        W28583   1.019  13.454  14.127 -0.0337  0.0164 -0.0578
 9730W        W28584  15.597   9.304  14.937  0.3023  0.2367 -0.0701
 9731W        W28585  12.172   2.412  12.525 -0.1236  0.0200 -0.1903
 9732W        W28586   8.079   2.904   1.751  0.1274 -0.2436  0.1537
 9733W        W28587  12.610  15.150  15.343 -0.2148 -0.1896  0.4265
 9734W        W28588   5.003  16.312   4.173 -0.0422 -0.1703  0.2208
 9735W        W28589   0.210   3.379  17.401 -0.0528 -0.5076 -0.2985
 9736W        W28590  13.596  16.273  13.451 -0.1527 -0.0719 -0.1591
 9737W        W28591   4.045   7.802  15.719  0.1403  0.1930  0.0533
 9738W        W28592   2.230   9.738  15.161 -0.0409 -0.1669  0.0566
 9739W        W28593  13.983   5.535   0.478 -0.1221  0.1085  0.0170
 9740W        W28594   6.112  15.751  16.720  0.4362 -0.0425 -0.2290
 9741W        W28595   0.972  12.342  13.362  0.1543 -0.0419  0.1757
 9742W        W28596   4.545  12.781   3.661  0.0243 -0.0459 -0.0928
 9743W        W28597   8.209  17.162   2.044 -0.2254  0.0144  0.4003
 9744W        W28598  13.909   9.150  15.890  0.2131 -0.1144  0.1245
 9745W        W28599  11.906  12.914  13.530  0.1476  0.2043 -0.1302
 9746W        W28600  13.484  13.161  13.016 -0.0741  0.0497  0.1076
 9747W        W28601   5.503  16.337  13.992 -0.0025  0.0494  0.2652
 9748W        W28602   1.409  15.408   1.107 -0.3244 -0.0278 -0.2231
 9749W        W28603  10.198   7.622   4.042 -0.2729  0.0052 -0.2715
 9750W        W28604  17.108  11.052   1.178 -0.4105 -0.1109 -0.1427
 9751W        W28605   9.461   7.099   3.562 -0.0440 -0.1390 -0.0235
 9752W        W28606   8.663  10.730  13.577 -0.1226  0.0288  0.1581
 9753W        W28607  17.333   4.227   2.603 -0.1980  0.0116 -0.0864
 9754W        W28608  11.702  12.649  16.859 -0.1496 -0.2819 -0.1108
 9755W        W28609  10.673   1.837   0.939  0.3687  0.2196 -0.2649
 9756W        W28610  11.162   9.750  13.694 -0.1291  0.1191  0.0470
 9757W        W28611  14.040   2.723   3.099 -0.2337 -0.0342  0.3244
 9758W        W28612   4.739  16.211  15.334 -0.1236  0.3084 -0.0343
 9759W        W28613  16.091   3.380   5.185 -0.0681  0.1081  0.0410
 9760W        W28614  12.286   7.759  16.693  0.2277  0.0648  0.2627
 9761W        W28615   5.829   0.704   0.425  0.0954 -0.0543 -0.0257
 9762W        W28616  12.502   1.107  13.201 -0.0260 -0.3200 -0.0646
 9763W        W28617  10.140   5.770  14.991 -0.2256 -0.6099 -0.0895
 9764W        W28618  12.058   5.972  14.653  0.4331 -0.1042  0.1316
 9765W        W28619   1.566   0.624   5.453  0.2460 -0.0362 -0.2970
 9766W        W28620   8.161  14.966   5.654  0.2029 -0.1699 -0.1563
 9767W        W28621   8.470  14.022   3.414  0.3154  0.0035 -0.1529
 9768W        W28622  15.752   4.669  14.951  0.0329 -0.0169 -0.1320
 9769W        W28623  14.454   5.372   3.898 -0.1789 -0.0915  0.1392
 9770W        W28624  14.118  11.939  14.516 -0.4293  0.1546  0.1382
 9771W        W28625  13.728   3.590  12.445 -0.3106 -0.1609  0.0785
 9772W        W28626  15.297   3.713  16.022  0.0863  0.0494  0.0439
 9773W        W28627  16.738  17.094   5.973 -0.0313  0.2380  0.1159
 9774W        W28628  13.582  14.357  14.236  0.0190 -0.0849 -0.3109
 9775W        W28629   1.308  10.937   0.118 -0.1598 -0.1201 -0.0969
 9776W        W28630   2.438  12.288  13.263 -0.1198  0.1771 -0.1737
 9777W        W28631   8.737  13.743   1.221  0.1022  0.1426  0.2036
 9778W        W28632   3.457   6.723  17.164  0.4818  0.0037 -0.0156
 9779W        W28633   9.090  13.420   0.177 -0.2134 -0.0248  0.0475
 9780W        W28634  15.980  17.016   2.587  0.2010  0.3529 -0.2099
 9781W        W28635  17.261   2.735  15.631 -0.3408  0.1288 -0.2128
 9782W        W28636   1.873  11.558   3.375  0.0555 -0.2285  0.1705
 9783W        W28637   7.566   2.116   1.454 -0.3613 -0.1076  0.1826
 9784W        W28638   3.845   5.803   0.183 -0.0743 -0.2628  0.1287
 9785W        W28639   9.027   7.438   4.158  0.2000 -0.0020 -0.0185
 9786W        W28640  17.071  13.212  14.004 -0.1812  0.0557  0.0518
 9787W        W28641  14.569   7.209  12.615  0.0845  0.2418 -0.1541
 9788W        W28642   3.657   1.380   2.058 -0.0019 -0.1254 -0.1838
 9789W        W28643   8.713   8.851   4.880 -0.2259  0.0489 -0.0314
 9790W        W28644   8.100   1.441   5.382 -0.0545 -0.2121  0.1430
 9791W        W28645   1.263   9.285   2.377 -0.1402  0.1027  0.1606
 9792W        W28646   6.435   9.826   2.040  0.1221 -0.1352 -0.0211
 9793W        W28647   1.363   6.740   0.562 -0.2255 -0.1204 -0.0078
 9794W        W28648   4.189   0.767  13.626  0.1557  0.3140  0.0377
 9795W        W28649   3.968  15.838  16.999 -0.0097  0.0369  0.1124
 9796W        W28650  14.331  15.545  13.479  0.0775 -0.1700 -0.0085
 9797W        W28651  12.536   6.365   1.592 -0.3486  0.1594 -0.1095
 9798W        W28652   9.516  16.377   0.602 -0.2730 -0.1997 -0.2963
 9799W        W28653   3.478   6.851   1.427  0.1562 -0.0962  0.1779
 9800W        W28654  15.039   1.632   3.051  0.2739  0.0536 -0.3869
 9801W        W28655  15.866  14.397  13.270  0.0919 -0.0218  0.1290
 9802W        W28656   9.733   3.199   4.586  0.0373  0.0653 -0.2456
 9803W        W28657  13.196  16.036  12.594  0.0658  0.3358 -0.5070
 9804W        W28658   1.581   5.799   0.311 -0.1070 -0.3424  0.2666
 9805W        W28659  17.168  11.341   2.043  0.0744 -0.0840 -0.0713
 9806W        W28660   6.963   1.055  14.018 -0.1430  0.0905  0.0164
 9807W        W28661  13.397  15.789  13.363 -0.0028 -0.0243  0.0573
 9808W        W28662  11.515   3.104   0.386  0.2516  0.0666  0.0903
 9809W        W28663  12.825   8.108  12.817 -0.3326 -0.3122 -0.1399
 9810W        W28664  13.124   6.419  17.355  0.2635  0.0551  0.0831
 9811W        W28665   8.172   3.998   0.548 -0.0906 -0.2057  0.1497
 9812W        W28666   4.039  14.365  13.110  0.0350  0.4117 -0.4278
 9813W        W28667  12.560   3.456  17.114 -0.2496  0.1159  0.1819
 9814W        W28668   0.324   2.859  13.725 -0.1036  0.2106  0.1617
 9815W        W28669  10.302   5.766   4.345  0.0824  0.0494  0.2259
 9816W        W28670  15.687  15.569  16.816 -0.0550 -0.0471  0.0227
 9817W        W28671   0.413  10.666  15.338 -0.0310  0.1513  0.3754
 9818W        W28672   3.315   6.656  12.020  0.1205  0.3576 -0.2260
 9819W        W28673   2.648  13.623   0.191  0.0269  0.3047 -0.0217
 9820W        W28674   0.513   9.060  12.993  0.1281  0.2844 -0.2428
 9821W        W28675   1.645   5.407  15.769  0.1883 -0.2084  0.0706
 9822W        W28676  11.159   9.578   3.691 -0.1798 -0.1770  0.2773
 9823W        W28677   8.878   7.086  17.220  0.1186  0.2286 -0.0749
 9824W        W28678   6.880  13.786  13.902 -0.2696  0.1783 -0.3094
 9825W        W28679   0.447   5.587   5.121  0.0591  0.0260 -0.0787
 9826W        W28680   5.348   5.298  15.394 -0.4972 -0.0829 -0.0819
 9827W        W28681   1.943   1.849   2.257  0.3246 -0.1748  0.0991
 9828W        W28682   8.343  13.824  13.577  0.1664  0.0060  0.0451
 9829W        W28683   4.217   1.636  14.250 -0.4286 -0.2488 -0.2239
 9830W        W28684  10.562  11.243   4.640 -0.1388  0.0622 -0.1725
 9831W        W28685   2.336  13.371  17.320 -0.1816  0.4396  0.2706
 9832W        W28686  12.102   9.279  13.722 -0.0956  0.4001  0.1722
 9833W        W28687   4.588   6.594  12.656 -0.0649 -0.1259 -0.0093
 9834W        W28688  14.642  16.696   3.183  0.0646 -0.2561 -0.1673
 9835W        W28689  13.775   0.180   0.496  0.0973 -0.0913 -0.0215
 9836W        W28690  15.173   4.038   0.163 -0.0679  0.0288 -0.0940
 9837W        W28691   3.346  16.877   1.532  0.0779 -0.0365 -0.2175
 9838W        W28692   1.321   7.920   4.400  0.1066 -0.0810 -0.2187
 9839W        W28693   6.953   8.758   3.120 -0.0585 -0.0474  0.0631
 9840W        W28694  13.950  14.217   2.497 -0.3988  0.0944  0.0392
 9841W        W28695  14.576  12.736   0.978 -0.0398 -0.0675 -0.4437
 9842W        W28696   9.623  12.738  13.123 -0.0554 -0.1755  0.1343
 9843W        W28697  12.216   0.865  16.929 -0.2225 -0.1293 -0.2745
 9844W        W28698   9.676  10.454  16.015  0.0189 -0.2128 -0.0049
 9845W        W28699   4.135   8.316   3.931  0.1106  0.1460  0.1857
 9846W        W28700   5.531   5.472  11.979 -0.1731 -0.1341 -0.2513
 9847W        W28701  10.905  13.536   3.614 -0.0315  0.0262  0.3179
 9848W        W28702   5.143   2.458  17.435  0.4431 -0.1527 -0.0196
 9849W        W28703   1.015  12.161  13.988  0.2437 -0.1103  0.0564
 9850W        W28704  14.002   1.463  15.352  0.1289  0.2009  0.0815
 9851W        W28705   5.896   8.096  13.872 -0.0232 -0.1820  0.1596
 9852W        W28706   9.457   7.995   3.067 -0.0573 -0.0237 -0.0359
 9853W        W28707  11.100   6.159   3.699  0.1314 -0.3733 -0.2524
 9854W        W28708   7.694   4.729   0.877 -0.3598 -0.0328  0.1308
 9855W        W28709   8.383   2.010  17.455  0.0865 -0.2335 -0.4468
 9856W        W28710   6.139   1.131  17.295  0.1812 -0.3086  0.0381
 9857W        W28711   8.994   5.004  15.701  0.3185 -0.0659 -0.1062
 9858W        W28712   5.138   3.025  15.695  0.2858  0.1486  0.0933
 9859W        W28713   4.949   9.419  16.884  0.0507 -0.0002 -0.4033
 9860W        W28714   4.440   7.210  12.826  0.1435  0.1951 -0.0724
 9861W        W28715  11.512   4.852  15.110  0.1671  0.3623 -0.0306
 9862W        W28716   4.093  15.278   3.618 -0.0547 -0.1282 -0.0608
 9863W        W28717   7.218  16.421  13.550 -0.1626 -0.4064  0.2697
 9864W        W28718   0.231   6.184   1.399  0.0505 -0.0336  0.1241
 9865W        W28719  11.663  12.899   1.061  0.1307 -0.1379  0.3560
 9866W        W28720  15.605  11.397   3.566  0.2132 -0.1552 -0.1983
 9867W        W28721   7.482   2.786  14.773 -0.1317 -0.1934  0.0382
 9868W        W28722  13.855  14.086   3.412 -0.0692 -0.0725 -0.0965
 9869W        W28723  15.824  14.146   2.973 -0.2512  0.2631 -0.1672
 9870W        W28724  16.215   9.459   4.930 -0.1774 -0.2432  0.3773
 9871W        W28725  10.171   9.361   3.934 -0.1681  0.3416  0.0131
 9872W        W28726  12.950   5.062   4.066  0.0251 -0.2093 -0.0647
 9873W        W28727   6.057   6.932   1.974 -0.0447  0.0907  0.2222
 9874W        W28728   3.386   3.412  15.721 -0.0703 -0.0170  0.0393
 9875W        W28729   4.841  12.793  17.188  0.1319 -0.0784  0.4057
 9876W        W28730  14.313   2.544  13.178  0.0489 -0.0157 -0.1909
 9877W        W28731   6.187  15.400   2.347  0.3567 -0.0334  0.1195
 9878W        W28732   3.585   1.388   0.920 -0.1528  0.0282  0.4782
 9879W        W28733  12.425  12.367   1.170 -0.1176  0.0398  0.0248
 9880W        W28734   2.963  10.906   2.518  0.2745  0.1374 -0.0928
 9881W        W28735   5.922   8.194   2.607 -0.0047 -0.0281 -0.2309
 9882W        W28736   8.835  14.988  14.228 -0.3243  0.2251 -0.0396
 9883W        W28737  17.393  12.096   3.146 -0.3376 -0.0982  0.0969
 9884W        W28738   5.166  12.384   2.259 -0.1023 -0.1807  0.0590
 9885W        W28739   6.478  11.115   4.383 -0.2936 -0.0359  0.0576
 9886W        W28740  10.680   0.098  17.407  0.0532 -0.1789  0.0275
 9887W        W28741  15.977  13.565  12.838 -0.1809 -0.1464 -0.0457
 9888W        W28742   7.942   6.252  15.427 -0.0270  0.0692  0.1570
 9889W        W28743   1.053  15.804   3.621  0.0232  0.1764 -0.5235
 9890W        W28744  14.746  10.970   3.261  0.2174  0.0913 -0.2067
 9891W        W28745   4.996  12.715  11.857  0.0716  0.3715 -0.2984
 9892W        W28746   5.343   4.791   4.610 -0.5164  0.0326 -0.1427
 9893W        W28747  14.563   2.340  15.778 -0.1700 -0.4499 -0.0527
 9894W        W28748   8.294  10.544   3.707  0.1607 -0.2869 -0.3606
 9895W        W28749   0.302   6.643   4.312  0.1276  0.0137  0.2835
 9896W        W28750  10.577   8.462  14.905  0.0092  0.1647  0.0805
 9897W        W28751   7.636  16.870   4.866 -0.0751 -0.1759  0.1003
 9898W        W28752   0.885   0.186  12.290 -0.3878  0.3758 -0.0483
 9899W        W28753   2.110   0.664  15.784  0.0498 -0.0301  0.1354
 9900W        W28754   9.364   7.233   5.353  0.1886  0.0946  0.0633
 9901W        W28755  13.978   9.956   0.654 -0.1366 -0.1815  0.2168
 9902W        W28756  16.433   3.428  16.899  0.0594  0.0078  0.1310
 9903W        W28757  13.386   9.749   5.315  0.0097 -0.2837  0.4922
 9904W        W28758  15.728   9.051   0.373  0.1914  0.0331  0.0505
 9905W        W28759   6.979  16.404  14.034 -0.1243 -0.0095 -0.0288
 9906W        W28760   8.693   9.573   3.247 -0.0670  0.0615 -0.1007
 9907W        W28761   0.840   5.250  16.422 -0.3420  0.2245 -0.0981
 9908W        W28762   6.360  14.390  17.464 -0.2154 -0.1979 -0.0489
 9909W        W28763   8.791  14.696   1.431 -0.0948  0.0722 -0.2067
 9910W        W28764   3.286   7.046   0.092 -0.0009  0.1210 -0.1576
 9911W        W28765   1.138   4.176   1.296  0.2850 -0.1423 -0.2282
 9912W        W28766   1.133   9.318   1.898 -0.1380 -0.1236 -0.2616
 9913W        W28767  14.456  15.557   1.847 -0.2835  0.2539 -0.3107
 9914W        W28768   6.788  14.963  15.857  0.0098 -0.2518 -0.0473
 9915W        W28769  16.617  14.639   0.461  0.0495 -0.2024  0.0751
 9916W        W28770   6.167   5.300  14.016  0.0487  0.2667  0.1206
 9917W        W28771   1.002   6.220  16.442 -0.1658  0.2028 -0.0340
 9918W        W28772  12.070   4.938   4.843 -0.1076 -0.0315 -0.1336
 9919W        W28773   5.596  12.824   0.393  0.0317 -0.0360  0.0576
 9920W        W28774   4.511   9.616  16.669  0.1151  0.0603 -0.0088
 9921W        W28775  11.743  13.630  14.645  0.1516  0.1235  0.0047
 9922W        W28776  10.321  17.188  17.455  0.1392 -0.0819 -0.0201
 9923W        W28777  11.733   1.652   4.661 -0.1812  0.1232 -0.1178
 9924W        W28778   4.371  14.964   2.419 -0.0571  0.0056  0.1236
 9925W        W28779  10.156   1.442  16.272 -0.0941 -0.1321 -0.0521
 9926W        W28780   3.086   3.974  14.480 -0.0357  0.0485 -0.2406
 9927W        W28781   5.304   1.008   0.582 -0.0681 -0.0079 -0.0934
 9928W        W28782   8.151  12.538  12.633 -0.2706  0.1046 -0.0129
 9929W        W28783  12.694   3.652  15.625 -0.0267 -0.2713 -0.1715
 9930W        W28784  14.567  12.876  13.321 -0.0728 -0.0841 -0.3241
 9931W        W28785   1.447  13.429  13.835  0.1798  0.0279 -0.1148
 9932W        W28786  17.071  16.622  13.836  0.6053 -0.0473 -0.1122
 9933W        W28787  11.317   6.820   4.742  0.0711 -0.3690  0.3799
 9934W        W28788   3.249  13.061  15.459  0.0989  0.1480  0.1491
 9935W        W28789  14.448  15.222  14.771  0.1864  0.0377  0.1505
 9936W        W28790  11.569   5.318  12.473  0.0408  0.1821  0.0857
 9937W        W28791  16.698   3.585   3.989 -0.1028 -0.0577  0.1285
 9938W        W28792   0.524   5.665   1.251 -0.1648  0.0435 -0.1559
 9939W        W28793   8.725   7.783  16.599  0.3403 -0.2542 -0.2310
 9940W        W28794  10.250  13.592   1.858  0.0384 -0.1466 -0.0976
 9941W        W28795  14.292  14.050  13.763 -0.2360  0.4133 -0.4194
 9942W        W28796  10.086  10.891  13.708  0.1470  0.0649  0.2099
 9943W        W28797   9.158   5.684  17.090 -0.1384  0.0654  0.0806
 9944W        W28798   4.029   4.619   1.504 -0.0513  0.0683 -0.1855
 9945W        W28799   3.257   2.818   4.514  0.1329  0.0500  0.0951
 9946W        W28800   0.048  12.160  16.628  0.0875  0.2677 -0.0711
 9947W        W28801   3.851   6.155  13.750 -0.0749  0.0531  0.1399
 9948W        W28802   7.246  10.405  13.208  0.1075 -0.1700 -0.2255
 9949W        W28803  14.090   4.371  14.262 -0.1523  0.1064  0.2302
 9950W        W28804   5.790   2.445  12.755 -0.1728  0.0318 -0.0221
 9951W        W28805  12.969   9.085  16.157  0.2806 -0.0478  0.1055
 9952W        W28806   4.325  16.127  13.347  0.4000 -0.0096 -0.1388
 9953W        W28807  16.288   0.219   3.249  0.2595 -0.1360 -0.0785
 9954W        W28808   1.132   9.924   2.894 -0.0027 -0.1249 -0.0942
 9955W        W28809  10.265  11.660  14.569 -0.2772  0.0432  0.0204
 9956W        W28810   8.215   2.408   0.242  0.1827 -0.1847 -0.0350
 9957W        W28811   9.537   3.068  13.309 -0.0798 -0.0303  0.0897
 9958W        W28812   2.682  16.412   0.785  0.1918  0.1143  0.0783
 9959W        W28813  12.736  17.008  14.484  0.2173  0.1075 -0.1992
 9960W        W28814  14.293   4.549   4.953  0.2068  0.0031 -0.0364
 9961W        W28815  15.561  13.937  14.149  0.2072 -0.2253 -0.0738
 9962W        W28816  13.214   2.511   3.375 -0.0685 -0.2097 -0.1397
 9963W        W28817  13.129   0.853   0.713 -0.1566 -0.3134  0.3025
 9964W        W28818  10.627   9.598   1.762  0.1478  0.0882  0.1511
 9965W        W28819   7.921  10.888  14.138  0.0802 -0.2585  0.2699
 9966W        W28820   0.261  15.930   0.313 -0.2400  0.1766  0.1921
 9967W        W28821   1.692  17.183  15.371  0.1586  0.0156  0.0000
 9968W        W28822  10.184   0.231   5.097 -0.0644  0.0999  0.1545
 9969W        W28823   3.372   8.614   1.552  0.1383  0.0788  0.0628
 9970W        W28824   3.428   0.346   4.087 -0.0596  0.1765  0.2273
 9971W        W28825  16.436   1.520   1.220 -0.1969 -0.0217 -0.2913
 9972W        W28826   9.737   6.282  15.888  0.1769  0.1455 -0.0634
 9973W        W28827  13.758  14.043   1.206  0.2368 -0.1170  0.2981
 9974W        W28828   9.990  12.461  11.904 -0.4521 -0.0084  0.1679
 9975W        W28829   1.601  11.279  13.154  0.0068  0.0449 -0.1845
 9976W        W28830   0.026   4.516  16.152 -0.3751  0.0267  0.0561
 9977W        W28831  17.283   7.554   2.984  0.1618 -0.1492  0.0529
 9978W        W28832  12.074  16.507   0.152  0.2853  0.0708 -0.0024
 9979W        W28833  15.605   1.798  16.988 -0.4780  0.0363 -0.1760
 9980W        W28834   1.130  14.035   4.495 -0.1562  0.1042  0.0302
 9981W        W28835   4.284   7.889   4.051 -0.0495 -0.1600 -0.1019
 9982W        W28836  16.622  11.246   1.750  0.4911 -0.0163  0.1277
 9983W        W28837  10.921   1.801  15.114 -0.2265  0.0638  0.3228
 9984W        W28838  12.746  12.535  12.737  0.0118 -0.0678 -0.1040
 9985W        W28839   0.436  13.881   5.004 -0.0366  0.3809  0.1839
 9986W        W28840   3.139  11.845   2.776  0.0274 -0.1186 -0.1625
 9987W        W28841   4.567  13.292   2.233 -0.0873  0.0085 -0.0928
 9988W        W28842   2.079   1.928  16.018 -0.0421 -0.1293  0.1633
 9989W        W28843  12.342   2.731   1.162  0.0540  0.0384  0.0723
 9990W        W28844  11.220  11.164   0.584 -0.0699 -0.1686 -0.2985
 9991W        W28845  13.721  10.390  12.705 -0.0571 -0.0834 -0.0601
 9992W        W28846   4.554   9.200   2.080 -0.0940 -0.0058  0.2255
 9993W        W28847  13.452  14.926   3.495 -0.2122 -0.1112  0.4230
 9994W        W28848   2.858   6.579   4.429 -0.1018  0.2301  0.1401
 9995W        W28849   1.672   2.679  15.522  0.0397 -0.2391  0.1350
 9996W        W28850  15.913  12.907  14.024  0.1954  0.0040  0.1483
 9997W        W28851   5.617   8.650   5.560  0.2131  0.2180  0.2977
 9998W        W28852   0.599  16.539  14.948  0.0851 -0.0920  0.2322
 9999W        W28853   2.771  15.367   1.101 -0.2021  0.0383  0.1978
10000W        W28854  16.030   4.527   3.866  0.0436 -0.1765 -0.2940
10001W        W28855   1.426   0.202  16.621  0.0690 -0.1268  0.2903
10002W        W28856   5.879  13.144   1.670  0.4085  0.3108  0.2217
10003W        W28857   7.323   1.806   2.203 -0.0798  0.1483  0.4422
10004W        W28858   4.524   7.493  16.345  0.0815 -0.0386  0.0274
10005W        W28859  12.210  16.521  13.065  0.4496 -0.2222  0.0606
10006W        W28860   9.662   5.889   2.174 -0.2614 -0.0341  0.0606
10007W        W28861  10.104  11.819   4.480 -0.1656  0.3911 -0.2922
10008W        W28862  12.670  13.573  14.598  0.1792 -0.0684 -0.0916
10009W        W28863  11.285  11.648  15.288  0.1938  0.3276 -0.2233
10010W        W28864   5.310   4.149  14.344 -0.1689 -0.3326 -0.0320
10011W        W28865   6.377  10.363  16.728 -0.0170 -0.0383 -0.1134
10012W        W28866  12.715   5.602  12.846  0.3010 -0.0909  0.2514
10013W        W28867   2.719   6.638  13.338  0.0730  0.1749  0.1463
10014W        W28868   2.012   7.231   5.074  0.1039 -0.0849  0.2213
10015W        W28869   4.945   1.498  17.434  0.2228 -0.2304  0.1498
10016W        W28870   8.805  16.155   4.042  0.0943 -0.0008 -0.0261
10017W        W28871  15.080  12.250   2.449  0.0363 -0.1569  0.0706
10018W        W28872   1.100   1.409  12.918 -0.1310 -0.0307 -0.1189
10019W        W28873   0.778  14.221   1.866 -0.0063  0.0385 -0.1124
10020W        W28874  15.562   1.055   1.648  0.1466  0.1776 -0.3035
10021W        W28875   0.229   6.053   5.028  0.0358 -0.1563 -0.0367
10022W        W28876  13.870   4.375  16.945  0.0587 -0.2109  0.1367
10023W        W28877   0.080   5.008   4.795 -0.0155 -0.0226 -0.1009
10024W        W28878   9.811  16.154   0.243  0.0421  0.1626  0.2208
10025W        W28879  16.118  11.594   4.390 -0.2014  0.1114 -0.1549
10026W        W28880  10.810   2.112   3.987  0.0190 -0.0719 -0.2567
10027W        W28881   8.394   6.399  13.135  0.0382 -0.0578  0.0623
10028W        W28882   5.564   5.410   1.275 -0.0214 -0.3172  0.1205
10029W        W28883   1.354   5.155  17.374 -0.2858 -0.0209  0.0081
10030W        W28884  15.825   6.323   2.142 -0.1176 -0.3730 -0.2619
10031W        W28885  12.668   5.070  15.389  0.1868  0.0209 -0.1977
10032W        W28886   5.818   0.721  13.028 -0.1568 -0.0876 -0.1301
10033W        W28887   2.742   6.335   0.523 -0.1069 -0.2241 -0.1334
10034W        W28888   8.659   7.239   2.056 -0.0522  0.0156 -0.3259
10035W        W28889  15.514  14.014   0.854  0.3365  0.1948  0.1332
10036W        W28890   1.140  16.530   4.228  0.0316 -0.1152  0.2822
10037W        W28891   3.955   8.231  16.514  0.1659  0.2111  0.2345
10038W        W28892   1.722   4.788  12.281 -0.0967 -0.1273  0.0065
10039W        W28893   7.874   0.238   4.551 -0.1750  0.0614  0.1043
10040W        W28894   4.323   6.261  13.497 -0.0641  0.1226  0.1440
10041W        W28895   3.478  12.595  16.845 -0.2997  0.1191 -0.1192
10042W        W28896   7.373   0.088   2.684 -0.0209  0.0785 -0.0297
10043W        W28897   3.994  13.401  17.249  0.1686  0.0792 -0.1936
10044W        W28898   1.164  12.873   0.946 -0.1938 -0.0417  0.1654
10045W        W28899   9.947  10.218   0.924 -0.1815  0.2058  0.0201
10046W        W28900  16.198  15.415  17.299  0.1983  0.2297  0.3734
10047W        W28901  12.897  16.376   5.090  0.3091  0.3536 -0.0179
10048W        W28902   7.799   1.811   2.865 -0.2825  0.0366 -0.0689
10049W        W28903   3.340   4.849   1.005 -0.1884  0.1384  0.2184
10050W        W28904   0.671   6.802   2.368 -0.1119  0.1031  0.1956
10051W        W28905  16.430   9.558   3.293  0.2551 -0.3267  0.2833
10052W        W28906   6.124  14.950   2.145 -0.1195  0.3911  0.0604
10053W        W28907  14.755   2.364  12.321  0.0829  0.0603  0.1995
10054W        W28908   7.840   0.165  12.319  0.1121 -0.0020 -0.0194
10055W        W28909  11.350  13.415   3.056  0.0737  0.1629 -0.0906
10056W        W28910  14.650  10.414  12.482 -0.0136 -0.3679 -0.3368
10057W        W28911  12.671   2.068   0.219  0.2898 -0.0287 -0.1971
10058W        W28912  10.353  10.879   4.919 -0.2519  0.2017  0.0819
10059W        W28913   1.180   3.899   4.505  0.1679  0.2451 -0.1311
10060W        W28914   4.144  11.551   5.062 -0.2028  0.2610  0.0387
10061W        W28915   3.817   9.353   0.395 -0.0704 -0.3673 -0.0051
10062W        W28916   5.173   9.042  14.104 -0.2372 -0.0670 -0.2267
10063W        W28917   1.647  12.256   3.416  0.0179 -0.0202 -0.0424
10064W        W28918   5.443   8.164  12.686 -0.1879  0.1139 -0.1624
10065W        W28919  16.806  14.139  16.564  0.1655  0.3284  0.0589
10066W        W28920   8.416  12.454   1.366 -0.1441 -0.2068  0.2096
10067W        W28921   9.943  15.914   4.756  0.2197 -0.1238  0.1529
10068W        W28922  12.334   4.595   3.646  0.0966  0.0279 -0.3298
10069W        W28923   0.502   0.064   1.439  0.0188 -0.2386 -0.1437
10070W        W28924  10.468   0.172   3.927 -0.1094  0.4001  0.4160
10071W        W28925   7.006   3.382   0.890  0.0698 -0.2197 -0.0637
10072W        W28926   8.776  11.309  12.648  0.1507  0.1073  0.1884
10073W        W28927   2.737   4.823  12.963 -0.2886  0.2098  0.0535
10074W        W28928  14.403  15.330  13.914 -0.0491 -0.0965 -0.0134
10075W        W28929  13.034   4.707  17.279 -0.2501 -0.2580  0.2242
10076W        W28930   6.323   4.505   3.926  0.0205 -0.1451 -0.4234
10077W        W28931  14.125  14.403   5.899 -0.0042  0.1076 -0.2084
10078W        W28932   5.149   2.237  13.604 -0.0661  0.0809  0.2000
10079W        W28933   8.833   7.507  15.422  0.0116 -0.1839  0.1878
10080W        W28934  17.299   1.327  13.425 -0.1090  0.1382  0.0994
10081W        W28935   5.066  16.494  12.623 -0.2318 -0.0780  0.0355
10082W        W28936  16.889   6.028   3.555  0.0969 -0.0849 -0.2023
10083W        W28937   1.944   1.006  14.991  0.1042 -0.1243 -0.1779
10084W        W28938  12.952  13.929  14.335 -0.5405  0.2419  0.0452
10085W        W28939   8.332  10.397  17.060  0.2802 -0.0816  0.2539
10086W        W28940   9.076   3.654  16.993 -0.4305 -0.1988 -0.1551
10087W        W28941   4.671   5.813   2.462 -0.1174 -0.1600 -0.0701
10088W        W28942   4.695   5.933  14.731 -0.2012 -0.1403  0.2400
10089W        W28943   4.147   0.290   4.849 -0.0177 -0.0336  0.0765
10090W        W28944   2.612   8.373   0.220 -0.0142  0.4959  0.1695
10091W        W28945   4.180  12.161  12.661 -0.2420  0.1005 -0.0691
10092W        W28946   8.663  10.294   2.765  0.1969  0.0002  0.0291
10093W        W28947  14.444   5.449   0.354  0.0740  0.0494 -0.1355
10094W        W28948   6.043   6.707  12.815 -0.1127  0.0590 -0.0606
10095W        W28949  10.931  14.575  16.266 -0.0893  0.1601  0.1543
10096W        W28950  11.952  12.806  12.591  0.1531 -0.0794 -0.2209
10097W        W28951   6.740  15.449   3.562  0.2748  0.0252 -0.0337
10098W        W28952  14.393  13.853   1.864  0.1849 -0.0813  0.4020
10099W        W28953  11.081   0.554   0.112  0.1453 -0.0510 -0.2353
10100W        W28954   3.103  16.188  14.222 -0.1410  0.0977  0.1527
10101W        W28955   4.124  16.242   4.647  0.1187 -0.1389  0.1538
10102W        W28956  14.397  13.398   2.023 -0.1438  0.5079 -0.0934
10103W        W28957  14.900   2.702   5.261  0.0384  0.3672 -0.2072
10104W        W28958   9.931   6.478  14.617  0.0542  0.0096 -0.0694
10105W        W28959   0.236   9.582   4.113 -0.0009 -0.0710 -0.0092
10106W        W28960  15.005   6.775   4.649  0.1217 -0.1030 -0.0014
10107W        W28961  14.692  15.156   3.154 -0.1887  0.2720  0.2238
10108W        W28962   4.726   0.867   3.602  0.1376  0.1339 -0.0100
10109W        W28963   1.304   3.768   1.002  0.0475 -0.0763  0.0246
10110W        W28964  14.815  12.256   0.935 -0.2048 -0.2069 -0.2490
10111W        W28965   8.826  10.208  15.928  0.1204  0.0195 -0.2374
10112W        W28966   4.790  10.844  13.218  0.1204 -0.0802 -0.3999
10113W        W28967  16.061   1.319   3.829  0.0395 -0.2200  0.2922
10114W        W28968   0.205   9.060  14.435  0.1611  0.1867  0.1741
10115W        W28969  16.546   6.234  16.463 -0.2546 -0.1368 -0.2197
10116W        W28970   9.875   9.009  13.866 -0.2012 -0.1567 -0.0150
10117W        W28971   3.980  12.019  16.245 -0.1594 -0.0094  0.1620
10118W        W28972   7.255   2.050   5.181  0.2269  0.2412 -0.1214
10119W        W28973   3.016  16.339   0.224 -0.0277 -0.0018  0.1753
10120W        W28974  12.250   8.943   4.154  0.2952 -0.0634 -0.0384
10121W        W28975  12.861  14.536   1.538  0.1994 -0.2611  0.3130
10122W        W28976  13.831  14.590   4.919  0.3881  0.1168  0.0176
10123W        W28977  13.576  13.457  15.657  0.6295 -0.1301  0.1413
10124W        W28978   9.098   9.983  17.361  0.1921 -0.4482 -0.2039
10125W        W28979  17.171  14.699  16.742  0.1507  0.2012  0.1778
10126W        W28980   7.441   9.575   3.019  0.5731 -0.0162  0.1688
10127W        W28981  11.890   8.490  15.316  0.0512  0.1685  0.1327
10128W        W28982   9.148  15.930   0.064  0.0919  0.1406 -0.0653
10129W        W28983  13.061  17.306  12.492  0.0167  0.1492  0.0239
10130W        W28984  11.385   3.555  15.315 -0.1761  0.1243  0.0843
10131W        W28985   9.326  13.492   1.552  0.2376  0.0347 -0.1740
10132W        W28986  10.812  16.989   0.737  0.0077  0.0961 -0.1049
10133W        W28987   7.342   4.157   1.698 -0.0443  0.0159 -0.2998
10134W        W28988  14.135  13.647   5.348  0.1261  0.0554  0.4097
10135W        W28989  12.066  16.993  13.990  0.0153 -0.1955  0.0872
10136W        W28990   4.363   0.748  11.956 -0.4319 -0.1252 -0.1488
10137W        W28991   5.561  11.839  13.342 -0.2321 -0.2418  0.0790
10138W        W28992  16.763   3.852   1.289 -0.0981  0.1690 -0.0645
10139W        W28993   4.629   4.151  13.193 -0.2943  0.1914 -0.1274
10140W        W28994  16.832  11.682   1.954  0.2808 -0.0417  0.0506
10141W        W28995   0.047   6.726   5.227  0.0048 -0.2705 -0.3631
10142W        W28996  15.365  12.893   4.157  0.1383 -0.0183 -0.0977
10143W        W28997  13.047  13.771   2.864  0.1681  0.3867 -0.2965
10144W        W28998   1.342   4.999   1.195 -0.3126  0.1489  0.1879
10145W        W28999   1.449  14.319  15.268  0.0681  0.4436  0.0209
10146W        W29000   1.023  12.977   4.934  0.2409  0.0044  0.1784
10147W        W29001  13.252  15.290  16.089 -0.2680 -0.0077  0.1344
10148W        W29002  15.881   8.788  14.088  0.0708 -0.0538 -0.1763
10149W        W29003  15.970   6.985   2.432  0.4171  0.1118 -0.2744
10150W        W29004  15.100   8.828   3.177  0.0011 -0.1890 -0.2590
10151W        W29005  14.541  14.228   1.020 -0.1498 -0.3030 -0.1369
10152W        W29006   1.828   3.845   5.298  0.0450  0.2395 -0.2850
10153W        W29007   6.649  11.496   4.806 -0.0446  0.1644 -0.0004
10154W        W29008   4.610   0.181   5.005  0.1896 -0.0094  0.0799
10155W        W29009   5.639  15.806  15.001  0.0614 -0.2017 -0.2948
10156W        W29010  17.391  15.078  15.850  0.1551  0.4271 -0.1119
10157W        W29011   9.568  15.415  14.663 -0.2109 -0.0501 -0.1299
10158W        W29012   1.863   6.767   0.478  0.1418 -0.1937 -0.0815
10159W        W29013   3.778   2.822   3.095 -0.4460 -0.0052 -0.2290
10160W        W29014   5.567  15.780  15.871  0.0714 -0.1132 -0.0958
10161W        W29015   8.290   8.505  14.417 -0.2396 -0.0191  0.0829
10162W        W29016   2.894   5.072  13.729  0.0956 -0.1759  0.0268
10163W        W29017  16.062  14.829   3.248  0.0953  0.2824  0.0815
10164W        W29018  10.061   6.874  17.274  0.4263 -0.4689 -0.0201
10165W        W29019   0.451  13.481   2.929 -0.4389 -0.1572  0.0615
10166W        W29020  16.113   8.048  16.816 -0.0900 -0.0475  0.1889
10167W        W29021   0.886   7.116   3.255 -0.0971  0.0739 -0.2398
10168W        W29022   4.424   6.687  13.701 -0.2463 -0.0811 -0.0033
10169W        W29023   2.410  14.422   0.599  0.1423  0.0666  0.1209
10170W        W29024   0.567  12.798  14.474 -0.0628  0.1118  0.3063
10171W        W29025   3.841   2.168  16.919 -0.0213  0.1048  0.1831
10172W        W29026  13.513   5.280  12.397 -0.1256 -0.0166  0.3059
10173W        W29027  10.508   6.959   3.507 -0.2345 -0.1177 -0.0735
10174W        W29028  15.372   0.282  12.298  0.0351 -0.1792 -0.1586
10175W        W29029   7.259  11.822  14.979 -0.1420 -0.1565  0.0347
10176W        W29030  16.107  10.143   1.595  0.1303  0.2896 -0.1439
10177W        W29031  15.000   2.525   3.724  0.3176  0.0654 -0.0827
10178W        W29032  14.070   4.288  17.409  0.0457 -0.3080  0.2015
10179W        W29033   6.846  10.885   4.590 -0.1426  0.0431 -0.0493
10180W        W29034  10.908   8.303   0.612 -0.0383  0.0394  0.0494
10181W        W29035   9.304   9.254  14.919  0.3375 -0.1731 -0.0344
10182W        W29036  13.014   0.550   1.457 -0.1573  0.3674  0.1916
10183W        W29037   4.256   7.243   3.887 -0.0388 -0.3344  0.0231
10184W        W29038   4.336   4.229   3.468  0.0792 -0.1106 -0.0453
10185W        W29039   6.404  10.784   0.784 -0.1722  0.1211  0.1418
10186W        W29040   7.610   7.764  17.107  0.1296  0.1824 -0.1115
10187W        W29041  16.396   7.247  13.523 -0.2042  0.0379 -0.2003
10188W        W29042  15.874  12.192   1.981 -0.4436 -0.2262 -0.1512
10189W        W29043   1.022  11.014   3.983 -0.2329  0.0229 -0.1426
10190W        W29044  11.004  12.398   4.997 -0.0249  0.1809  0.0269
10191W        W29045   3.223  17.276   1.173 -0.2652  0.2848 -0.2047
10192W        W29046   6.096  10.830  15.404  0.1479  0.0439 -0.0983
10193W        W29047   8.285   0.861  13.851  0.2525 -0.1240 -0.0737
10194W        W29048  16.396   6.964  14.876  0.0095 -0.1619 -0.2204
10195W        W29049  15.492   1.606   3.318 -0.0648 -0.0561  0.0165
10196W        W29050   1.880  17.206   0.572  0.0196 -0.2892 -0.1969
10197W        W29051   8.127   6.761   5.065  0.0605 -0.0929  0.2047
10198W        W29052  16.772   1.574   0.438 -0.1805 -0.0364 -0.4017
10199W        W29053   1.365  11.966   1.299 -0.1740 -0.1447  0.0046
10200W        W29054  14.091   4.875   3.165  0.0809 -0.1715 -0.0828
10201W        W29055   2.515   2.506   0.419 -0.0912 -0.2475 -0.3535
10202W        W29056   7.819  14.275   6.544 -0.0972 -0.2921 -0.0740
10203W        W29057   9.407  13.158  13.353  0.2615 -0.2448  0.0063
10204W        W29058   5.583   9.202   1.245 -0.1747 -0.1465  0.0519
10205W        W29059  15.156  13.908  13.580  0.0129  0.1672 -0.1586
10206W        W29060  13.695   0.963   2.626 -0.2205 -0.1249 -0.0360
10207W        W29061   8.816  11.798   3.891 -0.1800 -0.4034 -0.4793
10208W        W29062  15.490   3.705   4.534 -0.0692 -0.0263  0.2357
10209W        W29063   9.919   6.687  13.720  0.0845  0.0296 -0.5891
10210W        W29064   4.666  12.027  12.923 -0.0434 -0.4294 -0.0202
10211W        W29065  17.401  15.305  16.743 -0.3707 -0.1342  0.0163
10212W        W29066  10.026   7.759   0.450 -0.0358  0.2208 -0.2872
10213W        W29067  11.851   9.379   0.875 -0.3405 -0.0172  0.0507
10214W        W29068  10.070   7.740  13.866  0.0676 -0.0039  0.1582
10215W        W29069  16.310   2.488   4.119 -0.5294  0.0260  0.0126
10216W        W29070   4.050  12.934   5.004  0.4270  0.2933 -0.1408
10217W        W29071   0.804   2.865  13.321 -0.2889  0.0638  0.1707
10218W        W29072  10.203  14.569   4.898 -0.0966  0.4568  0.0429
10219W        W29073   2.111   6.347  13.882 -0.0559  0.0116  0.1305
10220W        W29074  11.667   9.504  13.622  0.1379 -0.0915  0.1366
10221W        W29075   4.566  16.527   1.995 -0.0778 -0.0202  0.0400
10222W        W29076  15.105   5.601   1.333  0.1396  0.1941 -0.1035
10223W        W29077   9.730   2.159  11.896 -0.2015 -0.0637  0.1978
10224W        W29078  14.662  11.205   1.599 -0.1668  0.1198 -0.0679
10225W        W29079   8.893   4.797   5.097 -0.0308  0.1390  0.0944
10226W        W29080   6.264   8.236   1.464  0.0772  0.3740 -0.2153
10227W        W29081   3.361  14.752  12.438 -0.0185 -0.3722  0.0302
10228W        W29082   2.615  10.696  17.050 -0.0743 -0.2172  0.0077
10229W        W29083  15.241   7.676  15.539  0.1169  0.0179 -0.1786
10230W        W29084   2.596  17.212   3.214  0.2511 -0.2599 -0.3013
10231W        W29085  15.312  13.471   4.735  0.2729 -0.1707  0.0141
10232W        W29086  10.501   4.611  12.944 -0.0454  0.2511  0.2224
10233W        W29087  12.038   0.940  12.823  0.0242 -0.1674 -0.2710
10234W        W29088  10.959  15.253  12.634 -0.1063 -0.0039  0.3271
10235W        W29089   3.291   4.482   3.745 -0.0869 -0.5092  0.1041
10236W        W29090  16.746  12.717  12.060  0.0586  0.2530 -0.0489
10237W        W29091  17.185   7.114  16.352  0.1563 -0.1859  0.3048
10238W        W29092   3.426   9.533   2.090  0.3673  0.0755  0.1240
10239W        W29093   0.216   6.183   4.198  0.0413  0.1882  0.0585
10240W        W29094   8.915   8.311  12.547  0.0146 -0.1438  0.1822
10241W        W29095   1.617   3.589  16.912  0.0651 -0.2608 -0.2002
10242W        W29096   6.829  11.612   4.118  0.3330  0.1802  0.2195
10243W        W29097   2.022  12.127  15.069 -0.0290  0.1696 -0.3243
10244W        W29098  14.045   6.230   1.388 -0.0636  0.1651  0.1315
10245W        W29099  16.243  16.778   1.122  0.3715 -0.0763  0.3692
10246W        W29100   4.266   6.448   1.109  0.1711 -0.0801  0.1128
10247W        W29101  15.655   2.146   1.546 -0.0849  0.4681 -0.3103
10248W        W29102   6.946   9.307   2.894 -0.2687 -0.0596  0.0047
10249W        W29103   1.182   3.345  16.741  0.1301  0.2351 -0.0013
10250W        W29104   4.247   1.828  16.501  0.1447 -0.4886 -0.1759
10251W        W29105   7.262  13.773  14.389 -0.0183  0.1378  0.1281
10252W        W29106  12.572  16.602  17.485  0.1592 -0.0778  0.0789
10253W        W29107   0.323  10.336  14.429  0.0504 -0.0502 -0.0155
10254W        W29108  13.999  13.045   1.599 -0.1247 -0.1400 -0.2292
10255W        W29109   8.986  12.152   4.399 -0.4092 -0.1369  0.1974
10256W        W29110  11.380   8.681  16.550  0.2332 -0.3736  0.1144
10257W        W29111   8.377   6.729   0.197  0.2034  0.0110 -0.0254
10258W        W29112   6.672   5.297  13.921 -0.0559 -0.1161 -0.0979
10259W        W29113  10.913   5.826  12.475 -0.2110  0.0553 -0.1531
10260W        W29114   2.801  10.217  17.058  0.0008  0.1507 -0.3862
10261W        W29115  12.269   2.199   1.408 -0.0488  0.0888 -0.3479
10262W        W29116   8.791  12.851   4.006 -0.2791 -0.0090 -0.1064
10263W        W29117   0.656   1.131  17.264 -0.0242 -0.1263 -0.1023
10264W        W29118   5.685   4.930   3.660 -0.3203  0.1775 -0.2657
10265W        W29119  13.123  16.423   4.275 -0.0950  0.1356  0.2131
10266W        W29120  12.916   9.063  13.989  0.1439  0.1245  0.2174
10267W        W29121  14.250   4.408   3.493 -0.5349 -0.3824  0.1559
10268W        W29122  14.809  12.723   4.294  0.1142  0.1287  0.1724
10269W        W29123   6.357   6.954  13.126  0.0354  0.3034 -0.2927
10270W        W29124  16.005  10.316  12.979  0.0563  0.1752  0.3346
10271W        W29125  15.339   1.759   0.018 -0.0808 -0.0277 -0.2640
10272W        W29126   9.444  16.836   5.042  0.0729  0.2344 -0.3346
10273W        W29127   1.434  14.381   4.776 -0.1970 -0.1779  0.0800
10274W        W29128  15.990   4.449   5.026  0.1060  0.0586 -0.0703
10275W        W29129   5.548   6.630   5.004 -0.4517  0.1142  0.1567
10276W        W29130   9.290   0.531   0.648  0.1458 -0.1574  0.2325
10277W        W29131  15.128   0.227  15.223 -0.1167 -0.2216 -0.2674
10278W        W29132   3.939   6.033  17.216  0.4257  0.2498  0.0242
10279W        W29133   2.186  13.577   1.161 -0.0699 -0.2735  0.2152
10280W        W29134   2.975  14.407   0.469 -0.0720  0.1136 -0.2054
10281W        W29135  13.288  17.296  15.371  0.3487  0.0609 -0.0760
10282W        W29136   0.603  16.590   1.960  0.1706 -0.2905  0.0336
10283W        W29137   8.480   9.120  16.146 -0.2374  0.0767 -0.0190
10284W        W29138   3.089  15.132   0.801 -0.2798  0.2663 -0.4772
10285W        W29139   0.604  15.382   0.172  0.3296 -0.1673 -0.1115
10286W        W29140  14.925   6.210   0.141  0.0986 -0.0786  0.1933
10287W        W29141   5.641   3.805   5.011  0.3385 -0.0384 -0.1500
10288W        W29142  10.974   4.948   2.711  0.1745  0.1411  0.0805
10289W        W29143  17.019   9.169  15.022  0.1195 -0.0404 -0.2580
10290W        W29144   6.273   5.901   4.645 -0.4958  0.2267  0.1720
10291W        W29145  13.262  14.722  15.825 -0.0388 -0.0163  0.1579
10292W        W29146  13.424   5.842   2.415 -0.2014  0.0107 -0.0572
10293W        W29147  12.184   7.230   3.032  0.0184  0.1524  0.0224
10294W        W29148  13.259  15.211   0.266  0.0474  0.1169 -0.0426
10295W        W29149   5.365  15.754  12.093 -0.0033 -0.2165 -0.2192
10296W        W29150   5.058   8.420  16.279 -0.2057 -0.0327  0.0679
10297W        W29151   8.804  15.112   2.956  0.1508  0.1645 -0.0503
10298W        W29152   1.813  15.484   1.790  0.0327 -0.1800  0.0460
10299W        W29153   6.060  16.308   3.372  0.1844 -0.1462 -0.1805
10300W        W29154   1.966   5.245  14.693 -0.2291  0.0713  0.2302
10301W        W29155  14.199   4.605   0.314 -0.1271  0.3759  0.2843
10302W        W29156   8.053  12.916  16.864 -0.0372  0.1746 -0.1092
10303W        W29157   3.809  12.396   5.289  0.1838 -0.2410 -0.2026
10304W        W29158  13.424   4.196   0.346  0.0168  0.0702 -0.0369
10305W        W29159   3.523   5.285   2.122  0.0595  0.2778 -0.1607
10306W        W29160   9.587  13.148   3.422  0.1823 -0.0111 -0.1575
10307W        W29161  11.979  12.377   4.131  0.0385  0.3885  0.0043
10308W        W29162   1.855  12.341   0.609  0.2014  0.1049 -0.0347
10309W        W29163   7.911   0.298  17.390 -0.2770 -0.1221 -0.0003
10310W        W29164   1.624   0.377   3.872 -0.0199 -0.1361 -0.1867
10311W        W29165  13.959  15.753  15.194 -0.2327 -0.0019  0.1261
10312W        W29166   7.746  13.806  13.381 -0.0100  0.1120 -0.0907
10313W        W29167  13.235   7.183   5.101 -0.1586  0.3066 -0.0730
10314W        W29168   4.414   7.537  15.013 -0.0355 -0.2688 -0.4119
10315W        W29169  13.125   5.503  13.137 -0.0152  0.0534  0.0750
10316W        W29170  14.435   0.156   3.206 -0.2049 -0.3178 -0.1044
10317W        W29171  15.850  10.765  15.440  0.1388 -0.0838 -0.2253
10318W        W29172   6.574  12.360   5.500  0.0698  0.0599  0.0627
10319W        W29173   8.165   3.927  15.573  0.1859 -0.0163  0.3329
10320W        W29174   6.565  16.016  12.919 -0.1618  0.0869  0.2939
10321W        W29175  12.460  16.119   1.485  0.0306  0.0080  0.1055
10322W        W29176   0.840  17.123  14.178  0.2225 -0.1009  0.0319
10323W        W29177   6.493  14.930  16.697 -0.0712 -0.0094  0.0570
10324W        W29178   9.663   1.603   2.995 -0.1107 -0.0495 -0.1133
10325W        W29179  17.200   9.276  14.252  0.1620 -0.0684  0.0601
10326W        W29180  11.347  12.258   3.893 -0.2045  0.2755 -0.0570
10327W        W29181   1.248  17.116   1.854 -0.2318  0.2240 -0.2607
10328W        W29182  11.548   5.470  15.917  0.0721  0.0253 -0.2532
10329W        W29183  12.954  10.015   5.120 -0.0606  0.2595 -0.1029
10330W        W29184   4.402  10.906   0.766 -0.0433  0.0706  0.1672
10331W        W29185  13.356   9.482  14.071  0.1639 -0.0446  0.3066
10332W        W29186   6.676  15.174  15.399 -0.0020 -0.0802  0.0599
10333W        W29187   3.013  10.836  13.902 -0.2243 -0.2380 -0.3593
10334W        W29188   3.186   5.574   3.570 -0.1329 -0.1088  0.1168
10335W        W29189   5.421   5.671  15.997 -0.0703 -0.2196  0.2115
10336W        W29190   0.165   4.405   1.561  0.0510 -0.0826 -0.0943
10337W        W29191   0.654   6.293  16.874  0.0132  0.2414 -0.2874
10338W        W29192   4.307  15.075   0.400 -0.0168  0.1384 -0.0653
10339W        W29193  16.968   5.148  15.706  0.3365  0.0310  0.0678
10340W        W29194  10.045   6.334   2.166  0.0145 -0.4409 -0.0690
10341W        W29195   3.100   4.681  12.471  0.2565 -0.1351 -0.0976
10342W        W29196  12.305   5.097   5.258  0.1594 -0.1059 -0.0442
10343W        W29197   4.154  12.944  15.851 -0.2190 -0.1164  0.0663
10344W        W29198   0.777  10.751   2.998  0.0880 -0.2747  0.0611
10345W        W29199  11.637   8.594   4.913 -0.0305  0.1710 -0.1240
10346W        W29200  11.592   5.021  14.083 -0.2101  0.0800 -0.0267
10347W        W29201   7.612   1.603  13.754  0.0563  0.0083 -0.1159
10348W        W29202   9.951  16.515   4.024 -0.2218  0.2923  0.1791
10349W        W29203  15.592   4.502   0.683 -0.0570  0.0859  0.2320
10350W        W29204  14.214   4.957   3.652 -0.0176  0.1355 -0.2791
10351W        W29205  10.359   3.377   5.228 -0.1354  0.1985  0.1619
10352W        W29206  14.577   9.420  14.501  0.7916 -0.1941  0.2658
10353W        W29207   1.689   4.841   2.229  0.1562  0.1188 -0.0505
10354W        W29208  13.793   2.277  14.802 -0.1440  0.0454 -0.0660
10355W        W29209  10.232   3.408  15.651 -0.1072  0.0918 -0.1665
10356W        W29210   8.504   0.489   3.662  0.1929  0.0705  0.1291
10357W        W29211  11.022  10.633  13.567 -0.0229  0.0797 -0.0910
10358W        W29212   2.540   8.998  13.776 -0.1112 -0.1312 -0.4071
10359W        W29213   2.405  15.495  12.915  0.0457  0.0377 -0.1120
10360W        W29214  14.517   8.337  13.939  0.1506  0.2574 -0.1384
10361W        W29215   9.100  10.015  12.964 -0.2569 -0.2225 -0.2282
10362W        W29216   2.600   4.559  14.253 -0.0247 -0.1689  0.2603
10363W        W29217  15.898  13.893  15.906  0.2331 -0.1567 -0.1431
10364W        W29218   4.251   9.939   3.209 -0.0175 -0.1640  0.2411
10365W        W29219   2.364  17.067   0.375 -0.2971  0.0725  0.2440
10366W        W29220   8.271  13.697   5.214  0.0607 -0.3788 -0.4106
10367W        W29221   5.703  15.734  14.533 -0.2955  0.1982 -0.0820
10368W        W29222  14.782  10.340  12.984  0.1673 -0.1160  0.1773
10369W        W29223  12.068  15.294   6.289 -0.0453  0.2880  0.1630
10370W        W29224   5.081   8.464  17.074 -0.0314  0.1911  0.1493
10371W        W29225  14.831   1.874  14.381 -0.2023 -0.0911 -0.0199
10372W        W29226  10.433   8.434   0.695 -0.1656 -0.1694 -0.3673
10373W        W29227   4.715   1.012   3.100  0.0506  0.1359  0.2437
10374W        W29228   2.747   6.081   1.396  0.0395 -0.3580  0.1842
10375W        W29229  14.563  16.317  13.002 -0.0538  0.0973  0.0419
10376W        W29230   8.719   6.474  17.396 -0.3263 -0.1147  0.0276
10377W        W29231   5.032   5.696   0.340  0.0798 -0.1052 -0.1978
10378W        W29232  15.953   4.200  15.938 -0.2489  0.0449  0.0889
10379W        W29233   2.831   7.476   3.467 -0.1374 -0.2816  0.3188
10380W        W29234   1.817   9.315  12.792 -0.0887  0.0363  0.1684
10381W        W29235   9.819  13.970  12.796  0.0580 -0.1956  0.2115
10382W        W29236   6.763  14.688   5.087  0.1220  0.0232  0.0576
10383W        W29237   9.586   3.653  13.889 -0.1943  0.0272 -0.1582
10384W        W29238  16.435  10.557   4.168  0.1172  0.0328  0.1751
10385W        W29239  13.992  13.660  15.803  0.4204 -0.0562 -0.1810
10386W        W29240  17.239   0.543  13.009 -0.0538  0.0698 -0.1700
10387W        W29241   3.834   1.096   1.264  0.1277 -0.1019  0.2446
10388W        W29242   3.970  17.383  14.764 -0.0414  0.2582 -0.0486
10389W        W29243  16.368   2.576   4.635  0.2057 -0.0972 -0.2218
10390W        W29244   3.090  11.426  17.181  0.2798  0.2886  0.1133
10391W        W29245  10.513  13.589  13.186 -0.0813 -0.2555 -0.2220
10392W        W29246   4.241  15.309   2.122  0.0766  0.0876 -0.1956
10393W        W29247   4.819  14.657  15.160  0.2223 -0.4101  0.2652
10394W        W29248  10.357  13.403  15.816  0.1416  0.1779 -0.1443
10395W        W29249  16.657   2.843   1.102  0.0960 -0.2358  0.0895
10396W        W29250   2.522   2.590  13.078  0.0550 -0.0860  0.2473
10397W        W29251   1.783  15.115  15.755  0.0137 -0.0323 -0.0008
10398W        W29252   2.287   7.895   3.637  0.1287  0.2271  0.3254
10399W        W29253  17.008  14.195   2.498 -0.2543  0.0527  0.0741
10400W        W29254   6.184   6.823  13.659  0.0332 -0.6106  0.0621
10401W        W29255   4.378  16.996   0.472 -0.0067  0.1469  0.0926
10402W        W29256  10.146   7.822  16.014  0.0756 -0.1284  0.1782
10403W        W29257   2.893   4.527  15.599  0.1212 -0.0848 -0.1764
10404W        W29258  14.417   7.892   5.207  0.2756  0.1659 -0.0198
10405W        W29259  12.983   8.368   4.249 -0.2064  0.0677  0.0143
10406W        W29260  16.427   3.073  12.917  0.1496 -0.2704 -0.0995
10407W        W29261  14.657   5.980  12.995  0.1737 -0.2268 -0.0881
10408W        W29262   8.117  16.130  17.174 -0.2630 -0.0628 -0.1817
10409W        W29263   0.485  14.072  15.114 -0.3013  0.0463 -0.1313
10410W        W29264  15.224  12.692  17.084 -0.0964 -0.0089  0.1365
10411W        W29265   5.765   3.866  12.851 -0.2296  0.2720 -0.1335
10412W        W29266  13.072   4.464   5.476  0.1156  0.1576 -0.1550
10413W        W29267   1.918   2.065  11.797 -0.1704  0.0018  0.1823
10414W        W29268   2.455  17.240  13.147  0.1158 -0.1180  0.3297
10415W        W29269  10.879   7.346  16.329  0.0514 -0.4815 -0.1400
10416W        W29270   7.078   7.760  16.605 -0.1596 -0.0584 -0.1602
10417W        W29271   9.631  13.526  12.980 -0.1642  0.1833  0.1510
10418W        W29272   4.150   1.780  14.722  0.0606 -0.1096  0.3182
10419W        W29273  16.057  16.174   4.183  0.0521 -0.2153  0.2062
10420W        W29274   7.061   6.516   2.918  0.1173  0.1039  0.2080
10421W        W29275   2.797  12.851  15.913  0.0234 -0.1320  0.2294
10422W        W29276   3.747   6.486  14.951 -0.2200 -0.2783  0.3410
10423W        W29277   4.071  10.512  12.165  0.2577  0.4126  0.0114
10424W        W29278   4.676   3.100  13.764  0.1142 -0.4422  0.2545
10425W        W29279  12.993  13.627   5.165  0.0835 -0.3396  0.0991
10426W        W29280  14.747   4.982  17.156  0.1325  0.1170  0.0662
10427W        W29281   3.458   0.814   3.854 -0.1369  0.2499  0.2123
10428W        W29282  13.401   4.378  12.523  0.2255 -0.0047  0.0065
10429W        W29283  14.951  12.414  15.793 -0.2339 -0.0044 -0.3474
10430W        W29284   8.598   8.510   0.406  0.1928 -0.4377 -0.1525
10431W        W29285  15.102   8.942  15.712 -0.1023  0.2149  0.2147
10432W        W29286   9.639  14.813   3.372  0.3480 -0.4166 -0.3511
10433W        W29287   9.980   5.207  16.178  0.3029 -0.2472 -0.0985
10434W        W29288  16.384   4.326   4.224  0.1401 -0.0134 -0.1340
10435W        W29289   1.180  11.788  15.461 -0.0651  0.1324 -0.1563
10436W        W29290  14.042   2.376  15.639  0.0882  0.0554 -0.0674
10437W        W29291  13.726   9.851  14.045  0.0114 -0.0234  0.0470
10438W        W29292   2.612   7.716  16.368  0.0104 -0.0528  0.1295
10439W        W29293   4.311   9.389   4.000 -0.4546 -0.2199  0.2166
10440W        W29294  10.801   1.235   1.146 -0.2054 -0.0492 -0.3303
10441W        W29295   1.931   0.636   1.287 -0.0342 -0.1252  0.3502
10442W        W29296   1.203   9.759  12.336  0.5339 -0.0449 -0.0549
10443W        W29297   8.524  11.229  15.199 -0.0416 -0.0140 -0.0867
10444W        W29298  15.865   1.110   0.184 -0.0413  0.3817  0.0584
10445W        W29299  11.635  12.106   1.287 -0.0511  0.3069  0.3765
10446W        W29300   2.068  13.517   0.213 -0.0623  0.1498 -0.0583
10447W        W29301   1.031   2.123  16.570  0.1275  0.2098  0.1671
10448W        W29302   8.980   4.226  16.552 -0.1386  0.0619  0.2104
10449W        W29303   2.965  13.586   0.640  0.0008  0.1222  0.2325
10450W        W29304   7.007  10.002   4.605  0.1328  0.0991  0.0180
10451W        W29305  11.142   3.888  13.264  0.1891  0.1214  0.0137
10452W        W29306  13.882  16.812  17.214  0.0282 -0.2120 -0.1002
10453W        W29307  16.993   7.307   3.369 -0.2139 -0.0829 -0.0544
10454W        W29308   0.430   7.418   4.633 -0.0539  0.0245 -0.0934
10455W        W29309   1.403  12.930  15.705 -0.2912 -0.1958 -0.0693
10456W        W29310   2.660   5.099   5.194 -0.1132 -0.0425  0.0801
10457W        W29311  15.016   9.052  13.095 -0.0204 -0.1648  0.4789
10458W        W29312   1.578   8.808  16.853  0.0218  0.0677  0.1731
10459W        W29313  13.384  11.852   1.507  0.1518 -0.0465  0.0930
10460W        W29314  14.389   8.797  13.745  0.1361  0.3737 -0.0917
10461W        W29315   8.188  10.126  14.376  0.0298 -0.0106  0.1681
10462W        W29316   0.414  16.464   0.084 -0.2205  0.0286  0.1605
10463W        W29317   9.471  15.705  15.976 -0.2651  0.0994  0.1135
10464W        W29318  16.894   5.198   1.190 -0.0404 -0.0155  0.2852
10465W        W29319  11.277   2.251   0.162 -0.0639 -0.0910  0.2090
10466W        W29320  14.686   3.583  12.478 -0.0365  0.0317  0.0069
10467W        W29321   8.640  15.373  15.081 -0.0289 -0.0053 -0.0939
10468W        W29322  11.164   0.171   2.970 -0.2373 -0.3703 -0.2266
10469W        W29323  17.036   0.961  16.307  0.0745  0.0606  0.3088
10470W        W29324  16.026  16.907  16.456 -0.1785  0.0199  0.0380
10471W        W29325   2.368   2.497  13.932  0.0109  0.1138 -0.0410
10472W        W29326  16.289   1.939   0.349  0.0030 -0.0282 -0.1632
10473W        W29327   3.027   4.722  17.162  0.3218  0.2792  0.1426
10474W        W29328  16.637  15.771   2.487 -0.0546  0.0802  0.2402
10475W        W29329  15.139   6.487   2.320 -0.2815 -0.0556  0.1561
10476W        W29330  12.069  10.254   4.640 -0.1528 -0.0644 -0.1477
10477W        W29331   1.281  13.079  17.313 -0.0374  0.0012 -0.0620
10478W        W29332   4.406  13.543  14.810  0.2423  0.2217 -0.3722
10479W        W29333   8.781   4.197  15.987 -0.1998  0.2267 -0.0289
10480W        W29334   2.169   1.378  15.200 -0.1452 -0.1080 -0.1038
10481W        W29335  13.364   0.364  15.109  0.0441  0.1196  0.0236
10482W        W29336  13.474   2.914   1.184  0.2462  0.0836 -0.2712
10483W        W29337  10.818   6.243  17.295 -0.1132  0.0811 -0.0273
10484W        W29338   0.228   5.735   4.566 -0.1851 -0.1762  0.0019
10485W        W29339   9.218  10.332   5.095  0.0192  0.0290  0.2137
10486W        W29340  10.197  11.366  13.885  0.0459  0.0724 -0.1858
10487W        W29341  16.112  11.339   3.090  0.2315 -0.0185  0.1862
10488W        W29342  11.917   3.980  13.736 -0.0444 -0.3143 -0.1607
10489W        W29343  15.974  14.179  16.260 -0.4336 -0.0230  0.2588
10490W        W29344  11.961   2.067   2.068  0.1900 -0.1271 -0.4426
10491W        W29345   6.013  11.415   1.751 -0.2337  0.1381 -0.4493
10492W        W29346   3.460   5.305   1.493  0.1566  0.1143 -0.2934
10493W        W29347   9.009  15.856  15.869  0.0544  0.0387  0.0252
10494W        W29348   5.030   0.727  16.030  0.1624 -0.2895 -0.3206
10495W        W29349   4.968   5.405  16.265 -0.4120  0.1334  0.3090
10496W        W29350  17.200  14.171   1.958 -0.2013  0.0684  0.0625
10497W        W29351  14.901   4.608  12.124  0.1811  0.0185 -0.1433
10498W        W29352   0.963   8.674   1.335 -0.0559  0.0192 -0.3244
10499W        W29353  15.771   5.815   0.949 -0.2135  0.0579  0.0713
10500W        W29354  10.259   5.271   4.118 -0.1609  0.1997 -0.0177
10501W        W29355   2.814  10.241  11.888  0.2408  0.1726 -0.2245
10502W        W29356   3.612  13.105   2.665  0.1769 -0.2073  0.1108
10503W        W29357   4.106   8.834   3.069 -0.1397 -0.0436 -0.0718
10504W        W29358   8.287  12.528  13.181  0.3407 -0.2918 -0.1247
10505W        W29359   6.298  10.323  14.455  0.0212 -0.3427  0.0316
10506W        W29360  11.445   8.008  12.783 -0.1547 -0.0812  0.0686
10507W        W29361  14.468   0.872  14.864  0.0401  0.2566 -0.1347
10508W        W29362   6.914  16.166  16.453 -0.0082  0.1868 -0.3146
10509W        W29363  12.293  11.536   2.753 -0.1582  0.0247  0.1381
10510W        W29364  12.372   4.317  14.064 -0.1372  0.0125 -0.1027
10511W        W29365   6.133   4.056  16.019  0.0397  0.2109 -0.0106
10512W        W29366   0.984   0.000  16.470  0.0190  0.1404  0.0693
10513W        W29367   0.726   8.976   1.656  0.1005 -0.0674  0.1339
10514W        W29368   2.484  10.718   3.435  0.2578  0.3530 -0.0493
10515W        W29369  11.931  10.177  14.864  0.1260 -0.0772  0.2689
10516W        W29370   7.256  15.598  14.466 -0.0175 -0.2762 -0.0063
10517W        W29371   6.184   6.827   3.183  0.2724  0.0804  0.0717
10518W        W29372   9.269   8.623  16.549 -0.1499 -0.2115  0.0838
10519W        W29373  11.685  13.267  14.315 -0.4462  0.1825 -0.3909
10520W        W29374   5.588  10.794   1.905 -0.0398  0.2507 -0.0916
10521W        W29375   6.877   2.632   1.123  0.0999  0.1458 -0.0190
10522W        W29376   9.149  10.575   4.667  0.0381  0.1057  0.1024
10523W        W29377   8.390  14.440  15.464 -0.0833  0.2801  0.2858
10524W        W29378  11.376   0.880   4.169  0.0934  0.2891 -0.0946
10525W        W29379  14.379  16.684  17.270 -0.1732 -0.1145 -0.1399
10526W        W29380  14.877  11.205   5.678 -0.0385 -0.0381 -0.0491
10527W        W29381  12.618  13.357  16.452 -0.1843  0.0521 -0.3093
10528W        W29382  13.211   2.063   5.082 -0.3528 -0.0901  0.0854
10529W        W29383   2.020   3.833  12.508  0.0505  0.1381  0.1629
10530W        W29384   4.292  12.026   4.183  0.0234 -0.1756  0.0688
10531W        W29385   3.588  14.534  14.199  0.3209 -0.3137  0.0904
10532W        W29386   9.299  14.631  12.521 -0.0189  0.3157  0.0187
10533W        W29387   0.584  14.520  14.295 -0.2229  0.0375  0.0747
10534W        W29388   3.676   5.097   4.916 -0.1237  0.0685  0.0333
10535W        W29389  10.473   6.203  14.739 -0.0966 -0.0900  0.1177
10536W        W29390   1.227  13.158  14.908 -0.0388  0.4003  0.2426
10537W        W29391  11.492   0.937   0.134 -0.3030  0.0660 -0.1422
10538W        W29392   3.062   9.715  15.696 -0.1258  0.1899  0.3487
10539W        W29393   2.348  17.259  14.446  0.2270  0.1488 -0.0002
10540W        W29394  14.696  17.220  14.077 -0.2304  0.3776 -0.0277
10541W        W29395  17.237  12.749   1.377 -0.1558 -0.0320  0.2401
10542W        W29396  13.305   1.353  13.644  0.3472 -0.0736 -0.0039
10543W        W29397   9.572   4.347  12.469  0.0373  0.2554  0.1958
10544W        W29398  16.183   1.465   0.325 -0.2074  0.1070  0.2261
10545W        W29399   6.412  14.788  13.925  0.3371 -0.1047  0.1262
10546W        W29400   9.689   1.737  14.420 -0.2729  0.0801 -0.0376
10547W        W29401  16.498   0.022   4.552  0.0694 -0.1487 -0.0270
10548W        W29402   5.180  13.050   3.934  0.2167  0.1686  0.0003
10549W        W29403   8.008  17.323  16.416  0.4627 -0.0541  0.4138
10550W        W29404   5.528   6.903   2.029 -0.1418 -0.1902 -0.2421
10551W        W29405   5.477   3.361  15.851  0.2361 -0.0695 -0.1311
10552W        W29406   1.379   1.866   3.803 -0.1248  0.1981  0.2423
10553W        W29407   7.154  12.121  13.983 -0.0979  0.0168 -0.0522
10554W        W29408   1.045  11.287  13.376  0.0267 -0.0916  0.3722
10555W        W29409  16.673   4.201   0.874  0.0980  0.0419  0.1438
10556W        W29410  15.350   0.946  14.647  0.3485  0.0670  0.1971
10557W        W29411  13.255  14.694  14.027  0.1184 -0.2051  0.0518
10558W        W29412  10.743  15.650   1.045  0.0525 -0.1535 -0.0280
10559W        W29413  15.683   9.822   1.595 -0.1487 -0.0566  0.3607
10560W        W29414  16.123   4.448  14.460 -0.0331  0.0985  0.1770
10561W        W29415  16.635  13.078  14.288 -0.0956  0.1586 -0.1841
10562W        W29416   5.819  16.452  17.369 -0.0312  0.3352  0.0148
10563W        W29417   1.090   5.565   1.473 -0.0002 -0.0703 -0.1516
10564W        W29418   0.393   3.842   5.311 -0.0092 -0.1030  0.0948
10565W        W29419  14.476   8.499  12.486  0.1082  0.0093 -0.1605
10566W        W29420   9.915  11.350   2.868  0.1437 -0.0039  0.0798
10567W        W29421   0.707  14.690   5.600 -0.0294 -0.2280  0.0694
10568W        W29422  12.158   7.445   1.555  0.2897  0.0865 -0.2051
10569W        W29423   9.960   0.434  13.793 -0.0659 -0.0115  0.2390
10570W        W29424  13.669   2.133   0.870 -0.0416 -0.0060 -0.0640
10571W        W29425  11.713   1.861   3.869  0.2660 -0.2099 -0.0807
10572W        W29426  14.510  10.639   4.453  0.0322  0.2202 -0.0638
10573W        W29427  13.138   7.914   4.619  0.3440  0.0081 -0.1230
10574W        W29428   2.147   4.284  12.289 -0.0711  0.1736 -0.1586
10575W        W29429   1.298   6.524  12.446 -0.3419  0.1045  0.4705
10576W        W29430  16.195   3.490  13.785 -0.1037  0.1510  0.1102
10577W        W29431  11.211   6.302  15.512 -0.3222  0.0879  0.2589
10578W        W29432   8.233  15.771   0.376 -0.0879 -0.0959  0.6527
10579W        W29433   4.954  15.597  13.790  0.1065 -0.2574  0.0105
10580W        W29434  14.342   7.813  15.845  0.1554  0.0567  0.3465
10581W        W29435   3.300   5.763   2.305 -0.0703  0.0927 -0.4394
10582W        W29436  10.798  12.966   3.764 -0.0280  0.1819 -0.0991
10583W        W29437  17.090   3.051   0.051 -0.0684 -0.1314  0.0800
10584W        W29438   6.428  13.946  16.944  0.0784  0.1542  0.2470
10585W        W29439  14.244  12.576   2.335  0.0818  0.1930  0.0033
10586W        W29440  12.252  15.997   3.188 -0.2623  0.0442  0.0061
10587W        W29441  12.847   6.184   1.928  0.1568 -0.2885 -0.0385
10588W        W29442   7.723   0.469   1.154  0.1252 -0.2053 -0.1899
10589W        W29443  12.810  11.440   2.871  0.1333 -0.0863 -0.1198
10590W        W29444   6.085   6.613  15.536  0.4471 -0.1336 -0.3184
10591W        W29445   3.482   1.794   0.405 -0.1387  0.0511 -0.0742
10592W        W29446  15.890   4.514   3.369  0.1424  0.1879 -0.0800
10593W        W29447   6.499   2.158  17.149  0.4118 -0.0676  0.3578
10594W        W29448  16.981  11.762   6.345  0.1071  0.0094 -0.0332
10595W        W29449  13.814   7.573  14.453 -0.1331 -0.0924 -0.0995
10596W        W29450   1.112   4.517  17.012 -0.1408 -0.0285  0.0377
10597W        W29451   8.221   4.943  11.132 -0.2265 -0.1095 -0.1953
10598W        W29452   0.040  17.066   2.580 -0.0106 -0.0255  0.0679
10599W        W29453  11.179  14.324  13.089 -0.0827 -0.0226  0.0856
10600W        W29454  16.033   0.461  15.282 -0.0917  0.1348 -0.1237
10601W        W29455   4.490   4.191  15.054  0.1342  0.4201  0.1087
10602W        W29456  17.143  11.476   3.471  0.2378 -0.3538 -0.0553
10603W        W29457   0.883   6.299   0.228 -0.0575 -0.0746 -0.0409
10604W        W29458  10.854   0.261   1.941 -0.3681  0.1174 -0.1835
10605W        W29459  11.491   8.091   2.485 -0.1973  0.2018 -0.0933
10606W        W29460  16.929   2.349  12.859  0.0362  0.2297 -0.2164
10607W        W29461   3.037   4.286   4.727 -0.0157 -0.0608 -0.0206
10608W        W29462  11.579  14.833   4.738  0.0305 -0.1431 -0.0371
10609W        W29463  13.804  13.894  14.250  0.1619 -0.1591 -0.0389
10610W        W29464   5.042   1.523  11.314  0.0390 -0.0919  0.2246
10611W        W29465  15.774   6.709   5.323 -0.0115 -0.3509  0.1073
10612W        W29466   7.538   0.491   3.104 -0.0004  0.0158 -0.1410
10613W        W29467   2.388   2.579   1.186  0.0241 -0.3259 -0.0377
10614W        W29468   4.940   4.369   0.961  0.2313 -0.0778 -0.1420
10615W        W29469  15.442  11.413   2.342 -0.0615 -0.0368  0.0134
10616W        W29470  15.501  16.967  16.621  0.0611  0.0495 -0.1208
10617W        W29471   5.929   2.562   2.904 -0.0230  0.3175  0.0643
10618W        W29472  14.184   2.107  15.100  0.3445 -0.0674  0.1018
10619W        W29473  10.838   8.017  13.495 -0.0406  0.0744  0.1041
10620W        W29474  15.792  13.412  14.501  0.3165 -0.1430  0.1621
10621W        W29475  12.265   7.324   3.579 -0.2972  0.0780  0.0473
10622W        W29476  14.732   7.671  12.864 -0.4122 -0.5342 -0.1927
10623W        W29477   4.125   2.352   3.361  0.4127  0.0890  0.1352
10624W        W29478   7.275   4.858  17.388  0.2045  0.0256 -0.0796
10625W        W29479  17.089   0.364  16.311 -0.1027 -0.0742 -0.0750
10626W        W29480   8.315   7.271   4.361 -0.0644  0.2192 -0.1661
10627W        W29481   6.497   2.481   4.899  0.0275 -0.1084  0.2803
10628W        W29482  11.652   7.452   0.927  0.0217  0.3565 -0.3735
10629W        W29483   5.901   9.403   2.988  0.0084 -0.0655  0.1144
10630W        W29484   7.487   3.643  14.327 -0.0914 -0.0010 -0.2223
10631W        W29485   6.279   4.374   2.442 -0.0707 -0.0072 -0.0037
10632W        W29486  17.079   1.726   2.556  0.0525  0.0177 -0.2330
10633W        W29487  14.892   3.798  15.277  0.0292  0.0642  0.0766
10634W        W29488  14.656  14.571   3.134  0.3616 -0.1356 -0.0772
10635W        W29489  12.278  14.289  13.882  0.1038 -0.1561 -0.1250
10636W        W29490  11.098   8.049  12.289 -0.2664 -0.0443 -0.1364
10637W        W29491  11.196  11.669  14.080 -0.0604 -0.4341  0.0397
10638W        W29492  16.411   2.416   2.088  0.2042 -0.0165 -0.0157
10639W        W29493   4.072   9.790  15.459  0.1996  0.2476  0.0954
10640W        W29494  11.211   2.944  16.515 -0.1362  0.0702  0.2941
10641W        W29495   6.241   5.136   4.016  0.1041  0.2678  0.2340
10642W        W29496  14.858   0.719   4.030  0.0345 -0.1045  0.1071
10643W        W29497  16.883  16.820   5.133  0.0350 -0.0970  0.0067
10644W        W29498  15.976   4.718  12.590  0.0035 -0.2708  0.2247
10645W        W29499  12.788   0.119  17.131  0.0587  0.0568 -0.0016
10646W        W29500   2.283   3.900  14.695 -0.0061  0.0709 -0.0511
10647W        W29501   8.555   4.423  16.369  0.2191  0.2094  0.0220
10648W        W29502   6.148   5.298  12.887 -0.2070 -0.2106 -0.0376
10649W        W29503   3.735   0.476  14.535 -0.2206 -0.1212  0.1795
10650W        W29504  13.033   4.340  15.053 -0.0406 -0.0932 -0.0860
10651W        W29505  12.137   1.490  15.444  0.0657 -0.1068  0.3328
10652W        W29506  16.656   6.231  13.192 -0.0068  0.2394  0.0347
10653W        W29507  10.335   5.861  16.661  0.0064  0.0736 -0.1611
10654W        W29508  13.340  13.472  15.206  0.0803 -0.1658 -0.0169
10655W        W29509   5.494  11.616   4.189 -0.0771  0.1968  0.2058
10656W        W29510  11.037  13.366  15.406  0.1885 -0.2115 -0.2603
10657W        W29511   1.114   2.140   0.907  0.0274 -0.0954  0.0862
10658W        W29512   0.344   9.791   3.637  0.0684 -0.0361  0.1025
10659W        W29513   4.711   1.829  12.851 -0.0903  0.0491  0.1123
10660W        W29514   2.099  15.522  16.338  0.2259  0.3304 -0.1344
10661W        W29515  12.523   5.695  16.162 -0.1374 -0.1266 -0.1142
10662W        W29516   1.534   3.073   1.026  0.1854  0.0951  0.2140
10663W        W29517   1.081   1.965   1.902 -0.2005 -0.0571  0.1378
10664W        W29518   8.156   1.308   3.264  0.1815  0.1385  0.1345
10665W        W29519   6.984   1.065   5.201  0.1710  0.0522  0.1607
10666W        W29520   4.529   4.639   5.043  0.0226 -0.0100  0.0813
10667W        W29521   6.711   9.798   5.161  0.0911 -0.1267 -0.0337
10668W        W29522  14.396   7.513   4.421 -0.0754 -0.1900 -0.2789
10669W        W29523   1.805  12.159  12.762  0.1582 -0.1978  0.2423
10670W        W29524   1.073   2.143   3.287  0.2233 -0.1669 -0.4150
10671W        W29525   0.390  11.025  13.894  0.0331  0.0836  0.1024
10672W        W29526   0.309  13.143   5.450  0.1283 -0.0599  0.0828
10673W        W29527   9.241  14.627  16.577 -0.1994  0.2108  0.0349
10674W        W29528  13.096   9.490  12.840 -0.1959  0.2126  0.0326
10675W        W29529  12.881   7.489  12.918 -0.0433 -0.3127  0.2690
10676W        W29530   4.099  14.002  14.950  0.0933 -0.0684  0.1501
10677W        W29531   8.920  15.946   2.211  0.0922  0.2847 -0.1389
10678W        W29532   3.380   5.909   0.447  0.1922 -0.0591  0.0292
10679W        W29533   5.980   4.642  11.656 -0.0939 -0.2531 -0.0599
10680W        W29534  16.700   9.475   4.124  0.1505  0.0713 -0.0352
10681W        W29535  15.218   4.096  14.349  0.3621  0.0463  0.2065
10682W        W29536  16.900  13.551  14.433 -0.0047  0.0206  0.1061
10683W        W29537  14.076  14.440  12.592  0.3535 -0.1860 -0.1031
10684W        W29538   6.866  17.278   2.172 -0.0903 -0.2471  0.0282
10685W        W29539  11.367   9.148   1.657  0.1090 -0.0569 -0.3580
10686W        W29540  11.916   8.908   4.616 -0.0132  0.0414 -0.3502
10687W        W29541   3.127   6.872  16.409  0.0722 -0.3863  0.0032
10688W        W29542   6.477   9.821   4.555  0.0935 -0.4282  0.3759
10689W        W29543   4.890   7.425  15.787 -0.3150  0.0196 -0.1499
10690W        W29544  14.342   8.045  16.370  0.2237  0.0491  0.1269
10691W        W29545   4.740   6.775  15.236  0.1472  0.0706  0.1123
10692W        W29546   2.701  13.170   1.272  0.1430  0.0657  0.0303
10693W        W29547   0.860  13.656   4.716 -0.2180 -0.1267 -0.1218
10694W        W29548   4.606   3.816  14.574  0.3162  0.1347  0.0834
10695W        W29549  11.401   4.342  12.431 -0.0433 -0.3331 -0.1506
10696W        W29550   0.973  13.245   2.041  0.3592 -0.0001  0.0525
10697W        W29551   7.868   7.020   2.097 -0.1102 -0.2298 -0.0225
10698W        W29552   9.179   4.070  12.253  0.0301  0.0948 -0.1209
10699W        W29553   7.485  14.328  14.550  0.1881  0.1140 -0.1009
10700W        W29554   8.303  14.583   1.424  0.0145  0.0083  0.0644
10701W        W29555  17.268  10.530  14.547  0.0273 -0.3439  0.0546
10702W        W29556   4.250  14.343  12.591  0.0879 -0.0974 -0.2600
10703W        W29557   9.475   4.719  13.379  0.0341 -0.6084 -0.2197
10704W        W29558   1.811   0.261  15.501 -0.0074 -0.2051 -0.0108
10705W        W29559   0.189   2.726  12.533 -0.0137 -0.0692  0.0300
10706W        W29560   8.091  13.735   2.506  0.1126  0.0339  0.0421
10707W        W29561   8.695  15.312  17.216  0.1752 -0.2003  0.3542
10708W        W29562   9.190   3.967  13.934 -0.0991  0.0468 -0.1168
10709W        W29563  13.859  14.629   3.405  0.1635 -0.3106  0.3152
10710W        W29564  13.097   3.549   5.594  0.0805  0.0024 -0.2242
10711W        W29565   2.058  14.141  13.888 -0.3221  0.0200  0.1953
10712W        W29566   2.729  13.596  14.024  0.0659  0.2036 -0.1409
10713W        W29567   7.194  16.709   1.437 -0.1575 -0.2675 -0.1421
10714W        W29568   3.274  11.873  12.763  0.2346  0.4534 -0.0010
10715W        W29569  11.196   7.484  11.676 -0.0493  0.0206  0.2417
10716W        W29570  13.794   3.794  14.922  0.1163  0.1232  0.1443
10717W        W29571   4.747  15.047  16.869  0.2211 -0.1958 -0.0514
10718W        W29572  12.214   1.083  12.338  0.2800 -0.0904 -0.0466
10719W        W29573  11.559  13.140  16.879  0.2152  0.0561 -0.1201
10720W        W29574   4.147   2.611   4.235 -0.0879 -0.2431 -0.4203
10721W        W29575   7.545   2.860   3.968  0.2322 -0.1432 -0.1423
10722W        W29576   1.077   9.166   4.120 -0.1370 -0.0008 -0.0284
10723W        W29577   6.661  10.682  16.417  0.2632 -0.1358 -0.0251
10724W        W29578   1.656  12.294   2.875 -0.0991 -0.2835 -0.0424
10725W        W29579   6.237   0.709  12.769 -0.2267 -0.0576 -0.0981
10726W        W29580  11.312  14.688  13.897  0.0151  0.1244  0.1106
10727W        W29581   5.530  16.273  12.730 -0.2270  0.0324  0.1969
10728W        W29582   8.704  13.811   4.409 -0.0898  0.2534  0.0378
10729W        W29583   0.789   8.533   0.874  0.0912 -0.1150 -0.0736
10730W        W29584  10.962   4.762  16.920 -0.0484  0.0788 -0.1306
10731W        W29585   8.012   4.315   0.966  0.0866 -0.0452  0.1016
10732W        W29586   0.235   7.572   0.093  0.1071  0.1350  0.0211
10733W        W29587  12.133   3.980  13.240  0.0632 -0.0138  0.0421
10734W        W29588   1.640   5.994   4.510 -0.5196 -0.1254 -0.2749
10735W        W29589   5.245  16.891  12.287 -0.1176  0.0254  0.2792
10736W        W29590   8.373   7.818  15.706 -0.1309 -0.0784 -0.4679
10737W        W29591   7.948   3.272   3.788  0.0444 -0.0635  0.0883
10738W        W29592  17.280  12.765   5.384  0.1185  0.2982  0.3324
10739W        W29593   9.011  11.612  14.541 -0.1385 -0.1591  0.1448
10740W        W29594  15.891   3.414   3.670 -0.0955 -0.3141 -0.0864
10741W        W29595   2.498  15.718  16.598 -0.2247 -0.1821  0.0820
10742W        W29596   8.388   3.619  14.569 -0.3384 -0.0544  0.1211
10743W        W29597  11.127  10.215  17.033 -0.0517  0.1235  0.0175
10744W        W29598   2.502   0.590  17.225  0.1597  0.0056  0.1030
10745W        W29599   9.339  13.795  14.535  0.0812  0.0336  0.1868
10746W        W29600   0.378   0.971  16.532 -0.0660 -0.0563 -0.0560
10747W        W29601  14.854   6.007   1.509  0.1065 -0.2827 -0.1321
10748W        W29602   6.330   2.415  13.446  0.0532 -0.0293  0.1609
10749W        W29603  10.792   5.906   2.806 -0.0038 -0.2230  0.0734
10750W        W29604   7.018   0.809  16.381  0.0724  0.3454 -0.4214
10751W        W29605   2.232   4.208  17.461 -0.3724  0.2015  0.2189
10752W        W29606  15.617   7.691  15.209  0.0141 -0.1556  0.2873
10753W        W29607   6.118  12.515  15.822 -0.1214  0.2429 -0.1133
10754W        W29608   4.217   7.052   2.930 -0.1800  0.0395  0.1444
10755W        W29609   9.873  17.252   0.301  0.0853 -0.0242 -0.3362
10756W        W29610   6.433   8.576  15.672  0.2672  0.1955 -0.0381
10757W        W29611  12.837   5.981   4.208  0.1448  0.0600 -0.0162
10758W        W29612   3.928  11.601   4.180  0.3090  0.1289 -0.2854
10759W        W29613   5.924   4.379   1.121  0.0278 -0.0966  0.2142
10760W        W29614  13.178  17.270  16.761 -0.1114  0.0956  0.1874
10761W        W29615   6.139  16.485  13.909  0.1226  0.1764 -0.3709
10762W        W29616  13.394   5.915   2.859 -0.0728  0.0260 -0.2608
10763W        W29617   5.587   9.500  15.400 -0.0605  0.0286  0.0314
10764W        W29618  15.432  14.206   6.768 -0.1512 -0.1458  0.0935
10765W        W29619   4.383   6.635   0.396  0.1214 -0.2388 -0.1783
10766W        W29620   4.981  13.537   4.200 -0.2091 -0.0584  0.3034
10767W        W29621   7.665  14.760  12.919 -0.0178  0.0580  0.0928
10768W        W29622  10.397  11.377  14.956 -0.0354  0.0423  0.0011
10769W        W29623   1.343   8.508   4.851  0.1265 -0.1379  0.1940
10770W        W29624   2.165  11.103  14.018 -0.1065  0.0329  0.1943
10771W        W29625  10.553  12.531   0.006  0.1209 -0.3242  0.1136
10772W        W29626  15.756   2.667  13.404 -0.0723 -0.0906  0.0576
10773W        W29627   5.207   7.914  14.544 -0.1163  0.0808  0.1010
10774W        W29628   6.649   2.681   2.373 -0.1439 -0.0457 -0.1669
10775W        W29629  16.676  17.157   5.463  0.0119 -0.1019 -0.0055
10776W        W29630  10.811  17.292   3.193  0.3775 -0.1667  0.0874
10777W        W29631   1.441  11.215  12.614  0.0437 -0.3839  0.0453
10778W        W29632   0.684  12.386  15.449 -0.1296 -0.3002  0.0163
10779W        W29633   2.046   4.395  16.693 -0.1840  0.0628 -0.0210
10780W        W29634   0.585  15.375  17.003 -0.1465 -0.0672  0.1016
10781W        W29635   2.483  16.336  14.518 -0.0514 -0.1104 -0.2484
10782W        W29636   0.153  14.953   0.850 -0.0976  0.0546  0.2218
10783W        W29637   2.743   3.181  14.376  0.4253 -0.3363  0.0230
10784W        W29638   4.250   0.159   5.348 -0.0916  0.2490  0.2069
10785W        W29639  11.913   6.083  16.457  0.0358  0.1508 -0.1548
10786W        W29640   5.086   4.587  15.818 -0.1095  0.1946 -0.1101
10787W        W29641   5.949  10.292  12.889 -0.0483 -0.0033 -0.0975
10788W        W29642  13.413   0.040  12.898 -0.2725 -0.0370 -0.0812
10789W        W29643  17.138   8.837  12.720  0.1326  0.0515 -0.2943
10790W        W29644   6.825  14.400  12.444 -0.5451 -0.0266 -0.0937
10791W        W29645   8.470   0.016   4.746  0.0626  0.2490  0.2322
10792W        W29646  11.250  16.747   1.212  0.3593 -0.1018  0.0804
10793W        W29647  14.840   2.670  13.253  0.0951  0.0850  0.0399
10794W        W29648   1.305  10.218  13.873  0.2075  0.3231 -0.2586
10795W        W29649  15.124  14.098   3.578  0.0007  0.0156 -0.2960
10796W        W29650   7.629   3.551   4.281 -0.0326 -0.0630  0.0891
10797W        W29651  16.013  13.118   4.264 -0.1346  0.2081 -0.0647
10798W        W29652  10.103   3.082  12.325  0.1424 -0.1414 -0.3487
10799W        W29653   0.589   3.836  13.391 -0.0317  0.0194  0.1613
10800W        W29654  12.963  12.787  15.758 -0.1057  0.0103 -0.0152
10801W        W29655  10.308   5.236   5.146 -0.1635 -0.0772  0.2831
10802W        W29656   4.724   1.037   4.611  0.1256 -0.0145  0.2440
10803W        W29657  13.425   3.292  16.196  0.0135 -0.1311 -0.1984
10804W        W29658  10.467  16.970   3.961 -0.0686 -0.1418 -0.0544
10805W        W29659   4.586   3.494  14.075  0.1987 -0.2359 -0.1716
10806W        W29660  16.959   0.079  12.924 -0.1621  0.2015  0.2259
10807W        W29661  13.109   3.276  13.807  0.0509  0.2032  0.1255
10808W        W29662  12.859   5.240   0.840  0.0688 -0.2451 -0.1684
10809W        W29663   7.464   7.152  15.150  0.2606  0.1082  0.2170
10810W        W29664   7.667  10.538   4.822 -0.1364 -0.1275 -0.1223
10811W        W29665   7.187   1.425   5.912  0.2889 -0.1575  0.0991
10812W        W29666  10.783  12.350  15.739 -0.1160  0.0923  0.0821
10813W        W29667  10.250  12.770   4.602  0.1125  0.0776  0.2150
10814W        W29668  10.457  11.011  12.388  0.0842 -0.0185  0.1617
10815W        W29669   1.610   7.132  15.130  0.0336 -0.0360 -0.0436
10816W        W29670   5.892   0.013   2.649  0.0783  0.2379 -0.2945
10817W        W29671   7.992  13.697  16.258  0.2238 -0.0427 -0.1115
10818W        W29672  15.178   8.923   1.825 -0.3447 -0.1325  0.1019
10819W        W29673   9.891   8.525  15.693 -0.2657  0.3363  0.0675
10820W        W29674   9.022   3.601   5.160 -0.1717 -0.1347  0.0694
10821W        W29675   7.281   0.828   2.043 -0.2874  0.0662 -0.1889
10822W        W29676  15.353  13.554   6.509 -0.0114  0.1366 -0.1684
10823W        W29677   6.772   5.863   4.509 -0.2594 -0.1727 -0.1978
10824W        W29678   2.931   2.123  17.130 -0.1340 -0.0624 -0.0876
10825W        W29679  15.458  12.146  12.554  0.2834  0.3030  0.2688
10826W        W29680   9.431   9.635  15.225  0.0355  0.1485 -0.4440
10827W        W29681   8.967  16.349  15.984  0.0507  0.0393  0.2041
10828W        W29682  11.420   6.242  17.183  0.2307 -0.2950  0.0341
10829W        W29683   3.520   8.827   4.755  0.0999  0.0679 -0.0894
10830W        W29684  11.058   9.366  15.223  0.0661 -0.1885 -0.0774
10831W        W29685   3.186   3.075  15.267  0.1120 -0.0692 -0.2374
10832W        W29686  15.203  12.252   1.896  0.0180  0.4157  0.0024
10833W        W29687  15.192   2.189  15.279  0.0005  0.1365  0.1532
10834W        W29688  10.520  15.722  14.492 -0.0760  0.1219  0.1245
10835W        W29689  14.574   0.411   2.251 -0.0656 -0.0551  0.0772
10836W        W29690   5.899   4.032  14.256 -0.1053 -0.3045  0.1074
10837W        W29691   9.533   1.341   1.175  0.0857 -0.3253  0.0955
10838W        W29692   8.289   0.056  12.627  0.0919  0.2203  0.0929
10839W        W29693  14.449  11.823  15.254 -0.1569  0.0427 -0.1217
10840W        W29694   8.125   3.048  12.570  0.1370  0.0048 -0.1456
10841W        W29695   2.395   1.077  14.839 -0.2354 -0.0285  0.3721
10842W        W29696  10.377   3.283   1.571  0.1738  0.5446 -0.2741
10843W        W29697  13.096  16.746   2.417 -0.1090 -0.0634 -0.1743
10844W        W29698  11.491  12.019  12.211 -0.0032  0.2014  0.0095
10845W        W29699   0.919   7.230  17.265  0.1736 -0.2828  0.0301
10846W        W29700  11.958  16.360  16.799  0.1806 -0.0576 -0.3117
10847W        W29701   5.988  15.710   4.592 -0.3437 -0.2388  0.0576
10848W        W29702   9.582  16.169  14.232 -0.0272 -0.1974  0.2165
10849W        W29703   1.179   3.215  15.478 -0.1885  0.1183 -0.1518
10850W        W29704  13.401  12.967  15.437  0.0678  0.0554  0.1878
10851W        W29705  13.337   4.717   1.469  0.3703  0.1380 -0.0351
10852W        W29706  13.470  12.131  16.065  0.1173 -0.0768  0.1455
10853W        W29707  16.698  10.175   0.934  0.2332  0.0211 -0.0057
10854W        W29708  16.951  14.296  17.050 -0.0512  0.0683  0.0060
10855W        W29709  16.330  14.833  12.722  0.1354  0.4945 -0.2241
10856W        W29710   0.207   9.119  15.341  0.0008 -0.1704  0.2262
10857W        W29711   9.593   2.119  14.725 -0.2141 -0.2320 -0.3222
10858W        W29712   2.808  14.971   3.531 -0.3508 -0.0552  0.2188
10859W        W29713  10.379   3.537  17.333 -0.0484  0.1007 -0.0474
10860W        W29714   8.056   2.249  16.658  0.0852  0.1995 -0.3080
10861W        W29715   8.472   6.642   2.731  0.3807  0.0245  0.2744
10862W        W29716  15.425  14.562   1.073  0.1439 -0.1546  0.1518
10863W        W29717   3.673  16.215   3.366 -0.2750 -0.2278  0.2033
10864W        W29718   0.999   3.723  15.202 -0.3335 -0.3561  0.2932
10865W        W29719   9.507  13.703  16.653  0.2008  0.3369 -0.0226
10866W        W29720   9.032   9.251  15.452  0.1076 -0.1620  0.0742
10867W        W29721  11.432   2.752   3.000  0.0254  0.1468 -0.1470
10868W        W29722  12.499   2.144   0.730 -0.0626  0.2834 -0.0784
10869W        W29723   6.500  11.012  15.673 -0.1466 -0.0924 -0.1653
10870W        W29724   1.901   0.257   2.862  0.0434 -0.1252 -0.1973
10871W        W29725  13.079   8.001   0.705 -0.0251 -0.0970  0.0899
10872W        W29726   5.231   1.212  13.643  0.1170 -0.2191  0.0002
10873W        W29727   3.822   2.686   2.402  0.1115 -0.0508 -0.2424
10874W        W29728  17.214   0.192   0.532  0.0960 -0.1693  0.2071
10875W        W29729   8.564  16.132   4.492 -0.1382  0.1363 -0.1405
10876W        W29730   4.251   0.968   3.871  0.2677  0.1728  0.0176
10877W        W29731  16.787   6.438   1.461  0.0705 -0.1466 -0.2254
10878W        W29732  12.088  14.983  13.266  0.1954 -0.0210 -0.0277
10879W        W29733  11.204   2.592   0.534 -0.0020  0.2260  0.0415
10880W        W29734   8.669  12.236   0.915 -0.0093 -0.3047 -0.1514
10881W        W29735   8.152  16.487  14.002 -0.0767 -0.0633  0.0121
10882W        W29736  17.199  12.425   3.497 -0.0120 -0.1867  0.1134
10883W        W29737   5.741  13.684  12.649  0.0460 -0.0977  0.1495
10884W        W29738   1.171   9.715   1.524 -0.0263  0.1728  0.0762
10885W        W29739   5.044  17.359  13.066 -0.3532  0.0375 -0.0845
10886W        W29740  16.470   3.889   2.058  0.2231 -0.0094 -0.1149
10887W        W29741   2.755   8.858   4.966  0.0191 -0.0602  0.0296
10888W        W29742  14.184   1.264   2.532 -0.2383 -0.0735  0.0380
10889W        W29743   6.271  11.883  15.137  0.0258  0.2219 -0.1049
10890W        W29744   0.394  13.835   2.520  0.2153  0.1358  0.0351
10891W        W29745   5.644  16.556  13.188 -0.1237  0.0575 -0.1144
10892W        W29746  16.809   9.911   2.333  0.1088 -0.2241  0.1859
10893W        W29747   1.921   2.403  16.263 -0.0449 -0.2191  0.2223
10894W        W29748   7.043   2.779   2.725  0.5188  0.3526 -0.3395
10895W        W29749  16.111   4.355   0.658 -0.1098 -0.0597 -0.0133
10896W        W29750   5.252  12.736   5.356  0.2328  0.0974 -0.5235
10897W        W29751  14.997  16.677  14.936  0.1608 -0.0174 -0.2501
10898W        W29752   1.589  15.181   3.244 -0.1409  0.2111 -0.2685
10899W        W29753   0.892   7.333   4.658  0.2042  0.1066  0.0098
10900W        W29754   3.187   1.467  12.784  0.1502  0.0200  0.0569
10901W        W29755  14.299   6.355  13.031 -0.2280  0.1641  0.2052
10902W        W29756  15.041   6.479   1.480 -0.1865  0.1479  0.2156
10903W        W29757   5.419   8.372  15.213 -0.1725  0.2088 -0.0667
10904W        W29758   6.206   8.557  14.083  0.1237 -0.0022  0.1194
10905W        W29759  11.769  11.552  14.944  0.2082 -0.2973  0.0705
10906W        W29760   6.615   7.393   1.070  0.1190 -0.1226 -0.1806
10907W        W29761   2.018  10.500   5.075  0.0346 -0.3219  0.0444
10908W        W29762  16.222  13.488  14.731  0.2075 -0.1152  0.1096
10909W        W29763   8.536  14.070  16.916 -0.0618 -0.2117 -0.0703
10910W        W29764   8.931   6.462   2.283  0.1987  0.1191  0.0979
10911W        W29765  13.422  14.079  13.026 -0.0397 -0.0881 -0.2058
10912W        W29766  12.004   6.954  15.724  0.1100  0.0353  0.2968
10913W        W29767   0.722   7.100  16.296 -0.2243 -0.1575  0.1453
10914W        W29768  10.684   6.416   1.435  0.3851  0.1199 -0.0056
10915W        W29769   9.859   6.109  17.401  0.1153  0.0850 -0.2684
10916W        W29770  17.206   5.122   2.428 -0.2445  0.1806  0.1784
10917W        W29771  12.453  15.433  12.343  0.0267 -0.1227  0.1174
10918W        W29772   8.633  16.931  17.283  0.0488 -0.1407  0.0902
10919W        W29773  14.823   9.144  16.839 -0.1444  0.0362  0.0941
10920W        W29774  11.670  11.499  16.019  0.0053 -0.1553  0.0830
10921W        W29775   3.661   1.537   0.026  0.0566 -0.0800 -0.1035
10922W        W29776   7.734  10.855   2.361  0.0242 -0.0370 -0.1333
10923W        W29777  12.482   3.978  16.009  0.0573 -0.2363 -0.1447
10924W        W29778   1.065  13.701  16.863  0.0418 -0.0642 -0.2027
10925W        W29779   6.965   6.932  15.342 -0.0396 -0.1781  0.1427
10926W        W29780   8.473  12.170  12.580 -0.3303 -0.2743  0.1810
10927W        W29781   0.990   1.354   5.492 -0.3111 -0.1069  0.0731
10928W        W29782   4.155  13.555  15.296 -0.1550 -0.1481  0.1099
10929W        W29783  15.413   9.548  13.972  0.1488 -0.1494  0.1076
10930W        W29784  11.522   8.458  13.123  0.1847 -0.0687  0.1751
10931W        W29785  16.915   7.102   1.683 -0.0627 -0.3684  0.0559
10932W        W29786   6.250  14.974   2.655 -0.2718 -0.3731 -0.0637
10933W        W29787  15.762  15.890   3.825  0.1688  0.3802 -0.0002
10934W        W29788   5.090   9.873  12.431  0.2354 -0.2092 -0.0811
10935W        W29789  11.619   4.454   5.300 -0.0403 -0.3544  0.1445
10936W        W29790   1.004  15.966   4.097 -0.0375  0.1184  0.0353
10937W        W29791  11.700  15.332  13.453 -0.0320 -0.0047 -0.0256
10938W        W29792  12.885   1.851   3.225 -0.1322  0.0602 -0.1730
10939W        W29793  11.438   5.850   3.505  0.2825  0.2171  0.2470
10940W        W29794   1.110   2.736   2.636 -0.0478 -0.4751 -0.1943
10941W        W29795  14.908  14.671  13.899  0.1506  0.1207  0.0498
10942W        W29796  16.450   2.351  14.072  0.3069  0.0105 -0.0711
10943W        W29797  14.391   2.579   1.247  0.0300  0.0100  0.0915
10944W        W29798  13.925  17.380   4.313 -0.0247  0.3762 -0.0187
10945W        W29799   9.154  15.412  14.210  0.1379  0.4905 -0.1950
10946W        W29800  17.198  12.323  14.059  0.0026 -0.1143 -0.2860
10947W        W29801   5.258  12.495  14.453  0.1192 -0.0603  0.1768
10948W        W29802  16.531   6.659   0.474 -0.1315  0.4505  0.0264
10949W        W29803   9.969   8.037   4.272 -0.2544 -0.0864  0.2324
10950W        W29804   7.500  17.209   4.547 -0.0574 -0.0351  0.1021
10951W        W29805  11.746   9.872  16.681 -0.0790 -0.0047 -0.2268
10952W        W29806  11.481   3.884  16.688 -0.2561  0.2650 -0.0492
10953W        W29807   6.884  14.215  12.929 -0.0050 -0.0313 -0.0158
10954W        W29808   3.752   9.290   4.831 -0.0698 -0.0608 -0.0832
10955W        W29809   8.530  14.172   4.086 -0.0115 -0.0676 -0.0457
10956W        W29810  11.804  12.708  15.462 -0.0670  0.1515 -0.0127
10957W        W29811   0.816  10.076   2.548 -0.1522 -0.1490 -0.1042
10958W        W29812  12.852   2.975  17.053 -0.1420 -0.0222  0.0387
10959W        W29813  12.700   4.506  16.097 -0.1398  0.1208  0.1038
10960W        W29814   1.136   4.490  13.441  0.2163  0.1700 -0.1985
10961W        W29815  16.702   3.793   3.546  0.2929  0.2107  0.0930
10962W        W29816   1.743  13.884   4.690 -0.0874  0.2289  0.3962
10963W        W29817   0.397  14.174  12.449 -0.1248  0.1548 -0.1750
10964W        W29818  17.273   6.856  15.283 -0.1501 -0.0488 -0.1664
10965W        W29819   4.901   6.998  12.838  0.0607 -0.3209  0.0577
10966W        W29820  11.801   6.756  13.405  0.0605 -0.2997 -0.1619
10967W        W29821  15.513   0.006  13.024 -0.5177  0.1321  0.3986
10968W        W29822  15.818  16.371  13.805  0.2299  0.0964  0.1486
10969W        W29823   1.431   7.870  14.211  0.0318  0.1929  0.0959
10970W        W29824  17.136   8.779  13.297  0.1091  0.0771  0.0297
10971W        W29825  15.462   2.983   1.809  0.4536  0.0231 -0.0378
10972W        W29826   5.034   7.542   2.936 -0.2422  0.2171 -0.0615
10973W        W29827  12.064   1.117  15.102 -0.0091 -0.1048  0.0498
10974W        W29828   6.776   8.817  17.033  0.1511  0.1172 -0.2156
10975W        W29829  16.778   2.572  15.665  0.1665  0.2927  0.3469
10976W        W29830   7.872   3.968  15.177  0.0021 -0.1723 -0.0448
10977W        W29831   6.254   6.433  13.212  0.2077 -0.2191  0.0148
10978W        W29832   6.343   6.417  12.286 -0.1383 -0.0892 -0.2960
10979W        W29833  16.840   6.620  15.994 -0.1686 -0.3491 -0.2280
10980W        W29834   3.744   8.543  14.455  0.1097 -0.1938 -0.1145
10981W        W29835  16.029   8.637   1.743 -0.1354 -0.4191 -0.2004
10982W        W29836  17.381   7.776  15.330  0.3255 -0.0542 -0.1568
10983W        W29837  15.152   8.062  14.644 -0.1243  0.1227 -0.1253
10984W        W29838  13.066  11.698   2.459  0.0973 -0.1442 -0.0832
10985W        W29839   0.104  11.137   3.085  0.2549  0.2892 -0.0982
10986W        W29840  10.788   7.103   1.185 -0.3527 -0.2844  0.0962
10987W        W29841   9.460   1.655  12.885 -0.2342 -0.0123 -0.2087
10988W        W29842  16.496   8.582   1.508 -0.0200  0.2502  0.0468
10989W        W29843   9.897   0.398   1.512 -0.0088 -0.0184 -0.0564
10990W        W29844  13.515   3.003   4.575  0.0176 -0.0309  0.0233
10991W        W29845   8.602   0.609  13.111  0.2365 -0.3375 -0.1131
10992W        W29846   3.599  10.943  13.994 -0.2602  0.0771  0.1699
10993W        W29847   3.655  11.343  13.427 -0.1535  0.0886  0.3995
10994W        W29848   2.017   3.477   2.731 -0.2577 -0.0100  0.2004
10995W        W29849  14.566   4.884   4.659 -0.0483  0.0518  0.0308
10996W        W29850  10.905   0.942  15.644  0.0172 -0.1259 -0.2016
10997W        W29851  11.803   1.897   3.083 -0.0927 -0.1927  0.4004
10998W        W29852  10.136  12.230  14.597 -0.1673  0.1194  0.0442
10999W        W29853  12.593  15.502   2.337 -0.1070  0.0901 -0.1159
11000W        W29854   9.694  13.582   4.232  0.0932  0.1793 -0.2932
11001W        W29855   1.282   1.180   2.154  0.0063 -0.0259  0.3089
11002W        W29856   7.081  12.617  16.148  0.0083  0.0009  0.2084
11003W        W29857   6.502   6.572   3.503 -0.1424 -0.0004  0.2059
11004W        W29858   8.774  15.833  14.965  0.1150 -0.2341  0.0750
11005W        W29859   4.849   7.607  15.255 -0.1388  0.1790  0.2904
11006W        W29860   9.242   3.327  13.851  0.1467  0.0330  0.1696
11007W        W29861  12.706   5.718  13.396  0.1324  0.2780 -0.3178
11008W        W29862   3.336   2.824  16.950 -0.1432  0.1799  0.3016
11009W        W29863  15.914  10.523   2.482 -0.2863 -0.0003 -0.2802
11010W        W29864  15.650  11.465  14.246 -0.1065  0.1869 -0.3516
11011W        W29865   4.938   7.491   3.999  0.1222  0.2222 -0.1236
11012W        W29866   6.570   8.618  13.662  0.1180  0.1122  0.2156
11013W        W29867  15.682  10.677  12.810  0.0951  0.0148  0.0040
11014W        W29868  12.063   4.446  17.225 -0.2348  0.2525 -0.0616
11015W        W29869  10.229   9.908  11.735  0.0795  0.4423 -0.0010
11016W        W29870  15.116  11.727   4.314  0.1940  0.1130 -0.4705
11017W        W29871   1.629   6.126  15.164  0.2745  0.2113 -0.0324
11018W        W29872  15.446   3.244   3.239  0.2866  0.1967 -0.1746
11019W        W29873  12.707  17.309   4.524  0.0284 -0.1539  0.1651
11020W        W29874   2.867  16.839  17.261 -0.1340  0.0560 -0.0741
11021W        W29875  14.254   7.766  13.187 -0.2769  0.0701 -0.1439
11022W        W29876   7.469   7.339   4.736  0.0817  0.1712  0.3170
11023W        W29877   9.123   8.747  12.741  0.1285  0.0674 -0.1798
11024W        W29878  10.260   1.695   0.130  0.2733 -0.2736  0.2209
11025W        W29879   4.750  11.513  12.631  0.0936 -0.2238  0.0985
11026W        W29880  16.890   7.204   2.869  0.1688  0.0567 -0.0426
11027W        W29881   7.955  15.150   2.157 -0.3697  0.0531  0.0019
11028W        W29882   8.836   3.341  14.514  0.0909  0.2772 -0.0674
11029W        W29883  14.181   0.735   2.400  0.0026  0.0469 -0.2094
11030W        W29884  12.079   3.321  13.935  0.0142 -0.2046  0.0349
11031W        W29885  16.654  10.342  16.256  0.1426  0.0594  0.3016
11032W        W29886   2.346   7.876   2.381 -0.0313  0.2716 -0.3884
11033W        W29887   8.399   4.865  13.309  0.1801 -0.1307 -0.2113
11034W        W29888  11.238  12.773   3.650  0.3376 -0.2094  0.2314
11035W        W29889   9.246  11.711   4.321  0.2079  0.0595  0.2454
11036W        W29890  10.346  16.383  14.172 -0.0396 -0.1646  0.2388
11037W        W29891  12.409  10.606  13.915 -0.2586 -0.1466  0.1908
11038W        W29892  16.225   1.996   2.243  0.0950  0.0288 -0.1353
11039W        W29893   0.416  10.117  17.183 -0.0438  0.2006 -0.3083
11040W        W29894  15.872  17.011  15.992 -0.4418 -0.1058 -0.0656
11041W        W29895   7.197   8.578   5.312 -0.0436  0.0999 -0.0760
11042W        W29896  12.239  17.154   4.405  0.1252  0.0773  0.0243
11043W        W29897   4.676  10.663   3.312 -0.0419  0.2042 -0.1526
11044W        W29898   2.929  12.497   5.313 -0.1273 -0.0481 -0.0595
11045W        W29899   0.374  11.097  16.792 -0.1261  0.1676 -0.1329
11046W        W29900   2.352   6.603   4.371 -0.0392  0.2848  0.0771
11047W        W29901   1.884  14.263  13.348 -0.3364 -0.3906 -0.1571
11048W        W29902  12.547   9.434  17.242  0.0525  0.0611 -0.0498
11049W        W29903   7.653   7.700  13.085  0.1121  0.1106 -0.0669
11050W        W29904  10.115   5.950   3.916  0.0804  0.3719 -0.1054
11051W        W29905  12.105   7.207   1.111  0.1651 -0.1478  0.0937
11052W        W29906   9.232  12.520   4.070 -0.1047 -0.2746 -0.3793
11053W        W29907  15.742   9.975   3.731 -0.0538 -0.1991  0.1104
11054W        W29908   4.674  14.775   4.722 -0.4098  0.0908  0.0182
11055W        W29909  13.565   1.515  15.516 -0.2566  0.3392  0.4078
11056W        W29910  12.743  14.862  14.246  0.3287  0.2981 -0.2330
11057W        W29911   9.288   8.204   2.096  0.0332  0.0590 -0.1819
11058W        W29912   8.509   2.154  16.402 -0.1733  0.5378 -0.1398
11059W        W29913   2.606  15.505  16.179  0.1628  0.0074 -0.2405
11060W        W29914   9.355   2.587  11.933  0.0647 -0.1739 -0.0464
11061W        W29915   8.030  10.585  14.579  0.0077 -0.3412  0.0668
11062W        W29916   4.995  11.006  13.641 -0.2409  0.0983 -0.1274
11063W        W29917   5.477   8.618  16.476 -0.2278 -0.1622 -0.1476
11064W        W29918   9.811   9.679   6.223 -0.4258 -0.0834  0.1599
11065W        W29919  12.031   9.943  12.589 -0.0909 -0.1982  0.0683
11066W        W29920   8.237   6.309  17.332 -0.1784 -0.1983 -0.0527
11067W        W29921  13.839   3.643   3.101  0.0244  0.0591 -0.1734
11068W        W29922   6.928   7.735  13.010  0.0897  0.0278  0.0603
11069W        W29923  15.138   4.068  15.718  0.3348 -0.1564  0.3372
11070W        W29924  11.322   9.955  15.590 -0.2561  0.3694  0.0380
11071W        W29925   6.089  15.231   3.694 -0.1517  0.1850  0.0823
11072W        W29926   6.626   7.273  14.863  0.0472  0.1016  0.1226
11073W        W29927  17.119   6.953   4.204 -0.2166  0.1763 -0.0566
11074W        W29928  10.316  15.087   1.252  0.4228 -0.2331 -0.0207
11075W        W29929  14.888   3.333  16.057  0.0105 -0.0179  0.0669
11076W        W29930   9.112   1.921   0.651  0.1442  0.1236  0.1345
11077W        W29931   2.556  14.660  15.836 -0.2071 -0.2416  0.3821
11078W        W29932  16.498  14.046   5.138  0.2509  0.1464 -0.2776
11079W        W29933   3.306  13.315   4.807 -0.0092 -0.1702  0.0692
11080W        W29934   1.662   0.376   2.441 -0.1245  0.1008  0.4355
11081W        W29935   2.747   1.318   2.627  0.0866 -0.2221  0.1952
11082W        W29936   7.416   5.549  15.684 -0.0110  0.0176  0.1070
11083W        W29937  15.807   0.375  12.672 -0.2648 -0.0449  0.1084
11084W        W29938   3.859  12.979  13.310  0.0378 -0.0795 -0.0240
11085W        W29939  13.162   6.500  16.879  0.1491  0.0216  0.0014
11086W        W29940   9.269   7.836  16.617 -0.2387  0.0684  0.0131
11087W        W29941   4.620   0.164   2.883  0.0698  0.3203 -0.1108
11088W        W29942  12.706  13.018   1.654  0.0550 -0.0229 -0.1223
11089W        W29943  14.486   1.604   2.303  0.1991 -0.5655 -0.0384
11090W        W29944  12.375   5.807  17.364 -0.0435  0.0244  0.1157
11091W        W29945  10.530  11.650   0.694 -0.2923  0.0475  0.0236
11092W        W29946   7.080   6.847   0.867  0.2176 -0.2057 -0.3991
11093W        W29947  15.142  14.804   2.390  0.1062  0.0288 -0.1797
11094W        W29948   2.849   0.204   3.317  0.0974 -0.0820 -0.0564
11095W        W29949  14.853   7.082  16.147 -0.0133  0.1210 -0.1488
11096W        W29950   9.111   4.023   2.604 -0.0863  0.0504 -0.0047
11097W        W29951   7.164   1.558  14.036  0.2855 -0.3930  0.2444
11098W        W29952   2.610  11.573  13.251  0.1231  0.0731  0.3746
11099W        W29953  16.935   8.409  16.293  0.0015 -0.0938  0.0821
11100W        W29954   7.810  12.304   3.101 -0.0452 -0.1624 -0.2806
11101W        W29955   1.629   4.651   4.946  0.0715 -0.0597 -0.1124
11102W        W29956  15.782   5.030   2.683  0.1025 -0.0552  0.2276
11103W        W29957   0.905  15.516  16.093 -0.0849  0.0811  0.3583
11104W        W29958   6.992  17.067  14.307  0.0537  0.0728  0.0756
11105W        W29959  16.825   8.747  15.681 -0.0992  0.0795 -0.0792
11106W        W29960  14.179  14.675   2.977  0.0215  0.1072  0.2536
11107W        W29961   0.509   0.687  16.871 -0.1228 -0.1937 -0.2362
11108W        W29962   7.545  11.900  17.406 -0.2848  0.1542  0.2106
11109W        W29963   5.051   0.317   2.494 -0.0583  0.5059 -0.3617
11110W        W29964  13.631   6.309  11.567 -0.1174  0.1101 -0.2003
11111W        W29965  17.077   2.477   2.112 -0.3468  0.2551 -0.0367
11112W        W29966  13.516   8.766   0.584  0.2277 -0.1122  0.1520
11113W        W29967  11.512  10.536   3.956  0.0948  0.1766 -0.0366
11114W        W29968  11.357  10.843  13.778 -0.1465 -0.0317  0.2853
11115W        W29969   7.800   1.079   4.075 -0.3708 -0.1121  0.0328
11116W        W29970   2.146  16.660  14.361  0.0594  0.0700 -0.1841
11117W        W29971   9.041   3.175  17.173  0.0881 -0.2371 -0.2686
11118W        W29972   0.444   4.646   4.844 -0.1651 -0.0356 -0.0612
11119W        W29973  16.520   4.825  14.793  0.3027 -0.1525  0.1227
11120W        W29974  11.558   5.196  16.518  0.0540 -0.2034  0.0426
11121W        W29975   8.084  14.540   0.256  0.1539  0.2613  0.1112
11122W        W29976   5.826  17.024  15.639 -0.0054  0.3086 -0.0418
11123W        W29977  13.222  12.671  16.253 -0.2881 -0.2675 -0.0110
11124W        W29978   7.333  13.216  15.435 -0.1168  0.3270 -0.2210
11125W        W29979   2.989  17.033  14.469  0.2576 -0.4484  0.0681
11126W        W29980  13.244  14.872   3.999 -0.3104  0.0162  0.2258
11127W        W29981  12.451   9.683   0.951  0.0670  0.1689 -0.2360
11128W        W29982   7.878  12.153   1.974  0.3558 -0.0416 -0.0598
11129W        W29983  10.195   4.034  13.614 -0.1180 -0.1935 -0.2203
11130W        W29984   8.395   4.337   0.251  0.0762 -0.1516  0.3025
11131W        W29985   0.695   1.155   6.293 -0.1645 -0.0460 -0.1910
11132W        W29986   3.697   8.264  14.856 -0.1524  0.0312  0.0588
11133W        W29987   5.216   1.284   4.670  0.4878  0.0008  0.2365
11134W        W29988  11.718   1.409  15.645 -0.0884 -0.0329 -0.1660
11135W        W29989   5.684   2.383   3.318  0.0979  0.2883 -0.0977
11136W        W29990   7.533  13.473  16.374  0.1697  0.3162  0.0718
11137W        W29991  13.498  13.318   4.824  0.1292 -0.1650  0.2040
11138W        W29992   7.610  14.657  11.335 -0.0608 -0.2020  0.0718
11139W        W29993  13.898   5.261  13.529 -0.0395 -0.0821  0.1542
11140W        W29994  12.334   0.740  16.423 -0.0235  0.0050 -0.1520
11141W        W29995  14.845   0.818  14.568  0.0209 -0.0681  0.2382
11142W        W29996   2.214   1.913  13.872 -0.1062 -0.3233  0.0940
11143W        W29997  13.278   8.519  12.022  0.2468 -0.1851 -0.0630
11144W        W29998   9.284   8.348   1.366 -0.0056 -0.0384  0.0725
11145W        W29999  14.169   4.760   4.377  0.1400 -0.2360  0.0698
11146W        W30000  16.321  11.415  16.563 -0.0380 -0.0417  0.1815
11147W        W30001   1.837   2.950  13.717 -0.0926  0.2454  0.1260
11148W        W30002   4.205   3.164  13.950  0.3175  0.1603 -0.0180
11149W        W30003  12.869  14.918   0.290  0.0911 -0.0448 -0.2622
11150W        W30004  13.943  11.701   4.596  0.0351  0.2995  0.2780
11151W        W30005  16.163   8.917  16.910  0.0746  0.1779  0.2661
11152W        W30006  17.175   7.335   0.011  0.0266  0.2184  0.1578
11153W        W30007  16.373  15.570   0.713  0.0661  0.1587  0.0313
11154W        W30008  15.901  11.473   2.665 -0.4107  0.3153 -0.2851
11155W        W30009   5.489   7.368   2.745  0.1339 -0.1313  0.0446
11156W        W30010   7.637   9.773   2.384  0.0957  0.0866 -0.2955
11157W        W30011  17.355  11.139  16.401 -0.1339  0.0039 -0.1304
11158W        W30012  13.200   2.228  17.374 -0.1164 -0.0988 -0.3629
11159W        W30013  13.410  15.395   5.105  0.2377 -0.2419 -0.0315
11160W        W30014  11.780  14.414  15.720  0.0999 -0.1362 -0.4062
11161W        W30015   1.848   3.738  15.058 -0.3572 -0.0620 -0.2672
11162W        W30016  13.791  12.244   2.811  0.0412 -0.0451 -0.0435
11163W        W30017  16.375   8.493  16.640  0.3206  0.0348 -0.0491
11164W        W30018   8.271  11.203  14.320  0.0216  0.0993 -0.0413
11165W        W30019  15.536  11.568  15.858  0.1566  0.0223 -0.0262
11166W        W30020  15.641  11.915   0.993 -0.0712  0.0224 -0.1091
11167W        W30021   3.129  17.106  13.911 -0.0562  0.0282 -0.1774
11168W        W30022  16.710   1.142  15.165  0.0463  0.1915  0.2919
11169W        W30023   7.246  10.099  16.198  0.4396 -0.1374 -0.0122
11170W        W30024   2.918  11.073  16.836  0.1028  0.3692 -0.0956
11171W        W30025  11.860   3.572   5.333 -0.3289 -0.0711 -0.1336
11172W        W30026  11.330   0.226  12.145  0.1980  0.0789 -0.0583
11173W        W30027   5.983   7.459  13.074  0.4752 -0.2049  0.0427
11174W        W30028   9.854   5.045   3.402 -0.4499  0.2535 -0.2746
11175W        W30029   8.316   6.759   4.600 -0.1520  0.1272  0.1917
11176W        W30030  13.994   8.809  16.273  0.1555 -0.2125  0.0820
11177W        W30031   8.710   3.508   3.306 -0.0426  0.0021 -0.0654
11178W        W30032  12.184   8.071   3.804 -0.0309 -0.1437  0.2474
11179W        W30033   5.775   6.767   1.604 -0.0355  0.0883  0.1301
11180W        W30034   8.043   2.639  15.932 -0.0973 -0.4019  0.1901
11181W        W30035   4.107   6.549   5.442  0.0023 -0.1152  0.4466
11182W        W30036   8.415  11.253  17.202 -0.3346 -0.0420  0.4010
11183W        W30037   5.680  15.551  15.445  0.2333 -0.0710 -0.1190
11184W        W30038  11.780   8.049   4.723 -0.1202  0.1662 -0.1069
11185W        W30039  10.840  11.305   0.915  0.1670  0.1949 -0.3120
11186W        W30040  14.309   5.159  12.754  0.0326  0.1066 -0.2158
11187W        W30041   1.908  11.908   1.310 -0.1077 -0.0841 -0.0154
11188W        W30042   2.597   0.930   2.953  0.4305 -0.2763  0.3188
11189W        W30043   1.603  14.007  13.790  0.3032  0.1595 -0.2372
11190W        W30044  15.313   7.414   4.164 -0.1238  0.0209  0.0097
11191W        W30045   0.618   2.631  12.891  0.0815 -0.4087 -0.1770
11192W        W30046  15.587  15.807   0.322  0.1663  0.0920  0.0914
11193W        W30047   4.063   7.581   5.147 -0.0994 -0.0282 -0.0166
11194W        W30048   0.371   6.557  14.992 -0.0155  0.0692 -0.1778
11195W        W30049  12.844  14.192   0.427  0.0077  0.0563  0.1835
11196W        W30050   2.777  13.349   4.690 -0.3183 -0.0904 -0.0390
11197W        W30051   9.055   8.216   3.804  0.0858  0.2566 -0.5017
11198W        W30052   8.254  10.822   4.182 -0.0347  0.0248  0.2284
11199W        W30053   0.303   8.693   1.083  0.1130 -0.2151 -0.3749
11200W        W30054   3.082  13.449   1.353 -0.0745 -0.2194 -0.4837
11201W        W30055   6.003   5.866  14.567  0.0348 -0.2067 -0.4488
11202W        W30056   4.847  11.774   1.162 -0.2893 -0.1841 -0.0512
11203W        W30057   8.420   8.554  16.987 -0.2644  0.0275 -0.0387
11204W        W30058  16.963  14.090  14.549 -0.3439  0.2133  0.1521
11205W        W30059   1.655   5.616  14.889  0.1562 -0.0235  0.1204
11206W        W30060   5.061  11.143  14.296  0.1123  0.0399  0.0103
11207W        W30061   8.656   6.386   4.384  0.0797  0.0601  0.2259
11208W        W30062  14.786  15.229  16.772 -0.0427 -0.0009  0.2115
11209W        W30063   1.239   8.828  15.950  0.0595  0.3639 -0.1907
11210W        W30064  14.661   8.606   3.375  0.0260 -0.0763  0.2907
11211W        W30065   4.135   6.380  16.127 -0.2704  0.0744  0.2441
11212W        W30066  15.703   3.730   4.049  0.1930  0.0693 -0.1818
11213W        W30067   4.073   8.915   1.148 -0.3257  0.0866 -0.0903
11214W        W30068  14.000  13.732   4.349 -0.0320 -0.1348  0.1527
11215W        W30069  11.047   8.665  14.712  0.0059 -0.0895  0.2582
11216W        W30070   5.811  11.036   4.961 -0.2274 -0.2691 -0.1723
11217W        W30071   8.988   6.184  13.940  0.1147 -0.0996 -0.2660
11218W        W30072   0.358   4.790   1.312 -0.1658 -0.0265 -0.1666
11219W        W30073  10.823  10.668  12.212  0.0904 -0.0129  0.1019
11220W        W30074   9.761   0.585  16.394  0.0329 -0.0605 -0.0062
11221W        W30075   6.317  14.805   4.896 -0.1801  0.2413 -0.0388
11222W        W30076  12.281   2.176   3.139 -0.1233 -0.0086  0.0243
11223W        W30077   8.016   3.167   2.813  0.1518 -0.0226  0.3737
11224W        W30078  13.201  11.572  12.338 -0.0676  0.2573 -0.2209
11225W        W30079   3.360   6.857   3.166 -0.0853 -0.0727  0.2129
11226W        W30080   1.413  15.063  16.730  0.3041  0.5386  0.0466
11227W        W30081   9.135   5.214  14.200  0.0652  0.1733  0.1899
11228W        W30082   5.947  10.059  14.848 -0.0217  0.2598 -0.2889
11229W        W30083   6.490   3.171   2.960  0.0602  0.1761 -0.0623
11230W        W30084  16.740   6.166  15.149  0.0664  0.1976 -0.0331
11231W        W30085   1.363   4.966   4.456 -0.0165 -0.0670 -0.1557
11232W        W30086   7.389  16.722  12.523  0.1666 -0.1172 -0.0058
11233W        W30087  13.789   4.422   1.920 -0.1435  0.1240  0.1577
11234W        W30088   0.230  11.478  14.321  0.2805  0.2067  0.0167
11235W        W30089  12.114  10.413  13.442 -0.2263  0.1905  0.1526
11236W        W30090  13.674   3.072  12.589  0.1593  0.2360 -0.0442
11237W        W30091  13.866   1.723   3.195 -0.0074 -0.1314 -0.1481
11238W        W30092   4.241   5.513  13.120 -0.0716 -0.1712  0.2579
11239W        W30093  15.939   5.652  13.718 -0.1807  0.1354 -0.0796
11240W        W30094   2.401   5.886  17.379 -0.1165 -0.2441 -0.1963
11241W        W30095   3.105  15.595  15.024 -0.1256  0.1191  0.1592
11242W        W30096  17.381   7.455  13.083 -0.0512 -0.0582  0.0410
11243W        W30097   3.026   2.231  16.301 -0.1547 -0.5003  0.3026
11244W        W30098   5.809   8.557   0.578  0.0671 -0.3076  0.2560
11245W        W30099  13.819   9.472   2.086  0.1056  0.0398 -0.1731
11246W        W30100   7.654   5.901  14.560 -0.4173  0.0261  0.2238
11247W        W30101   1.850   0.334   0.906  0.4320 -0.0747 -0.2908
11248W        W30102  12.622  11.917  14.692 -0.2326  0.4005  0.0218
11249W        W30103   0.880   7.511   0.588  0.2087 -0.0715  0.1314
11250W        W30104  11.602   6.101  15.997  0.1454  0.1455 -0.0382
11251W        W30105  14.803   1.244  14.966 -0.1405 -0.0810  0.0214
11252W        W30106   6.581   9.839  16.647  0.2885 -0.1636 -0.0445
11253W        W30107   1.284  16.648   1.849  0.0041 -0.1703 -0.0593
11254W        W30108  17.090  11.024  14.720  0.0398  0.0195  0.0639
11255W        W30109   8.208   7.623   5.240 -0.1603  0.1135  0.0816
11256W        W30110   8.900  14.470  12.826  0.0449 -0.1223  0.1753
11257W        W30111  14.767  15.950   0.083 -0.0376 -0.2282 -0.0301
11258W        W30112  12.008   8.473   3.019  0.0591  0.0994 -0.0619
11259W        W30113  12.981   2.170   0.726  0.0372 -0.1066 -0.0546
11260W        W30114  16.466  12.050  12.529  0.2017  0.0370  0.1445
11261W        W30115  12.550   8.200  16.973  0.0855  0.0201 -0.0982
11262W        W30116  11.068   4.432   2.297 -0.0621 -0.0020 -0.4122
11263W        W30117  17.087   3.058   5.237  0.0481 -0.1496  0.1708
11264W        W30118   6.398   1.663   2.393 -0.0529  0.0617 -0.4088
11265W        W30119  14.292   5.070  13.801 -0.2462 -0.1607  0.1776
11266W        W30120  14.431   9.413   3.839  0.0100 -0.0742 -0.2423
11267W        W30121  12.897   4.834   4.519  0.0327  0.0887 -0.2244
11268W        W30122   9.137  11.299   1.150 -0.1138  0.1914  0.2264
11269W        W30123  14.308   9.077   3.412  0.1095  0.1951 -0.1097
11270W        W30124  14.896   9.691   3.470 -0.0317 -0.2811 -0.1228
11271W        W30125  14.247  12.050  11.664  0.0159 -0.3048  0.2497
11272W        W30126   1.270   6.943  14.692  0.2751 -0.0245 -0.1396
11273W        W30127  10.970  16.478  13.681 -0.1657 -0.0130 -0.0825
11274W        W30128   1.260  12.852  13.299  0.2664 -0.2234 -0.0795
11275W        W30129  11.672   3.936   5.029  0.0016  0.1045  0.0171
11276W        W30130   7.035   2.868  16.552 -0.2240 -0.2494  0.1650
11277W        W30131  10.407   5.701  13.633  0.0738  0.0520 -0.0342
11278W        W30132  13.253  16.587  12.683 -0.1920 -0.1015  0.0792
11279W        W30133   1.565   3.776  14.109  0.0781 -0.1352 -0.3283
11280W        W30134  16.787   1.043  15.801  0.2606 -0.1815  0.0265
11281W        W30135   0.614   8.266  14.924 -0.1395 -0.0716  0.2142
11282W        W30136   0.147   3.834   0.218 -0.0596  0.0115 -0.1039
11283W        W30137   0.165   8.784   2.204  0.1922  0.1409  0.3724
11284W        W30138  15.045  12.460   3.314 -0.0990 -0.2097  0.2926
11285W        W30139   9.314   2.643  14.904  0.2066  0.1812 -0.0214
11286W        W30140   2.602   2.551   4.458 -0.3025  0.1337 -0.1224
11287W        W30141  17.307   7.354  15.605  0.1241  0.4159 -0.3085
11288W        W30142   6.388  17.382   2.551 -0.0651  0.1331 -0.1956
11289W        W30143  10.801   9.200  12.398 -0.1144 -0.0392  0.1369
11290W        W30144  12.811   8.602   4.883  0.3308  0.1383  0.0692
11291W        W30145   3.891  14.839  17.185  0.2553  0.0470  0.1439
11292W        W30146   6.952   5.427   4.353 -0.0536  0.0490 -0.1256
11293W        W30147   2.222   8.558   3.207 -0.3165 -0.1092  0.1429
11294W        W30148   9.793   2.502  17.161  0.0779  0.2372  0.1387
11295W        W30149  12.724   0.948   0.259  0.0581  0.0002  0.0493
11296W        W30150  16.866   3.179  12.278 -0.0363  0.2142 -0.2781
11297W        W30151   3.950  16.408   5.098  0.0033 -0.0223  0.1536
11298W        W30152   7.709  11.581   2.992  0.1040 -0.0379  0.0828
11299W        W30153   0.837   7.279  14.483  0.0960 -0.1424 -0.0561
11300W        W30154  13.122  13.003  17.186  0.1259 -0.1316  0.1284
11301W        W30155   8.432  17.113   1.611  0.1165  0.4319 -0.1298
11302W        W30156   1.861   2.511   1.192 -0.1642 -0.2512 -0.2046
11303W        W30157  12.603   4.805  14.679 -0.2265  0.2840  0.2050
11304W        W30158   4.166   6.637  13.041  0.1273 -0.2317  0.1713
11305W        W30159  11.063   1.076  16.133 -0.0720 -0.0095  0.0206
11306W        W30160   8.515  14.876  13.256 -0.0946  0.1027  0.1507
11307W        W30161   2.938   9.564  16.238 -0.0318  0.3322 -0.2208
11308W        W30162   1.527   8.067  13.297  0.0924  0.1228  0.0459
11309W        W30163  16.904   5.158  14.511  0.1743 -0.1041 -0.2751
11310W        W30164   3.621   6.385   3.018 -0.2212  0.3264  0.1941
11311W        W30165   3.415  10.395  15.992 -0.0529  0.0643  0.1050
11312W        W30166  17.113   6.378  16.362 -0.0736 -0.0748  0.2029
11313W        W30167  10.165   8.599   4.470 -0.1436  0.2883  0.0320
11314W        W30168   8.127   9.947   1.059 -0.0095  0.1955 -0.3349
11315W        W30169  15.322   9.487  13.073 -0.1969  0.3671  0.1719
11316W        W30170   7.432   5.759  12.832  0.0061 -0.2294 -0.1647
11317W        W30171  14.725  10.915   1.144 -0.1847 -0.2557 -0.2360
11318W        W30172   2.587  15.153  15.825  0.2266 -0.0799  0.0307
11319W        W30173   0.680  13.859   1.102  0.0348  0.1893  0.4500
11320W        W30174  14.197   7.440   2.265  0.2126  0.3657 -0.1958
11321W        W30175   1.717   8.481   2.606  0.3549 -0.2707 -0.0184
11322W        W30176  10.080  13.954  16.744 -0.1331  0.2265  0.1641
11323W        W30177   5.023  16.606   3.637  0.1912  0.0087 -0.1996
11324W        W30178   0.872   0.376  15.921  0.1995  0.1216 -0.1190
11325W        W30179   1.018  15.487   5.344  0.1146  0.3258  0.1944
11326W        W30180  10.347  14.108  14.608 -0.1071  0.0290  0.0236
11327W        W30181  12.925   3.651   3.185 -0.1294  0.0850 -0.2505
11328W        W30182   2.293  13.325  15.564  0.2109 -0.0492  0.1317
11329W        W30183  11.357   4.449  14.855 -0.2772 -0.2235  0.1811
11330W        W30184   7.639   3.251   0.794  0.0688  0.2877  0.1187
11331W        W30185  12.306   6.337  17.140  0.0767 -0.1573  0.1484
11332W        W30186   3.098  14.472   5.720 -0.0545 -0.0545  0.0289
11333W        W30187   5.325   8.938  12.443 -0.0119 -0.1317  0.0115
11334W        W30188   6.952  11.019   2.016  0.4208  0.1244 -0.0458
11335W        W30189  12.895   1.015  13.580 -0.1589 -0.1542 -0.0175
11336W        W30190   4.799  12.926   5.454  0.0933  0.0613  0.0748
11337W        W30191   5.520  12.280  16.832 -0.3175  0.0344  0.1194
11338W        W30192   3.658  15.692  13.540  0.0409 -0.2456 -0.2169
11339W        W30193   5.116   2.200   2.502  0.3422 -0.2168 -0.1768
11340W        W30194  15.903   4.637   0.205  0.0311 -0.0428  0.0930
11341W        W30195   1.497   1.331   0.174  0.0771 -0.0708  0.1202
11342W        W30196   1.843   5.078   4.626 -0.1210  0.3367 -0.2003
11343W        W30197   4.916  15.185   4.864  0.1027  0.0504 -0.1569
11344W        W30198   2.312   4.357  14.999  0.3401  0.2794 -0.1561
11345W        W30199   6.570  13.138   3.746 -0.1819 -0.3753  0.0269
11346W        W30200   2.533  12.620   5.072  0.0413 -0.0365  0.1188
11347W        W30201   8.467  15.892  12.581 -0.0574  0.1106 -0.0184
11348W        W30202  11.311   5.258   0.620  0.2449 -0.2309 -0.0798
11349W        W30203   6.946   2.677   4.688  0.0483  0.0333  0.1204
11350W        W30204   8.584   3.735  15.950 -0.2385 -0.1024  0.3957
11351W        W30205   1.575  11.504   4.752  0.0450 -0.0925 -0.2818
11352W        W30206   1.228   3.128  13.530 -0.1012 -0.0236  0.0615
11353W        W30207   3.012  11.979  17.208 -0.2729 -0.0879 -0.1978
11354W        W30208   7.698   3.240   3.222  0.0913  0.0214  0.1622
11355W        W30209   8.142   5.129   0.211  0.1338 -0.2168 -0.0777
11356W        W30210   6.686   3.156  17.344  0.0129  0.0547  0.2570
11357W        W30211  16.982  11.350  16.749 -0.0452  0.0395  0.3045
11358W        W30212   3.565  14.505   3.882 -0.0375  0.1868 -0.1402
11359W        W30213   3.371  10.934  17.116  0.0523  0.5046 -0.1218
11360W        W30214   8.860  15.781   4.385 -0.1406 -0.0036 -0.1345
11361W        W30215   9.547   6.955   3.029  0.2349 -0.0830 -0.4374
11362W        W30216   0.819  13.629  13.454  0.0462 -0.1477 -0.0929
11363W        W30217   2.275  17.165   4.162 -0.0497  0.2817  0.2510
11364W        W30218  12.253  13.349   1.745 -0.1007  0.0380  0.2157
11365W        W30219  12.851   6.298  11.832  0.1185 -0.0753  0.0480
11366W        W30220   9.500  15.830   1.342  0.0692  0.1318  0.0488
11367W        W30221   1.590  16.886   1.509  0.0786 -0.0901 -0.1453
11368W        W30222   1.853   5.224   3.032 -0.3787  0.0985 -0.1757
11369W        W30223  14.319   3.933  15.452  0.1328  0.0546  0.3938
11370W        W30224  16.792  17.143  15.484  0.1607  0.1947  0.4117
11371W        W30225  17.203   0.007  16.773 -0.1300 -0.2090  0.0569
11372W        W30226  12.307   6.820  17.392  0.1832  0.1226  0.0465
11373W        W30227  10.083  14.993  14.301 -0.1624 -0.1936 -0.4179
11374W        W30228  11.454  10.928   3.544  0.1944  0.0676 -0.1241
11375W        W30229   6.678  14.076   1.966  0.2922  0.1193  0.0728
11376W        W30230   5.864  12.682   4.748  0.1019  0.0933  0.1677
11377W        W30231   5.477   8.236   0.739 -0.1823 -0.2379 -0.1355
11378W        W30232   3.676  11.128   0.419  0.1584  0.1653  0.0118
11379W        W30233   6.348  14.892  13.458  0.0037  0.3147 -0.3445
11380W        W30234   2.642  10.677  12.853  0.0930 -0.0364 -0.0891
11381W        W30235   2.052  15.405  17.376  0.3044  0.1931  0.0158
11382W        W30236   3.977   7.338   3.296  0.0413 -0.0582 -0.1574
11383W        W30237  13.470   8.070  13.722  0.2017 -0.0483 -0.0355
11384W        W30238   6.817  12.879  14.047  0.0134 -0.2661  0.0725
11385W        W30239   8.995   3.201   1.122 -0.1682 -0.0151  0.1443
11386W        W30240   1.221  10.198  15.549 -0.1012 -0.1602 -0.0825
11387W        W30241   3.774  10.719  14.393 -0.1924  0.0432  0.2566
11388W        W30242   0.174   9.638  13.120  0.0369 -0.3494  0.1103
11389W        W30243  16.724   2.087   5.199 -0.3304  0.0839  0.0951
11390W        W30244  11.649  14.897  15.561  0.1800 -0.3119  0.1845
11391W        W30245   7.861   3.643   2.347 -0.4256 -0.1579 -0.0165
11392W        W30246   4.390   3.601   3.441 -0.4128  0.1276  0.1759
11393W        W30247   4.952  14.187  14.435  0.0388 -0.2713 -0.1098
11394W        W30248  15.311   7.593   1.405  0.3394  0.1506  0.1691
11395W        W30249  12.792  12.324  15.419 -0.2131 -0.0584  0.0611
11396W        W30250   2.899   5.072  16.249 -0.1904 -0.2566  0.0245
11397W        W30251   4.696  17.204   2.493  0.2180 -0.1582  0.0452
11398W        W30252  13.751  12.530   0.610  0.0785 -0.0898  0.2080
11399W        W30253   9.432   1.021  17.381 -0.5557 -0.4500  0.1210
11400W        W30254  16.744  11.230   2.241 -0.4392 -0.0523 -0.0010
11401W        W30255  14.592   2.912  14.044  0.0098 -0.0068  0.2747
11402W        W30256   9.817   9.688   3.435 -0.0462  0.1376 -0.2972
11403W        W30257  15.982   1.399  13.898 -0.0813 -0.2394 -0.0449
11404W        W30258   0.045  14.349   4.945 -0.2306  0.0064 -0.2790
11405W        W30259   8.764   5.622   3.335  0.0421 -0.2108 -0.1311
11406W        W30260   8.597   8.908   1.180  0.0673  0.0373 -0.1145
11407W        W30261   3.137   7.803  12.399 -0.0087  0.2987 -0.2455
11408W        W30262   0.664  13.066  16.552  0.0456  0.0608  0.1699
11409W        W30263   1.208  12.510   3.551 -0.1411  0.1631  0.2952
11410W        W30264   6.228  13.914  15.314 -0.1779 -0.1795  0.0829
11411W        W30265   0.217   6.735   2.545  0.1847 -0.0514  0.3666
11412W        W30266  11.864  14.540  14.710 -0.4720  0.2492 -0.0153
11413W        W30267   1.283  14.800   4.424  0.0629 -0.1558 -0.1079
11414W        W30268   4.731   3.138  13.282 -0.0742 -0.1378  0.1052
11415W        W30269  14.694   4.306   0.312  0.4735  0.0639 -0.1271
11416W        W30270   4.291  17.201   0.037  0.2630 -0.0626 -0.0307
11417W        W30271  11.657  17.348   2.128 -0.3205  0.0960 -0.1254
11418W        W30272  10.334   1.095   2.075  0.1358 -0.0747  0.1800
11419W        W30273  10.024  16.879  14.797 -0.1463  0.1275  0.2694
11420W        W30274   5.667   8.655   0.066 -0.0828 -0.1224  0.0432
11421W        W30275  16.771  10.658  17.067  0.1396  0.0194  0.0091
11422W        W30276  16.504  16.354   1.106 -0.0812 -0.1236 -0.2249
11423W        W30277   7.264  14.622   3.330  0.1282  0.1044  0.0726
11424W        W30278  10.391   8.679  17.118 -0.0763 -0.1212 -0.1541
11425W        W30279   3.086   0.556   3.551 -0.1609  0.0397 -0.0819
11426W        W30280  12.585   1.566  12.430  0.2876  0.0662  0.0598
11427W        W30281   2.075  15.839   1.322 -0.1578 -0.2139  0.0458
11428W        W30282   5.157  12.473   4.134  0.3602  0.0341  0.1346
11429W        W30283  14.252   6.153  15.368 -0.1106  0.0182  0.0610
11430W        W30284   4.063   7.392   2.029 -0.1394  0.3600  0.1630
11431W        W30285   8.586   0.029   1.168 -0.2492  0.3458 -0.3081
11432W        W30286   0.859   3.088   2.844  0.0447  0.0745  0.2060
11433W        W30287  13.140  10.742   2.983  0.0942 -0.1433  0.0135
11434W        W30288  10.111   7.965   5.974 -0.1451 -0.0101  0.0905
11435W        W30289   3.376   2.668  14.114  0.0451 -0.0645  0.1076
11436W        W30290   0.229  12.862   1.679  0.1466 -0.1131 -0.0296
11437W        W30291   3.882  14.260  13.651  0.3723  0.0255  0.1151
11438W        W30292  16.963  12.631   3.896 -0.0746 -0.0960 -0.0241
11439W        W30293   7.716  10.370  13.434  0.1748  0.0497 -0.1730
11440W        W30294   2.819  17.009   1.329  0.1661  0.1594  0.2224
11441W        W30295   4.539  11.245  16.197  0.1258  0.4065 -0.4414
11442W        W30296  14.176  16.942   4.459 -0.2039 -0.1285  0.0622
11443W        W30297   1.755  11.166  16.693 -0.1641 -0.0176 -0.1802
11444W        W30298   1.840   2.345  16.868  0.0468 -0.2026  0.0790
11445W        W30299  12.666   3.217   3.793 -0.0852 -0.2446  0.1413
11446W        W30300   2.229   7.696   5.293  0.2810 -0.1462  0.0978
11447W        W30301   1.944   8.361  12.641  0.0119 -0.1976 -0.2915
11448W        W30302   8.262   3.937  12.459 -0.1903  0.0914 -0.1876
11449W        W30303   3.767   0.578   1.224  0.5126  0.0946  0.0231
11450W        W30304   3.081   5.030  14.998 -0.0665  0.2631  0.0922
11451W        W30305  12.845  11.058   3.280 -0.1665 -0.4427 -0.0305
11452W        W30306   4.705  14.510   4.274  0.0018 -0.2556 -0.0074
11453W        W30307   3.302   6.899   6.079 -0.1597 -0.0420  0.0161
11454W        W30308   7.428  15.892  16.301 -0.3057 -0.0282  0.0535
11455W        W30309   4.845  14.486  13.641  0.0294  0.1821  0.2412
11456W        W30310   3.784  11.449  16.354  0.3276  0.1722 -0.0068
11457W        W30311   7.633  17.156  16.788  0.0407 -0.1364 -0.3147
11458W        W30312   8.009   5.664  14.146  0.1079 -0.1243 -0.0122
11459W        W30313   7.582  15.944  14.515 -0.2023 -0.0658 -0.2238
11460W        W30314   2.760   4.672   3.854 -0.0870  0.0087  0.0099
11461W        W30315   5.070  12.648   3.673  0.1790  0.0135 -0.1903
11462W        W30316   8.100   4.555   3.139  0.3320 -0.1246 -0.0026
11463W        W30317   0.413  10.600  13.500  0.0538  0.1130  0.1215
11464W        W30318   0.926  10.447   2.283  0.0675 -0.0027 -0.2781
11465W        W30319  14.348  14.461   0.607  0.0619  0.4099 -0.3247
11466W        W30320  16.859   2.385   1.241  0.0547 -0.1239  0.1949
11467W        W30321   0.023   0.748   0.534  0.1358 -0.2696 -0.0730
11468W        W30322  14.263   8.333  15.584 -0.0176 -0.0128  0.0051
11469W        W30323   8.112   1.294  12.999 -0.1641  0.2819  0.1231
11470W        W30324  16.029   4.086   1.977  0.1927 -0.1709 -0.0259
11471W        W30325   5.676  16.452   5.104 -0.2782 -0.2957  0.0992
11472W        W30326   2.450  13.262  13.653 -0.3201 -0.1372 -0.4361
11473W        W30327   0.419  16.258  13.660  0.0291 -0.0383  0.2553
11474W        W30328   9.542   1.929  12.407 -0.0510 -0.0391  0.3026
11475W        W30329   8.587   1.379  17.388 -0.0609  0.0576  0.2466
11476W        W30330   2.057   6.205   1.097  0.1206  0.3334 -0.1121
11477W        W30331   3.074   2.321  13.855  0.1766 -0.1730  0.1098
11478W        W30332  14.404  10.615   3.092 -0.3846  0.0153 -0.0880
11479W        W30333  14.348  13.394   4.596  0.0782  0.3437  0.0686
11480W        W30334   2.672   9.883  13.929  0.0257  0.1480 -0.1537
11481W        W30335   4.051   5.986   1.630  0.0459  0.2613  0.0590
11482W        W30336   5.744   7.928  15.193  0.2689  0.0099 -0.0829
11483W        W30337   6.651   8.678   1.395  0.0716 -0.0295  0.1373
11484W        W30338   5.809   5.391   3.866 -0.1876  0.0065  0.1316
11485W        W30339   7.858   8.807  16.214  0.2817  0.1691 -0.1561
11486W        W30340  11.743   2.738  12.467  0.0618  0.2154 -0.1144
11487W        W30341  10.095  11.806   4.952 -0.0962 -0.0453 -0.1103
11488W        W30342   7.461   8.474  14.781  0.2138 -0.0082  0.3097
11489W        W30343   8.410   7.708   1.953 -0.1411 -0.1385  0.0668
11490W        W30344  12.407  10.631   4.398  0.0774  0.0323 -0.0231
11491W        W30345  12.195   2.311   4.585 -0.0480  0.2713 -0.1193
11492W        W30346   9.799  15.887  14.682  0.0988 -0.3319 -0.1135
11493W        W30347  15.270   5.737   0.834 -0.2248  0.2282  0.1065
11494W        W30348  14.704   9.014  12.695 -0.0366  0.0635 -0.0356
11495W        W30349   1.307  16.883   3.765  0.1006 -0.1950 -0.1338
11496W        W30350  13.428  15.116  13.875 -0.0138 -0.0776  0.3868
11497W        W30351  10.862   7.511  14.580  0.1424  0.1123  0.0471
11498W        W30352  15.082  12.231   0.507 -0.0067 -0.1844 -0.0193
11499W        W30353   2.096  12.558  16.288  0.0117 -0.0969  0.1113
11500W        W30354   9.797   6.781  14.932  0.2130 -0.1630 -0.1062
11501W        W30355   3.443  16.754   4.199 -0.2176 -0.1575  0.1075
11502W        W30356  14.535  17.121   4.127 -0.2073 -0.1709  0.1593
11503W        W30357  15.752   9.123   4.324  0.0175  0.0179  0.4074
11504W        W30358  11.659  10.183  12.243 -0.0476  0.1132  0.0296
11505W        W30359   9.127  16.633  15.065 -0.0384 -0.2177 -0.0370
11506W        W30360  13.420   0.357   3.783  0.0187 -0.2219 -0.1964
11507W        W30361  17.030   5.618   2.708 -0.2526  0.1283  0.0905
11508W        W30362   1.802   6.728  17.207 -0.2346 -0.1076 -0.0080
11509W        W30363  13.532   1.461   5.096 -0.0579 -0.1024  0.3242
11510W        W30364   4.116   9.305  16.993 -0.2621 -0.0461  0.1233
11511W        W30365   3.886   9.526   1.214  0.1772  0.1030  0.2238
11512W        W30366   7.108  16.205  14.658 -0.1004 -0.0052  0.0376
11513W        W30367  11.323  14.873   0.093 -0.0811  0.2144  0.0180
11514W        W30368  14.279  10.201   4.233  0.0921  0.1415 -0.1459
11515W        W30369  12.725   6.552  15.367  0.1970  0.1724  0.3703
11516W        W30370   4.804   1.102  17.227  0.1917 -0.0432  0.2199
11517W        W30371   3.331   9.496   3.032  0.0675 -0.0684  0.1747
11518W        W30372  15.183  10.016   2.516 -0.1616 -0.1310  0.2101
11519W        W30373  13.836   3.773   1.380 -0.1615  0.2253  0.1342
11520W        W30374  16.520   4.939   1.318 -0.2688 -0.0466  0.1092
11521W        W30375   5.802   3.072  14.518  0.0627 -0.1814  0.1108
11522W        W30376   5.260   1.791   1.505 -0.0429  0.0707 -0.5406
11523W        W30377   7.872   1.519  14.211  0.2551 -0.0050  0.1066
11524W        W30378   1.097  13.436   0.722  0.0726 -0.0186 -0.3823
11525W        W30379   8.104  11.317   3.177 -0.1353  0.0333  0.1795
11526W        W30380  13.080   6.201   2.465 -0.0530  0.0673  0.2049
11527W        W30381  13.721   9.910   3.506  0.1939 -0.1325  0.0848
11528W        W30382   3.282  11.888  13.687 -0.1185  0.1564 -0.4633
11529W        W30383   4.276   1.291  14.964 -0.1412  0.1426  0.0546
11530W        W30384   0.379   4.805  12.505  0.0033 -0.0062 -0.1354
11531W        W30385  12.856  15.274   1.965 -0.1248  0.1967 -0.1211
11532W        W30386   9.282   6.132  12.276 -0.2155 -0.0184  0.0427
11533W        W30387  10.815   3.775  12.844  0.3517  0.1743 -0.1773
11534W        W30388   9.954   0.927  13.768 -0.2887  0.1357  0.0451
11535W        W30389   9.061  13.338  16.094 -0.0200  0.0008 -0.1287
11536W        W30390   3.290  11.363  13.773 -0.1253  0.2643 -0.6269
11537W        W30391   4.804  12.333  16.927  0.0478  0.0396 -0.1339
11538W        W30392   0.378  14.136   0.756 -0.1444 -0.2307  0.1124
11539W        W30393  12.365   6.096   1.927  0.0178  0.0378  0.0365
11540W        W30394  10.620   7.891   3.962  0.0088 -0.2511  0.2020
11541W        W30395  15.076  11.492  14.350  0.0455  0.1802 -0.2661
11542W        W30396  16.493   4.980  13.822 -0.2351  0.1453 -0.1521
11543W        W30397   3.357  15.092   4.691 -0.0927  0.3778 -0.2443
11544W        W30398   2.801   0.987  13.644 -0.1844  0.0075  0.2962
11545W        W30399   4.817   9.932   3.329  0.0627 -0.0391 -0.0381
11546W        W30400  15.382   5.253   2.932  0.0574 -0.3024 -0.3408
11547W        W30401   0.265   7.745   5.635  0.3360  0.0944 -0.3640
11548W        W30402  12.464   5.704   0.849 -0.1533  0.0106 -0.1745
11549W        W30403  13.698  15.494   2.338 -0.0491 -0.0248 -0.3109
11550W        W30404   3.294   3.212  12.437 -0.2950 -0.0424  0.0210
11551W        W30405   7.457  11.003   2.715  0.0850 -0.1051 -0.2185
11552W        W30406   8.521   3.058   2.024 -0.2142  0.1538  0.0765
11553W        W30407   1.394   1.516  12.471 -0.0954 -0.0284  0.0427
11554W        W30408   2.112   7.166   2.975  0.2116 -0.1679  0.0356
11555W        W30409  16.066  15.534   3.691  0.2780  0.2560 -0.2091
11556W        W30410   6.004  10.074   1.896 -0.1176 -0.1136 -0.0110
11557W        W30411   4.787  11.388  13.933 -0.1492  0.2569  0.0748
11558W        W30412   0.479  10.463   1.301  0.3697  0.2091 -0.0146
11559W        W30413   8.294   0.950  15.695  0.2580 -0.1327 -0.1369
11560W        W30414   3.993  16.876  14.760 -0.2008 -0.1844 -0.1513
11561W        W30415  11.301   3.126   1.622  0.0114  0.3523 -0.0174
11562W        W30416   6.604   2.567  14.344  0.0095 -0.4472 -0.2055
11563W        W30417   9.704   9.540  13.825 -0.1289 -0.1191  0.1913
11564W        W30418   9.388  12.798   1.082  0.1712  0.0591 -0.1183
11565W        W30419  15.615   8.924  16.703 -0.1381 -0.0822 -0.1251
11566W        W30420  13.836   6.970  17.222 -0.0378  0.0621 -0.1159
11567W        W30421  12.457   8.799   4.544  0.1937  0.3357 -0.0626
11568W        W30422  15.252  15.377   2.160  0.0295 -0.4673  0.0999
11569W        W30423   9.907   1.932   1.751 -0.1592 -0.1452 -0.2731
11570W        W30424   6.162   8.824   0.162 -0.0597  0.1477 -0.2877
11571W        W30425   8.499   8.454  12.193 -0.3511  0.1267  0.4317
11572W        W30426   0.264   9.750  16.465 -0.0164  0.0870 -0.1563
11573W        W30427  12.791  13.964  16.072  0.1074  0.1754 -0.0593
11574W        W30428   7.010  15.635  12.895 -0.2684 -0.2582  0.0185
11575W        W30429  14.816  11.155   4.421 -0.1524  0.0901 -0.2204
11576W        W30430  17.331  17.073  13.898 -0.1293  0.2797  0.1521
11577W        W30431  15.326  13.655  14.609 -0.0886 -0.1646  0.1378
11578W        W30432   1.854   4.349   0.618 -0.1789 -0.2550  0.1465
11579W        W30433  13.872  12.631  16.845 -0.0653 -0.1886 -0.2985
11580W        W30434  10.417   2.861   1.918  0.1371  0.1089  0.1284
11581W        W30435   5.483  11.449  13.010 -0.0851  0.2023 -0.0215
11582W        W30436  15.897  12.325   0.993  0.2824  0.0059 -0.0380
11583W        W30437  10.596   3.156  12.075  0.1181 -0.1230 -0.1844
11584W        W30438   1.464  12.489   4.887  0.1159  0.0107 -0.0388
11585W        W30439   2.199   9.306   2.810 -0.0795  0.0167 -0.0614
11586W        W30440   9.737  10.523  14.902 -0.3416 -0.1789  0.0533
11587W        W30441   8.406   5.471   4.615 -0.1917  0.2161 -0.1730
11588W        W30442  14.732   3.141   5.075  0.2254 -0.1402 -0.0919
11589W        W30443   0.579  11.964  14.681 -0.1307  0.2183  0.1251
11590W        W30444   8.169  15.156  14.944  0.1354  0.0259 -0.0268
11591W        W30445  10.233   6.167  13.732  0.1238 -0.0812  0.0243
11592W        W30446  16.303   4.238  15.406 -0.0044  0.0028  0.1948
11593W        W30447   4.917  12.971   1.452  0.2785 -0.2960  0.3350
11594W        W30448  13.566   9.969  15.586  0.2539  0.1885  0.0813
11595W        W30449   2.565   7.227  12.787 -0.0966 -0.2609  0.0576
11596W        W30450   0.008  10.552   1.918  0.1594 -0.0372  0.2458
11597W        W30451   7.154  15.238  16.118 -0.0629  0.2302 -0.3597
11598W        W30452   1.246   5.944   2.583  0.2398  0.0000  0.0858
11599W        W30453  15.513   6.790   1.460  0.2960  0.1794 -0.0225
11600W        W30454   0.328  13.959   2.051 -0.0262  0.1284 -0.1601
11601W        W30455  16.846  11.005   0.671 -0.0789 -0.1822 -0.3554
11602W        W30456  10.569   7.460   4.790  0.1633 -0.3912 -0.3200
11603W        W30457   1.108  13.571  17.307 -0.1187 -0.1260 -0.1101
11604W        W30458   3.759   3.487   1.882  0.2157 -0.1657  0.1650
11605W        W30459   9.991   6.783   0.794 -0.0217 -0.1134  0.2425
11606W        W30460   8.461   2.696  15.686 -0.0952  0.0922  0.2498
11607W        W30461   3.146   4.710   3.330 -0.1457  0.2235 -0.2937
11608W        W30462   1.510   5.181  14.281  0.1598  0.3113 -0.2034
11609W        W30463   6.800   1.878   3.292 -0.1402  0.2187 -0.1020
11610W        W30464  16.409   6.740   3.761 -0.0543  0.1094  0.0115
11611W        W30465  17.158  16.685   4.533 -0.1063  0.0253  0.1724
11612W        W30466   1.089   8.178  17.259 -0.0367  0.2836 -0.0125
11613W        W30467   2.909   9.882  16.607 -0.2065 -0.1168  0.0309
11614W        W30468   3.340   5.756  16.788 -0.1539 -0.2308 -0.0256
11615W        W30469   2.569   8.333   3.561  0.1585  0.0003  0.0288
11616W        W30470   8.718  16.636   4.345 -0.2743  0.1760  0.1274
11617W        W30471  15.017  13.423  12.679  0.2282 -0.0320 -0.2848
11618W        W30472   6.309  16.532  17.224 -0.0472  0.1332  0.2814
11619W        W30473  12.353  16.985   2.631  0.2156  0.2819  0.2223
11620W        W30474  11.784   5.833  12.412  0.1845  0.3718  0.1022
11621W        W30475  11.914   7.165  11.330 -0.1268 -0.2726  0.3044
11622W        W30476   6.886   3.956   0.069  0.0045 -0.0340  0.0290
11623W        W30477   5.191   3.944   0.798  0.2531 -0.0243 -0.1379
11624W        W30478   1.306   2.899   3.039 -0.0511  0.1306 -0.1926
11625W        W30479   4.591  11.407  16.766 -0.0454 -0.1354 -0.1478
11626W        W30480   0.245  15.428   2.724 -0.1709 -0.1763  0.1819
11627W        W30481   5.090  17.026  13.532  0.0747  0.2960  0.0525
11628W        W30482   7.059  15.490   5.254  0.1695  0.1721  0.0521
11629W        W30483  10.741   2.538  15.117 -0.3579 -0.2157 -0.3122
11630W        W30484  14.990   6.310  16.920 -0.0489  0.1031 -0.2177
11631W        W30485   1.911   1.148   0.394  0.2111 -0.2150 -0.3053
11632W        W30486   1.256  10.558   1.938  0.2057  0.1668 -0.0520
11633W        W30487   1.808  12.450   1.876 -0.1422  0.1926  0.0424
11634W        W30488   6.746   6.226  13.902 -0.1038  0.3205 -0.1488
11635W        W30489   1.057   8.546  16.891 -0.3116 -0.2503  0.0793
11636W        W30490   9.240  10.917   0.763 -0.1262 -0.1907 -0.0007
11637W        W30491   1.296  12.527  15.962  0.0050 -0.0295 -0.1794
11638W        W30492   4.266   0.581  15.995  0.1962 -0.0218 -0.0907
11639W        W30493   6.427  14.992   0.764  0.0524 -0.4342 -0.1313
11640W        W30494  16.223  16.479   3.819  0.0825 -0.4791  0.0451
11641W        W30495   4.888   2.263  16.361 -0.0033 -0.1625 -0.0282
11642W        W30496   8.406  12.882   0.289 -0.0604  0.1567  0.0029
11643W        W30497   1.361   8.006   3.515  0.2831  0.2020  0.0071
11644W        W30498  12.502  16.807  14.056 -0.0045 -0.0162  0.0357
11645W        W30499   2.893  17.213  13.457  0.0304  0.0066 -0.0046
11646W        W30500   2.890   3.312   5.197 -0.0878 -0.1452  0.2963
11647W        W30501   1.671   5.815  13.538  0.2486  0.0132  0.2744
11648W        W30502  16.094  13.401  14.128  0.1240 -0.1410 -0.0506
11649W        W30503  12.597   1.324  15.324  0.1762 -0.1148 -0.0675
11650W        W30504   1.535   1.416  16.172 -0.3974 -0.3891 -0.1457
11651W        W30505  12.078   5.309  13.995  0.2861  0.0581 -0.2833
11652W        W30506   8.414   6.770  17.127 -0.3357  0.1612 -0.0815
11653W        W30507   6.461  16.385   1.070 -0.1881  0.2962 -0.1857
11654W        W30508   7.689  15.372   1.047  0.1288 -0.2637 -0.0670
11655W        W30509  11.061  16.187   1.269 -0.3827 -0.0286 -0.0592
11656W        W30510   7.022  12.597   0.912  0.1539  0.0729  0.2641
11657W        W30511  13.843   2.630  17.022 -0.0178  0.0388 -0.2477
11658W        W30512   5.942   8.136  12.418 -0.2579  0.1310  0.0773
11659W        W30513  12.619   9.342   0.274  0.3680 -0.1853  0.2065
11660W        W30514   2.389   6.002  14.163  0.1069  0.1156 -0.1461
11661W        W30515   7.604   1.164  13.272 -0.0461 -0.2380  0.1482
11662W        W30516  17.370  15.025   2.533  0.0224 -0.0134  0.0250
11663W        W30517   6.826   9.911  15.352 -0.0511 -0.1162 -0.3029
11664W        W30518  12.305   5.986   4.283  0.2770 -0.2140 -0.1393
11665W        W30519   0.973   3.371  12.471  0.0736  0.3271 -0.1566
11666W        W30520   5.394   4.678  13.445  0.2642 -0.0982 -0.0174
11667W        W30521   5.407  13.274   1.878  0.0227  0.1902  0.1339
11668W        W30522  12.349  14.532  17.178  0.1921  0.0036  0.3267
11669W        W30523   8.916  11.235  15.487  0.1039 -0.4290 -0.0643
11670W        W30524   2.581  13.739  12.995 -0.3111  0.0061 -0.0842
11671W        W30525   2.713  14.235   5.556 -0.0242  0.2140  0.0901
11672W        W30526  10.237  12.475  16.975  0.0330 -0.1663 -0.2121
11673W        W30527  11.391   8.534   3.444  0.2787  0.0771 -0.0147
11674W        W30528   7.561  15.226   2.535  0.1353 -0.1574 -0.0313
11675W        W30529  13.727   3.109  13.097 -0.1768 -0.1735  0.0462
11676W        W30530   4.920   2.891   3.112 -0.1739 -0.1462 -0.2393
11677W        W30531  10.504  15.902  17.432 -0.2195  0.1402 -0.2336
11678W        W30532  13.131   3.695  17.108 -0.0519  0.1138 -0.2662
11679W        W30533  15.267  11.779  13.949  0.2875 -0.1318  0.3457
11680W        W30534   5.619   5.641   3.402  0.1441  0.3212  0.1461
11681W        W30535   3.899   3.897  16.469  0.0895  0.3753 -0.0462
11682W        W30536   7.806  11.265  17.170  0.0755 -0.0727 -0.1697
11683W        W30537  13.767   1.090  16.488  0.1256 -0.2424 -0.4148
11684W        W30538  10.936  12.573  17.143 -0.1600  0.0019  0.3610
11685W        W30539   6.369  16.108  13.533 -0.2881  0.0449 -0.0175
11686W        W30540   9.281   1.042   3.245  0.1361  0.0220  0.3007
11687W        W30541   6.628  14.044   4.493  0.2502 -0.1928  0.2273
11688W        W30542   1.683   9.304  16.819  0.2307 -0.1123  0.0540
11689W        W30543  14.589   8.415   4.017 -0.2685 -0.4346  0.1061
11690W        W30544  12.962   0.187   2.868  0.0792 -0.0592  0.1365
11691W        W30545  11.551   1.191  16.286  0.0048 -0.1531  0.1751
11692W        W30546  13.881   5.992   3.068 -0.0223 -0.2107 -0.2452
11693W        W30547  12.901  10.122   3.776 -0.0156 -0.3386 -0.1295
11694W        W30548   7.096   9.084   4.964 -0.1429  0.1079 -0.1134
11695W        W30549   4.410   3.445   2.485  0.0528 -0.2981 -0.1784
11696W        W30550   4.584   9.881   0.523 -0.0080 -0.2759 -0.1481
11697W        W30551  11.731  16.545  12.232  0.3611 -0.2630 -0.1076
11698W        W30552  13.732   9.251   2.911 -0.0757 -0.1824 -0.0244
11699W        W30553  11.334  17.011   2.407  0.1274  0.0466 -0.1535
11700W        W30554  10.316   8.271   3.158  0.0996 -0.1196  0.1169
11701W        W30555  12.351  12.777  16.344  0.2183 -0.0804 -0.1293
11702W        W30556   8.239   2.939   0.259  0.0632  0.3138  0.0452
11703W        W30557   7.139  15.839  15.273  0.0498  0.4822 -0.0494
11704W        W30558   0.694   7.594   3.528 -0.0892 -0.0212  0.0349
11705W        W30559  15.499  16.732   5.544 -0.0315 -0.0964  0.0980
11706W        W30560   0.831  17.031  16.803 -0.1572  0.0213  0.0972
11707W        W30561   8.042  16.813  13.566  0.3348  0.0323  0.1496
11708W        W30562   4.746   1.937  17.242  0.0308  0.0963 -0.3672
11709W        W30563  14.140  14.326   1.379 -0.0536  0.0911 -0.1795
11710W        W30564   8.898  15.714  12.815  0.1953  0.0243 -0.1210
11711W        W30565  10.248  15.023  16.700 -0.0213 -0.1275 -0.0541
11712W        W30566   2.806  11.215   4.181  0.1398  0.1866  0.0151
11713W        W30567  11.724   4.690   1.158 -0.0032  0.1867 -0.0503
11714W        W30568  14.104   6.952  14.947 -0.1277 -0.0527  0.0146
11715W        W30569  15.251   5.862  17.389 -0.0220  0.2382 -0.0708
11716W        W30570  16.245  10.661  14.273 -0.1457 -0.1009 -0.0509
11717W        W30571   3.903  14.524  16.142  0.0132 -0.0203  0.3447
11718W        W30572   6.750  13.691   2.359  0.1592 -0.2649 -0.3146
11719W        W30573   0.696   6.437  15.438 -0.0057 -0.0241 -0.3948
11720W        W30574   1.432   0.102  15.130  0.3933 -0.2402  0.0148
11721W        W30575   4.691   5.174   2.239  0.1559 -0.0460  0.0081
11722W        W30576   4.716   9.561   2.383  0.2290 -0.0040  0.1353
11723W        W30577   8.188  12.434  16.986  0.0302  0.0683  0.3579
11724W        W30578  12.657  17.010  15.844  0.4312 -0.1401  0.0844
11725W        W30579   6.506   0.853   4.577  0.3688 -0.0626 -0.0869
11726W        W30580   4.344   5.885  13.852  0.1312  0.0768  0.1460
11727W        W30581   0.740  12.861   3.735 -0.3284 -0.0051  0.0511
11728W        W30582   6.650  11.888   0.279 -0.0200  0.2823 -0.1036
11729W        W30583   0.817   8.728   4.256 -0.0448 -0.1092 -0.1072
11730W        W30584  16.242  15.004   1.526 -0.2047  0.0386 -0.1423
11731W        W30585   6.016  13.226  14.726 -0.0844 -0.0216  0.1445
11732W        W30586   8.320  13.230  16.565 -0.1228  0.0833  0.0431
11733W        W30587   0.888  11.120  12.539  0.2581  0.0938 -0.0244
11734W        W30588   2.238   9.263   2.303 -0.1311 -0.1668  0.3145
11735W        W30589   3.803  15.499  13.957  0.0409 -0.0611 -0.1158
11736W        W30590   9.627   6.650  13.151  0.0501 -0.1995 -0.0097
11737W        W30591   9.490   0.844  12.974 -0.1152 -0.1879  0.0630
11738W        W30592  14.765  12.584   2.184 -0.0593 -0.0690 -0.0447
11739W        W30593   9.826  10.511  13.947 -0.0331  0.1186  0.0815
11740W        W30594  15.973  10.144   2.787 -0.4064 -0.0276 -0.1812
11741W        W30595  16.031   0.396   2.201 -0.1562  0.1163 -0.2351
11742W        W30596  12.045   5.139  16.115 -0.0239 -0.0329  0.1748
11743W        W30597   9.757  13.082  14.965  0.3247 -0.0638  0.0183
11744W        W30598  12.534   9.007   3.593  0.1847  0.3132 -0.0960
11745W        W30599   3.259  15.429  13.679 -0.2403  0.3567 -0.1847
11746W        W30600  15.883  13.177  14.948 -0.2312  0.1256  0.0711
11747W        W30601  10.915  10.962  12.652  0.0680  0.1941 -0.0924
11748W        W30602   1.263  14.889   0.270  0.1439  0.0240  0.2456
11749W        W30603   8.627   8.716  13.382  0.1310 -0.0547  0.2590
11750W        W30604   8.443   7.409  16.363 -0.0772 -0.1182 -0.0692
11751W        W30605   2.675  12.713   0.251  0.3293 -0.3220 -0.0758
11752W        W30606   0.833  13.823   2.268 -0.0373 -0.0425  0.0900
11753W        W30607   3.682  10.819  12.668  0.1210  0.3667  0.2352
11754W        W30608   7.735  17.386   2.337 -0.2726 -0.1042  0.1169
11755W        W30609   2.976   2.434  13.098 -0.0344  0.1484  0.1383
11756W        W30610   7.247   3.183  15.616  0.1139  0.0419 -0.3641
11757W        W30611   6.593   0.622  16.571  0.0175  0.2297  0.2453
11758W        W30612  14.167  17.298   1.410  0.2341 -0.1540  0.0044
11759W        W30613  12.249  14.843  14.587 -0.2224 -0.1329  0.0760
11760W        W30614  13.219   9.117  15.519 -0.0393 -0.0113 -0.1258
11761W        W30615   9.757  12.273  16.058 -0.1349 -0.1293 -0.2172
11762W        W30616   5.626  14.614  15.765 -0.1702 -0.0399  0.0562
11763W        W30617   8.617  11.791  14.724 -0.4913 -0.2170  0.3228
11764W        W30618   7.029  15.761   4.801 -0.1676 -0.2933 -0.1291
11765W        W30619   2.134   6.296  14.449 -0.1466 -0.2997  0.1495
11766W        W30620   8.935   8.623  14.200  0.1680  0.2710  0.3278
11767W        W30621   8.612   8.880  15.382 -0.1551  0.1527 -0.0574
11768W        W30622  11.597  10.678  12.265 -0.0895  0.2147 -0.0878
11769W        W30623   5.594   3.048  15.418  0.0599 -0.1422 -0.0328
11770W        W30624  15.541  11.555  12.673 -0.1855  0.1936  0.2673
11771W        W30625   3.597   5.372   3.972  0.0491 -0.3739  0.0955
11772W        W30626  16.757   3.550  17.245 -0.5144 -0.2529  0.0282
11773W        W30627  11.048   5.920  16.916 -0.0180 -0.0059  0.1154
11774W        W30628   0.617  14.662  12.500  0.1227  0.0657  0.2233
11775W        W30629   8.894   9.497  16.597 -0.1055  0.0621 -0.2792
11776W        W30630   7.309   4.003  13.527  0.1352  0.1194  0.1686
11777W        W30631   8.335   0.915   1.285 -0.0064  0.1162  0.0248
11778W        W30632   9.350   8.987  14.045 -0.0010  0.1502  0.3425
11779W        W30633   6.672  15.148  17.175 -0.0058 -0.2952 -0.3220
11780W        W30634  11.771  17.109  17.383 -0.2032 -0.1358 -0.2062
11781W        W30635   6.847  10.009  13.713  0.1074 -0.0651 -0.0565
11782W        W30636   7.901   5.291   3.914  0.0634 -0.0983  0.1052
11783W        W30637   7.452  13.138   3.752  0.1261 -0.0385  0.0119
11784W        W30638   0.597   4.288   5.218  0.1782 -0.0300  0.1418
11785W        W30639   7.939   3.214  13.231 -0.0975 -0.0339  0.0236
11786W        W30640  11.798   8.390  16.856  0.1745  0.1812 -0.0286
11787W        W30641   5.861  11.075  16.210  0.2634 -0.2926 -0.1247
11788W        W30642   4.058  16.639  15.781  0.0417  0.0626  0.0789
11789W        W30643  13.064  16.417   3.711  0.0728  0.2463  0.2035
11790W        W30644  10.187  13.529   4.005  0.2181  0.0422 -0.0842
11791W        W30645   8.441  16.312  16.126 -0.0430 -0.1694  0.0330
11792W        W30646   8.893   9.321   1.235  0.2601  0.1414  0.0627
11793W        W30647  11.957  11.525   4.654  0.0936  0.0844 -0.0185
11794W        W30648   6.938   4.974  14.582 -0.0178  0.1243  0.0889
11795W        W30649   9.417  11.077   3.694 -0.1950 -0.1839 -0.1412
11796W        W30650   5.797   1.219   0.566  0.1082  0.1400  0.0117
11797W        W30651   8.990   3.420  11.519 -0.0409 -0.2595  0.1026
11798W        W30652   5.533   5.978   4.425  0.2654 -0.1338 -0.1597
11799W        W30653  14.833   6.197  14.764 -0.1524 -0.3023 -0.3212
11800W        W30654   1.072  15.521  16.872 -0.0661 -0.2047 -0.1787
11801W        W30655   5.748   9.950  16.967  0.0133 -0.1970 -0.0969
11802W        W30656  15.558   8.820   2.960  0.0409  0.0071  0.1665
11803W        W30657  16.803   0.947   3.573 -0.0502 -0.1652  0.3319
11804W        W30658   2.606   9.087   2.595  0.1442 -0.1822 -0.2682
11805W        W30659  16.056   3.335  16.434  0.0950  0.1210 -0.1640
11806W        W30660  13.436   8.749   1.435  0.0546  0.3423 -0.0723
11807W        W30661  16.285   8.191   1.812  0.2258  0.2794  0.0119
11808W        W30662  14.541   6.107  14.333  0.1806  0.0052 -0.2129
11809W        W30663   2.370   0.005   4.870 -0.2005 -0.1790 -0.1458
11810W        W30664   9.291  12.359  16.218 -0.2464 -0.2684 -0.3962
11811W        W30665  10.798  14.678  14.073  0.1607 -0.0847  0.1886
11812W        W30666  14.801  13.599   1.890  0.1814 -0.2206 -0.0506
11813W        W30667  16.891  12.570   6.127  0.2090  0.0114 -0.1970
11814W        W30668  12.149   6.729  12.511 -0.2464  0.0122 -0.1450
11815W        W30669   1.784  13.246  12.630 -0.3903 -0.4967 -0.0606
11816W        W30670   1.092   4.908  12.965  0.0422 -0.0290  0.0803
11817W        W30671   0.295  13.025   1.152 -0.1108 -0.0926 -0.1897
11818W        W30672  11.649  12.792   4.468  0.0122 -0.3038  0.1449
11819W        W30673   4.471   4.042  17.275 -0.0277  0.1266  0.1601
11820W        W30674   2.283   3.741  13.191  0.0715 -0.0613 -0.2037
11821W        W30675   7.051  11.233  14.106  0.1533  0.1277 -0.1125
11822W        W30676  17.382   3.440  13.590 -0.1514 -0.0427  0.0108
11823W        W30677  16.140   3.882  13.363  0.0037  0.1361 -0.2351
11824W        W30678   5.902  10.235   2.663 -0.0854 -0.0144  0.2630
11825W        W30679   9.914   7.662   1.815  0.0675  0.0308  0.1557
11826W        W30680  11.056   6.761   4.290 -0.0118  0.0513  0.2220
11827W        W30681  10.295  13.218  13.466 -0.1080 -0.2284  0.1318
11828W        W30682   0.756   4.011   2.795 -0.0504 -0.0679  0.0466
11829W        W30683  14.564   5.655  12.612 -0.4137 -0.0965 -0.1550
11830W        W30684   0.116  14.318   2.335 -0.1095  0.0047 -0.1433
11831W        W30685  13.052  15.008  16.536 -0.0565 -0.0037  0.2152
11832W        W30686   5.256   1.039  17.417  0.0587 -0.4816 -0.0519
11833W        W30687   0.332   4.066  13.043 -0.1347 -0.1097  0.2334
11834W        W30688  13.274  14.012   5.410  0.0397  0.2176  0.0410
11835W        W30689   4.081  12.728  15.395 -0.0608 -0.0451  0.1019
11836W        W30690   5.528  10.082  15.673  0.0449  0.1213  0.1141
11837W        W30691  16.122  12.572   0.636 -0.0122 -0.4046 -0.1147
11838W        W30692  10.342  16.812  15.175  0.2066 -0.1431  0.1979
11839W        W30693   8.538   9.400  17.401 -0.2722  0.1637 -0.3065
11840W        W30694  15.687   4.779  13.308 -0.1879 -0.1089  0.0261
11841W        W30695   0.407  15.431   5.343 -0.3259  0.0585 -0.3625
11842W        W30696   9.636   5.332  11.367 -0.1777  0.0992  0.0504
11843W        W30697  17.114  11.550  16.131 -0.0936 -0.0543 -0.0805
11844W        W30698  11.867   1.030  13.778  0.2796 -0.0902 -0.3417
11845W        W30699  16.059   8.866   3.663  0.0111  0.2316  0.2563
11846W        W30700  11.828  14.616   4.433  0.0346  0.2222  0.1549
11847W        W30701  16.841  13.197   3.016  0.0398  0.0683 -0.1866
11848W        W30702   0.772   5.376   2.056  0.1564  0.1862  0.0778
11849W        W30703  16.044   8.708   0.580 -0.0584 -0.1333 -0.0177
11850W        W30704   5.866  12.272   1.599  0.1517 -0.0422 -0.2500
11851W        W30705   3.782   2.069  17.463 -0.1899 -0.1029  0.0225
11852W        W30706   4.278   8.465   1.365 -0.0719 -0.2330 -0.0347
11853W        W30707   5.864   8.007   1.218 -0.1193  0.0796 -0.1726
11854W        W30708   7.836  15.852   0.014  0.1455 -0.1786 -0.4361
11855W        W30709  13.986  10.747  14.284  0.0813 -0.0126  0.0568
11856W        W30710   2.296  13.061  12.597  0.2341  0.4874 -0.1792
11857W        W30711  10.855   9.385  16.915  0.0976  0.0729 -0.3542
11858W        W30712   8.891  12.675   5.029  0.2569 -0.0241  0.0277
11859W        W30713   5.325  16.230  16.227  0.2714  0.1290 -0.0781
11860W        W30714   0.926   7.156   3.769 -0.0673  0.0456 -0.3325
11861W        W30715   8.307  12.213   3.250 -0.1795 -0.3877  0.3392
11862W        W30716   7.299  14.827  12.600 -0.1975  0.0850  0.2672
11863W        W30717   3.133   3.466   0.479 -0.1555 -0.3996 -0.0797
11864W        W30718  12.283   3.268   2.093  0.3823 -0.0705  0.0307
11865W        W30719   9.382   2.885  17.026 -0.1928 -0.2201 -0.1280
11866W        W30720   2.565   8.599   4.132 -0.1400  0.1024  0.0963
11867W        W30721  11.080   5.989  16.444 -0.0590 -0.2104 -0.0742
11868W        W30722   6.843   4.795  14.062 -0.4482 -0.0409  0.0055
11869W        W30723   4.352   9.210  12.992 -0.2450 -0.1075  0.1395
11870W        W30724   5.123  12.478  16.050 -0.0054 -0.2354  0.0432
11871W        W30725  12.223   6.443  16.594  0.1611 -0.0623 -0.5142
11872W        W30726  14.919   4.946  15.979  0.1435 -0.0600 -0.0512
11873W        W30727   1.448  13.524   1.591 -0.3086 -0.2890  0.1603
11874W        W30728  16.201   6.126  12.977 -0.3487  0.0303  0.1670
11875W        W30729  16.549  11.128  13.061 -0.1355  0.0145  0.0397
11876W        W30730  15.619  14.558  12.681  0.0680 -0.0448 -0.1698
11877W        W30731  17.147   2.620   3.250 -0.3003 -0.1542  0.2080
11878W        W30732  16.938  13.590   1.773  0.1987 -0.1250 -0.2965
11879W        W30733   3.904  15.093  14.954  0.0392 -0.0461  0.0211
11880W        W30734  15.535  10.850   3.773 -0.1395 -0.2076  0.1325
11881W        W30735   2.229   3.204   2.266 -0.0813 -0.1117 -0.1026
11882W        W30736   7.414  13.190   4.286  0.1251 -0.0044  0.0244
11883W        W30737   9.074   2.050  16.399 -0.0379  0.0598 -0.1825
11884W        W30738  12.148   0.401  12.662 -0.0786  0.1039 -0.1140
11885W        W30739   3.149   3.086  11.998 -0.2105 -0.3026  0.0948
11886W        W30740  16.604   9.309   4.590 -0.0286  0.2365  0.1416
11887W        W30741   6.135   5.863   5.104  0.2410 -0.0858  0.3272
11888W        W30742   9.271   4.936  13.808  0.0825 -0.0337  0.0445
11889W        W30743  17.067   5.673   1.875  0.1931 -0.0340  0.0313
11890W        W30744   9.651  15.355  12.432  0.1721 -0.1184  0.0026
11891W        W30745  11.910  12.150   2.964 -0.4123  0.0013  0.0627
11892W        W30746  15.620  16.892  12.893  0.1175  0.0186 -0.2252
11893W        W30747  15.615   6.891  12.462 -0.0979  0.3264 -0.2542
11894W        W30748   6.891   7.218  17.340 -0.0783 -0.1214 -0.0795
11895W        W30749  11.024   4.571   1.797  0.0540  0.1136 -0.0413
11896W        W30750  15.300  15.682   3.848  0.0971 -0.0272 -0.3530
11897W        W30751   2.345   5.765   3.900 -0.2215  0.0295  0.0597
11898W        W30752   5.866   7.920   0.653 -0.3165  0.2679  0.0773
11899W        W30753   5.011   3.313   1.722  0.2729  0.0804  0.3009
11900W        W30754   7.281   3.619   2.869 -0.2643 -0.4018  0.0336
11901W        W30755   9.272   0.191  12.468  0.0462  0.2138  0.0186
11902W        W30756   5.760  16.294  16.870 -0.0376 -0.1405 -0.2721
11903W        W30757   6.145  13.496   3.739  0.0958  0.3671  0.1592
11904W        W30758  13.353  14.492  15.120 -0.0275 -0.1077 -0.1350
11905W        W30759   5.945  13.631  15.628 -0.1436  0.0370  0.0329
11906W        W30760   3.657  14.884   1.525  0.2119  0.0904 -0.1878
11907W        W30761   3.449   7.237  14.311  0.4751 -0.1691 -0.0165
11908W        W30762  13.371  13.066  15.919 -0.2432  0.0202  0.1146
11909W        W30763   7.223   8.294   6.304 -0.3296 -0.1498 -0.0378
11910W        W30764   3.609   4.568  17.251  0.4211  0.0673  0.1578
11911W        W30765   7.901   0.225  13.500  0.2367  0.0181  0.1801
11912W        W30766   6.684  13.038  14.487 -0.0186 -0.1020 -0.2109
11913W        W30767   5.778   1.720  16.791  0.2195 -0.0997  0.0752
11914W        W30768  15.136   1.360  16.966  0.0001  0.3742  0.4399
11915W        W30769   9.344  14.629  14.176 -0.0043 -0.1981 -0.2610
11916W        W30770  12.556  14.510   2.331  0.1008  0.0564  0.0701
11917W        W30771  15.438  10.903   4.254 -0.0077 -0.1974 -0.2347
11918W        W30772   4.261  13.681   2.403  0.0623 -0.1058 -0.1319
11919W        W30773  15.862   5.854  15.287  0.0182 -0.3175  0.0086
11920W        W30774  10.676  14.978   4.156  0.1743 -0.2226  0.0466
11921W        W30775   2.340   4.881  16.365 -0.0160 -0.2834  0.1133
11922W        W30776   7.339   0.911   4.840 -0.1088 -0.0139 -0.2692
11923W        W30777  12.399   9.989  14.321 -0.1460 -0.1018  0.3496
11924W        W30778   1.012  15.768   1.517 -0.1155 -0.1337 -0.1073
11925W        W30779   3.482   4.946   3.691 -0.1696 -0.0334  0.1117
11926W        W30780   1.497  10.508   1.049 -0.2865 -0.0706 -0.2091
11927W        W30781  11.318  14.192   0.950  0.0711 -0.2626 -0.1006
11928W        W30782  14.034  15.614   4.772  0.1184 -0.0195 -0.2494
11929W        W30783   8.877   5.923  14.808  0.1150  0.0968 -0.1485
11930W        W30784   4.175   4.364   2.086  0.1568 -0.3888 -0.0906
11931W        W30785  15.116   0.201   3.482  0.0952  0.1282  0.3000
11932W        W30786   8.695  12.092   2.845 -0.3940  0.0452 -0.1586
11933W        W30787   9.316   4.156  14.819  0.0714  0.0824  0.0430
11934W        W30788  14.103   0.400  16.183 -0.2382 -0.3333 -0.1763
11935W        W30789  10.061   4.084   5.222  0.0906  0.0980 -0.0499
11936W        W30790   0.295  10.595   3.028 -0.1109  0.0720 -0.3971
11937W        W30791   7.578   9.309  16.301  0.0624 -0.3492 -0.2339
11938W        W30792   8.323   5.804  15.608  0.0331  0.0204 -0.0991
11939W        W30793  14.061   6.173   4.929  0.1908 -0.1688  0.0130
11940W        W30794  17.163   0.906   1.289 -0.0561 -0.3056 -0.1011
11941W        W30795   1.774   2.817  16.031 -0.3334  0.3188 -0.1136
11942W        W30796  15.267   4.493   2.207  0.2791 -0.2181  0.0132
11943W        W30797   6.344   4.982  17.379  0.3398  0.1387  0.0478
11944W        W30798   6.408   6.199   0.596  0.3220  0.0861  0.3293
11945W        W30799   6.027  11.896   4.024  0.1724 -0.2276 -0.2451
11946W        W30800   2.256  14.009   0.380  0.1125  0.0652  0.1059
11947W        W30801  10.193   6.751  14.187  0.0988 -0.1867 -0.0329
11948W        W30802   5.478   9.727  12.716  0.2208 -0.0744  0.4736
11949W        W30803   7.579   6.541   2.084 -0.0414 -0.1875  0.1669
11950W        W30804   6.203   2.932  17.378  0.1655  0.2040  0.1478
11951W        W30805  16.119  12.203   0.221  0.1957  0.0510 -0.0889
11952W        W30806  16.635  11.634  16.939 -0.0502 -0.0252 -0.0405
11953W        W30807   2.230  11.348  13.103 -0.1677 -0.0920 -0.0524
11954W        W30808  12.097   8.936  15.509  0.3820 -0.0370  0.0003
11955W        W30809   4.741   8.242   5.014 -0.1915 -0.0036 -0.0811
11956W        W30810  15.136  16.605   3.855  0.1296 -0.0091  0.2267
11957W        W30811  13.782   6.619   5.070 -0.4425 -0.0367  0.0741
11958W        W30812   8.432   4.640   0.636 -0.1760  0.2257  0.1759
11959W        W30813   7.572  14.388  16.689  0.2297  0.2353  0.3647
11960W        W30814   1.310   5.213  15.393 -0.0983 -0.0112 -0.2257
11961W        W30815   4.387  14.908   3.547 -0.1506  0.1929 -0.0667
11962W        W30816   8.159   8.814   6.034 -0.1813  0.2083 -0.5029
11963W        W30817   5.780  16.070  13.194 -0.1013 -0.0319  0.1021
11964W        W30818  11.380   3.461  14.599 -0.0951 -0.0642  0.0893
11965W        W30819   6.171  12.319   5.137  0.1745 -0.0638 -0.1574
11966W        W30820   8.176  16.252   2.015  0.0422  0.1050 -0.0645
11967W        W30821  15.084   3.374  15.091 -0.0988 -0.3823  0.0435
11968W        W30822   4.163  12.885   0.464  0.0186 -0.2467 -0.1800
11969W        W30823  11.688   2.743  15.532  0.0485 -0.0194  0.1243
11970W        W30824  16.262  13.718   5.496  0.0345  0.0108 -0.4358
11971W        W30825  16.331  14.084  15.626  0.1699  0.2148  0.2001
11972W        W30826   1.422  10.013   1.848 -0.1122  0.2850 -0.0653
11973W        W30827  15.010  12.669  16.264 -0.0244  0.3303  0.0460
11974W        W30828  13.636  14.536  14.701  0.1482  0.0455  0.1643
11975W        W30829  15.995  12.701  15.753  0.0061  0.1264  0.2119
11976W        W30830   5.642   3.979   1.101  0.4609 -0.2584 -0.0857
11977W        W30831  11.793   2.011  12.331  0.1854  0.3187 -0.1563
11978W        W30832  13.491  11.089  15.433  0.0585 -0.0093 -0.1900
11979W        W30833  13.948  13.445  16.334  0.2205 -0.2389 -0.0435
11980W        W30834   6.496   2.262  16.387  0.0416  0.0795  0.0295
11981W        W30835   8.060   3.006   0.754  0.2414  0.1506  0.0788
11982W        W30836   9.736   9.821  14.268 -0.4339 -0.0930 -0.1454
11983W        W30837   6.952  17.077  15.247 -0.2293  0.0241 -0.1898
11984W        W30838  17.361   5.510  15.510  0.4551 -0.0760 -0.2679
11985W        W30839   4.644  12.370  12.526  0.0877 -0.5470 -0.0445
11986W        W30840   3.322   8.726  17.103 -0.2361  0.3308 -0.0742
11987W        W30841   9.355   4.347   0.030  0.1564  0.0791 -0.0872
11988W        W30842  11.293   8.760   1.345 -0.4870  0.1811  0.1768
11989W        W30843   8.763  16.390   2.772 -0.2521 -0.0429  0.2483
11990W        W30844  12.558  11.897   2.406  0.2169  0.2133  0.1053
11991W        W30845  10.787   6.923  12.328 -0.0538  0.1653 -0.2246
11992W        W30846  13.249   6.789   0.336 -0.0609 -0.0489 -0.2087
11993W        W30847   4.949  14.149  17.223 -0.1645  0.0930 -0.0760
11994W        W30848   5.077   5.235   1.128  0.0025 -0.1220 -0.0874
11995W        W30849   1.187   0.426   2.385  0.1272 -0.2091  0.2356
11996W        W30850   5.149  15.145   2.974  0.1060 -0.4540 -0.2912
11997W        W30851  13.032   2.615   1.305 -0.0928  0.0795  0.0829
11998W        W30852   1.033   6.728   2.013 -0.1764 -0.1967  0.2993
11999W        W30853   5.445  13.399   3.256  0.2201 -0.0477  0.1525
12000W        W30854  13.973   0.551  14.269  0.2181 -0.2458  0.0798
12001W        W30855  11.146   6.886  16.345 -0.3970  0.0641  0.0116
12002W        W30856   3.089   6.236  14.129 -0.1766 -0.0173  0.2615
12003W        W30857  10.332   8.189  13.765 -0.0890  0.2676  0.4543
12004W        W30858  12.928  14.606  17.362  0.0714  0.3078 -0.1582
12005W        W30859  16.718  13.289  16.643 -0.0153  0.1596 -0.0821
12006W        W30860  11.255   7.409  14.823 -0.2288  0.2592  0.1260
12007W        W30861   9.992  10.943  17.156 -0.2924  0.1100  0.2247
12008W        W30862  17.117  11.944   5.503  0.0741  0.0593 -0.0346
12009W        W30863   4.678  15.110   2.005 -0.1498  0.1640 -0.2212
12010W        W30864  15.945  11.099  13.008  0.3319  0.0861  0.1770
12011W        W30865  15.957   3.570  17.051  0.2071 -0.1491 -0.1733
12012W        W30866  13.262   4.097  17.362  0.1818  0.1907 -0.1414
12013W        W30867   8.216   1.799   0.845 -0.0641  0.1776  0.0736
12014W        W30868  17.165   8.882  14.639  0.0948 -0.0010  0.1473
12015W        W30869  10.959   4.033  15.902  0.3403 -0.0906 -0.1290
12016W        W30870   1.954   1.632  12.816  0.0402 -0.0410  0.1298
12017W        W30871  13.698   3.415   2.161  0.2243 -0.1765 -0.1652
12018W        W30872   4.596  16.809  12.817  0.0266  0.0388  0.1903
12019W        W30873   2.207   6.917   0.801 -0.1161  0.2104 -0.1366
12020W        W30874   2.024   1.516   1.889  0.0098  0.2375 -0.0524
12021W        W30875   7.544   9.791  15.267  0.0475 -0.0257 -0.1861
12022W        W30876   6.984  11.129   0.848 -0.0790 -0.0654 -0.0409
12023W        W30877   5.708  16.573  16.406 -0.0764  0.0236  0.1013
12024W        W30878   1.916   0.508   3.304  0.2152  0.0769  0.2146
12025W        W30879  14.769  14.215  15.268 -0.0094 -0.2294  0.2958
12026W        W30880  10.858   2.230   0.454  0.2611 -0.2956 -0.1598
12027W        W30881   2.388  16.362  13.012  0.0033 -0.2308  0.0109
12028W        W30882  12.808   2.939  13.639  0.1222 -0.0257  0.4955
12029W        W30883  10.882  16.301  14.239 -0.1751 -0.2576 -0.0145
12030W        W30884   7.403   2.494   0.813 -0.2238 -0.1852  0.0351
12031W        W30885  16.957  12.406   2.951 -0.0739  0.2932  0.2816
12032W        W30886   7.058  14.287  15.772  0.0948  0.0019 -0.2382
12033W        W30887   9.933   8.597  17.426  0.0316 -0.1597 -0.1125
12034W        W30888  13.772  11.983  13.766 -0.0302  0.0046 -0.2875
12035W        W30889  11.558  17.364  14.593 -0.0923 -0.1293  0.0646
12036W        W30890   4.478   8.343  16.293 -0.0169 -0.2313 -0.0564
12037W        W30891  14.160   0.366  15.222  0.0407 -0.1157 -0.1394
12038W        W30892  11.157   5.139  13.395 -0.1882  0.1109 -0.0457
12039W        W30893   6.821  15.975   4.353  0.0326 -0.1238 -0.1456
12040W        W30894   2.336   4.028   1.852 -0.2504  0.0361 -0.1307
12041W        W30895   3.181  10.456   3.997 -0.0059 -0.0553 -0.1481
12042W        W30896  15.924  15.026  17.055 -0.0986  0.1905 -0.0158
12043W        W30897  16.593   1.641   2.248  0.1534 -0.2124  0.1204
12044W        W30898  15.673   7.197   5.038  0.1222 -0.2550 -0.0143
12045W        W30899   4.869  16.626  17.139  0.0770 -0.2331 -0.2397
12046W        W30900  13.988   1.471  16.765  0.3942 -0.2203  0.2002
12047W        W30901   8.216   9.558   2.417  0.2528 -0.4326 -0.2621
12048W        W30902   4.714  15.025  15.928  0.2925 -0.0417  0.4481
12049W        W30903  12.817   4.347   4.728  0.1626 -0.1310 -0.0680
12050W        W30904   8.529   5.938  14.165  0.1448  0.0356 -0.1377
12051W        W30905   2.209   0.009  12.168  0.0698  0.0025 -0.3379
12052W        W30906  10.723  13.819   2.260 -0.0845  0.1907  0.2247
12053W        W30907  14.745   2.520  13.746  0.1757  0.2451 -0.4994
12054W        W30908   9.011   7.516  12.317 -0.1725 -0.3063 -0.1354
12055W        W30909  10.458   9.672  11.299 -0.1436  0.0598 -0.3413
12056W        W30910  17.041  13.100   4.545 -0.0536 -0.2379 -0.0381
12057W        W30911   7.276   2.995  16.135  0.2514  0.2466  0.1566
12058W        W30912   4.927   4.459   3.766  0.0550 -0.0868  0.1564
12059W        W30913  10.921   0.758   5.150 -0.5164 -0.1558 -0.1802
12060W        W30914   0.156  14.775   3.713  0.0865 -0.1451 -0.2869
12061W        W30915  17.152   7.232  12.752  0.3332  0.0573  0.1799
12062W        W30916  17.386   8.031   3.143 -0.1825 -0.1003  0.0380
12063W        W30917   1.413   4.249   2.274 -0.1026 -0.2289 -0.0702
12064W        W30918   5.931   2.707   0.359  0.1648 -0.0533 -0.1345
12065W        W30919   8.420   7.671   6.065  0.1681 -0.0529 -0.0512
12066W        W30920   4.641   0.693   1.144 -0.3057 -0.2516  0.0695
12067W        W30921   0.690   5.964   4.160  0.2793 -0.0955  0.3802
12068W        W30922   2.227   3.854   4.965 -0.0047 -0.2235  0.2057
12069W        W30923   9.403   6.633  13.600  0.1776 -0.0495  0.1218
12070W        W30924   1.657  16.511   3.705 -0.1852  0.0153 -0.0448
12071W        W30925  13.439  12.653  12.086  0.1558 -0.0648  0.1685
12072W        W30926   7.013   6.022  15.813 -0.0833  0.1007 -0.2417
12073W        W30927   3.992   7.105   0.477 -0.2797 -0.0180 -0.2473
12074W        W30928  13.848  13.475   0.991  0.0430 -0.1608  0.1003
12075W        W30929   5.295   2.149  15.073  0.2739 -0.1422  0.0564
12076W        W30930  17.320   7.910   1.653  0.0503 -0.0938  0.0768
12077W        W30931  10.870   8.689   3.502  0.3276  0.0314 -0.0074
12078W        W30932   3.861  15.454  16.123 -0.2461 -0.0243  0.1991
12079W        W30933  11.673  13.990   2.236 -0.0350 -0.2584  0.1502
12080W        W30934  13.735  14.745   3.854 -0.1933  0.2366 -0.3148
12081W        W30935  15.280   2.185   2.348  0.0421 -0.0705 -0.0661
12082W        W30936  17.310  10.654  12.813 -0.0576  0.0334  0.1325
12083W        W30937   6.714   0.911   2.620 -0.1656  0.0547 -0.0969
12084W        W30938   9.923   8.709   6.258 -0.0513 -0.0555  0.1044
12085W        W30939   8.549  11.320  14.701  0.1582 -0.1893  0.3709
12086W        W30940   7.266  13.990  13.535 -0.2021  0.1874  0.0891
12087W        W30941  16.702  16.013  14.409  0.1008 -0.1014 -0.0721
12088W        W30942  16.875   3.951   2.586  0.2550 -0.0053  0.1312
12089W        W30943   8.330   9.584  16.995  0.2042  0.1126  0.2189
12090W        W30944   8.919  10.888  11.901 -0.2787  0.4786  0.0493
12091W        W30945   7.585   3.398  15.949  0.0385  0.0628  0.0169
12092W        W30946   2.628  11.433  16.581 -0.0639 -0.0070  0.1277
12093W        W30947   5.500  14.966   0.491 -0.1487  0.1699  0.0743
12094W        W30948   9.661  11.273   0.468  0.1269 -0.2643 -0.0337
12095W        W30949  11.001  14.736  11.906  0.0005  0.1060 -0.4344
12096W        W30950  10.087  11.180   4.273 -0.0059 -0.0258  0.1061
12097W        W30951  10.026   8.126  13.376 -0.1176  0.1075 -0.1731
12098W        W30952  14.378   5.847   3.167 -0.1974 -0.0431 -0.2828
12099W        W30953   7.370   2.297  14.869 -0.0601  0.1955 -0.2250
12100W        W30954  15.558  10.458  15.102  0.2799 -0.0319 -0.1714
12101W        W30955   2.329   3.583  12.186  0.2740  0.2489 -0.3872
12102W        W30956   9.239  12.595  13.503 -0.3199  0.2406  0.0420
12103W        W30957  16.304   6.614   2.195  0.1697 -0.0841 -0.1809
12104W        W30958  12.799   3.038  11.457  0.3090  0.1477 -0.2921
12105W        W30959   6.373   4.461   2.969  0.0451 -0.4507 -0.3216
12106W        W30960   9.566   2.567  14.406 -0.5297 -0.0802  0.1092
12107W        W30961   2.545  14.973   2.414 -0.1751 -0.0128 -0.3109
12108W        W30962   2.010  10.084   5.365  0.0274 -0.1657  0.0878
12109W        W30963   4.765   7.960   4.015 -0.0583 -0.1718  0.2159
12110W        W30964  15.599   6.402   2.589  0.0519 -0.0249 -0.1192
12111W        W30965  10.256   6.640  15.072  0.0096 -0.2157 -0.0815
12112W        W30966  11.108   1.444   2.432 -0.0735 -0.2216  0.3105
12113W        W30967  14.858  11.678   0.549  0.1808  0.1554  0.0524
12114W        W30968   0.559   3.905  15.530  0.0060 -0.0045  0.0587
12115W        W30969  10.814  14.947   2.048 -0.0270 -0.1846  0.0689
12116W        W30970   2.368  11.549   4.884 -0.0458  0.2675 -0.0255
12117W        W30971  11.011   8.643   4.933  0.4104  0.0100 -0.1567
12118W        W30972  14.722  13.053  12.644  0.1574 -0.0264 -0.0289
12119W        W30973   9.690   0.538   5.046 -0.2168  0.2875  0.3036
12120W        W30974   8.590   9.598   4.631 -0.0792  0.0191 -0.0813
12121W        W30975   1.320  13.073   0.357 -0.1426  0.1599  0.1183
12122W        W30976   9.289   6.483  16.257 -0.0795  0.0835  0.0744
12123W        W30977   8.232   6.618  13.581  0.0314  0.0420 -0.1339
12124W        W30978  17.119   6.018   1.466 -0.1136  0.1617 -0.3644
12125W        W30979  13.326  16.737  15.690 -0.0389 -0.1320  0.4419
12126W        W30980   0.172  11.551   3.907 -0.1192  0.1460 -0.5195
12127W        W30981   0.702  14.948  13.564  0.1510  0.0389 -0.0974
12128W        W30982  11.235  12.569  13.078 -0.0830 -0.0668  0.1516
12129W        W30983   3.622  14.319  16.990 -0.0779  0.0507 -0.3323
12130W        W30984   8.081  12.744   2.412  0.2492  0.0566  0.0492
12131W        W30985  14.786  14.293   4.075 -0.0264  0.1460 -0.2137
12132W        W30986   5.393  16.134  17.201  0.0624  0.0624 -0.0546
12133W        W30987  10.705   4.152  17.214  0.4194  0.0743  0.2333
12134W        W30988  12.046   2.318   2.689  0.0393  0.6123  0.1413
12135W        W30989  10.515   1.098  14.830  0.1749 -0.1546 -0.3018
12136W        W30990   9.613   7.035  16.351 -0.0270 -0.1549 -0.0181
12137W        W30991   0.252   1.337  15.394 -0.0880  0.1780  0.0431
12138W        W30992   3.054  11.537  16.206  0.1365 -0.2966 -0.1183
12139W        W30993  14.277  12.143   5.341 -0.0733  0.1043 -0.2971
12140W        W30994  14.680   9.795   1.528  0.0346 -0.1823  0.0175
12141W        W30995   4.492   5.531  15.071  0.1525  0.0526  0.2129
12142W        W30996  10.191   3.131  13.500 -0.0328  0.1990  0.3716
12143W        W30997   3.641  15.170  13.435 -0.1506 -0.0710 -0.3837
12144W        W30998   7.408   4.092   3.668  0.0679 -0.2404 -0.2657
12145W        W30999   1.087  14.403   2.225 -0.1374  0.0572 -0.1624
12146W        W31000  14.109   2.983   0.296  0.1537 -0.0273 -0.4665
12147W        W31001   4.062  10.413  14.063  0.1950  0.0744  0.0729
12148W        W31002  16.435   4.912  12.555 -0.0111 -0.1175  0.0985
12149W        W31003  16.512  12.569   2.424 -0.2207 -0.2198 -0.2273
12150W        W31004   8.658   5.889   4.642  0.2001  0.2577  0.1062
12151W        W31005   9.769  14.425   2.656 -0.1688 -0.0012 -0.0786
12152W        W31006   4.796  10.272  16.169 -0.1226  0.0617 -0.1726
12153W        W31007  14.354   1.289   4.048  0.2143  0.1343 -0.3957
12154W        W31008   9.416  16.031  15.564 -0.1820  0.2265  0.2036
12155W        W31009   8.125  15.990  14.397 -0.1764  0.0249 -0.3456
12156W        W31010   3.945   9.044   6.245  0.1490 -0.4230  0.0015
12157W        W31011   7.748  14.411   3.186 -0.0863  0.0850 -0.0928
12158W        W31012   9.438  17.401   5.165  0.1147  0.1127 -0.0098
12159W        W31013   3.572   7.962  15.879 -0.1128 -0.1238 -0.2730
12160W        W31014  13.539   5.696  14.828  0.1003  0.2116  0.1106
12161W        W31015   0.642  11.063   2.175 -0.3933 -0.1562 -0.0114
12162W        W31016  10.845   6.506  13.043 -0.0050  0.0597  0.3549
12163W        W31017   4.874   3.204   5.288  0.1075  0.3103  0.0373
12164W        W31018   2.207   1.727  13.215 -0.2845  0.1223  0.1957
12165W        W31019  14.390   7.915   3.107 -0.2308  0.2259  0.1684
12166W        W31020   2.020  12.886   3.337 -0.0558  0.0808 -0.0183
12167W        W31021   1.810   6.737  13.772 -0.3077 -0.0379 -0.1108
12168W        W31022  14.799  15.248   4.292 -0.2303 -0.1127  0.1810
12169W        W31023   4.287  12.585  16.263  0.0824 -0.0504 -0.1278
12170W        W31024   4.672  11.428   3.630 -0.1563  0.0296  0.0565
12171W        W31025   9.927   6.303  14.119 -0.0144  0.0288 -0.1931
12172W        W31026  14.244  15.956   2.032 -0.2368  0.0708  0.0711
12173W        W31027   9.496  13.136   2.785 -0.0354 -0.0524 -0.1231
12174W        W31028   9.114  11.971   0.932 -0.0577  0.0742 -0.1250
12175W        W31029   5.552  14.509   2.661 -0.1523 -0.1302  0.2999
12176W        W31030  16.967   5.091   4.828  0.0077  0.0278  0.3746
12177W        W31031  11.869   0.926   2.441  0.2659  0.2259 -0.0103
12178W        W31032  11.174   5.891  15.867  0.0054  0.0777  0.3106
12179W        W31033   7.932  15.557  15.097 -0.2175 -0.0930  0.0096
12180W        W31034   6.817  16.390  15.962  0.2106  0.1169 -0.0552
12181W        W31035   8.523  12.815   5.307  0.0469  0.3539 -0.0125
12182W        W31036   8.689   6.466   3.243 -0.3006 -0.2313 -0.0494
12183W        W31037  15.365   1.210   3.682  0.1087  0.2449  0.2007
12184W        W31038  16.275  10.327   1.153 -0.2893 -0.5266  0.0048
12185W        W31039   9.118  15.376   4.819 -0.1091  0.1689  0.0582
12186W        W31040   9.767  14.866   0.487  0.2560 -0.0123  0.0526
12187W        W31041   9.286   9.844  13.501  0.1272 -0.1561  0.0340
12188W        W31042  12.150   1.597   3.255 -0.1614 -0.2699 -0.1978
12189W        W31043   7.808   3.174   4.669  0.2501  0.0139  0.0047
12190W        W31044   3.172  12.052  16.385 -0.0256 -0.0310  0.0581
12191W        W31045   9.397  10.199   1.750 -0.1089  0.0187 -0.0244
12192W        W31046  13.078  11.207  15.846 -0.0020 -0.0860 -0.0793
12193W        W31047   2.027   9.877  16.094 -0.0938 -0.2416  0.0900
12194W        W31048  10.291   6.639   3.925 -0.1579 -0.1253  0.0638
12195W        W31049  14.555   1.247   0.290  0.0549  0.0683  0.0370
12196W        W31050  17.020  16.689   0.565  0.4243 -0.0644 -0.0477
12197W        W31051  11.228   8.990  14.267  0.2595  0.0920 -0.1043
12198W        W31052  11.817  15.114  14.473  0.3495 -0.0758 -0.2116
12199W        W31053   8.538  16.824   2.441  0.0721 -0.0182 -0.1754
12200W        W31054  11.448   2.768  12.899 -0.3828 -0.2461  0.2368
12201W        W31055  16.353  11.018   3.367  0.0825  0.0862 -0.0207
12202W        W31056  14.605  13.533   5.873  0.0604 -0.2059 -0.2509
12203W        W31057  11.691  15.352   4.339  0.1091  0.1660  0.0404
12204W        W31058   5.893   8.763   4.542 -0.0963 -0.0213  0.0875
12205W        W31059   5.561  12.684  15.888 -0.2682 -0.3206 -0.2244
12206W        W31060   7.741   0.045  12.808  0.0836  0.0089  0.1026
12207W        W31061   5.248   7.325   0.837 -0.0012  0.3119 -0.1343
12208W        W31062  13.561  11.219  15.952  0.1231  0.0648  0.0350
12209W        W31063   8.051  15.647   2.895 -0.1288  0.0965 -0.0043
12210W        W31064  15.123  11.225  15.861  0.1247 -0.2432  0.1904
12211W        W31065  14.196  10.529  14.976  0.2972 -0.0783  0.0835
12212W        W31066  16.614   4.592   3.775  0.3726  0.1903  0.1947
12213W        W31067   4.352   6.917  17.389  0.2888 -0.1599 -0.3137
12214W        W31068  12.464   9.559   2.280  0.2121  0.1769  0.2760
12215W        W31069  13.321   3.827   4.572 -0.0609 -0.0347  0.2875
12216W        W31070  14.128   1.439   3.501  0.2495  0.1694 -0.1486
12217W        W31071  13.100   1.890  16.345 -0.1431  0.3725 -0.1160
12218W        W31072  10.336   3.417   3.359 -0.1819  0.1355 -0.0844
12219W        W31073  11.343  14.226   2.512  0.1839 -0.0307 -0.0519
12220W        W31074   1.810  11.431   0.225  0.0343 -0.1959  0.2843
12221W        W31075  12.524  15.279   4.662  0.1028  0.2430 -0.2144
12222W        W31076  10.190   4.836  16.582 -0.2339 -0.0677  0.1106
12223W        W31077  11.919  13.161   0.199 -0.0546 -0.0518  0.1461
12224W        W31078   3.466   0.010  14.671  0.1686 -0.0234  0.0328
12225W        W31079  17.373   9.024   3.103  0.0312 -0.3014 -0.2485
12226W        W31080  16.860   4.053  12.604 -0.0697 -0.4412  0.0259
12227W        W31081  11.779   7.416  14.795 -0.2489 -0.2588  0.0876
12228W        W31082   5.911  12.223  12.752  0.2155  0.2084 -0.1392
12229W        W31083  11.134   8.821  13.711 -0.0973 -0.0314 -0.0421
12230W        W31084   8.141  13.164   3.341  0.1517 -0.2326 -0.1789
12231W        W31085  12.883   0.076  15.657 -0.1031 -0.0047 -0.1264
12232W        W31086   9.669  17.296  13.209  0.0458  0.1847  0.0963
12233W        W31087   4.286  15.717   3.730  0.2013  0.0275 -0.2357
12234W        W31088  15.157   7.648  13.719 -0.0062 -0.3028 -0.0903
12235W        W31089   3.531  10.347  12.943 -0.0116  0.1282  0.0482
12236W        W31090   0.377  14.385   4.475 -0.0081 -0.0170  0.1905
12237W        W31091   1.727  14.808   5.005 -0.1162 -0.0655 -0.0058
12238W        W31092   9.592  11.633  15.746  0.1655  0.0932 -0.1418
12239W        W31093  16.235  16.311  16.271 -0.3047 -0.0712  0.2538
12240W        W31094   3.277   7.794   2.085  0.2141 -0.0999  0.2727
12241W        W31095   9.288  10.065  16.059 -0.2802  0.1512  0.2244
12242W        W31096  16.838  16.395  14.671  0.1404 -0.4353 -0.0981
12243W        W31097  15.869   6.743   3.868  0.0095  0.0363  0.2027
12244W        W31098  15.195   4.632  12.544  0.1183  0.2522  0.2634
12245W        W31099   6.460   6.155   1.315 -0.0586 -0.0576  0.0145
12246W        W31100   9.094  10.988   1.650  0.0257  0.0581  0.1527
12247W        W31101   8.308  17.021   3.002 -0.2733 -0.1834 -0.3245
12248W        W31102  16.419   5.775   0.681  0.1079 -0.3382  0.1983
12249W        W31103  10.544  15.961  14.015  0.0485  0.0896 -0.1702
12250W        W31104  15.417  10.735   3.142  0.0308  0.0511 -0.1210
12251W        W31105  11.358   8.267  14.655  0.0006  0.0951 -0.1569
12252W        W31106   8.373  16.267  12.940 -0.0083  0.0789  0.2425
12253W        W31107   8.318   1.241  14.274 -0.0097 -0.2268 -0.1128
12254W        W31108   6.329   3.912   2.859  0.0772 -0.0653  0.2403
12255W        W31109   6.719   3.184  16.377 -0.1720  0.1223  0.2150
12256W        W31110  16.206   4.137   1.113  0.1075  0.2526  0.0148
12257W        W31111  11.409  10.281  16.058 -0.3751 -0.2524  0.0562
12258W        W31112  11.742  14.101  14.944 -0.1392  0.0663  0.2361
12259W        W31113  11.915  15.573   1.839 -0.3554  0.0075 -0.1046
12260W        W31114  13.638  15.468  14.840  0.2154  0.0025  0.1143
12261W        W31115  15.947  10.835   4.287  0.2616  0.4826 -0.1163
12262W        W31116   4.386  15.707   1.290  0.0048 -0.0243  0.0387
12263W        W31117  16.228  17.213  17.282 -0.1645 -0.0608  0.1914
12264W        W31118   6.816  15.859  16.834 -0.1201 -0.1626 -0.0697
12265W        W31119  14.444   8.872  15.692  0.1718  0.0811  0.0187
12266W        W31120   5.895  12.079  17.338  0.5301  0.0849  0.2401
12267W        W31121   3.869   4.765  15.176  0.0553  0.1718 -0.1311
12268W        W31122  10.613  15.834  16.473 -0.1946  0.0395  0.0317
12269W        W31123   0.544  16.258  12.371  0.0143  0.4991  0.2320
12270W        W31124  15.311   9.327  14.437 -0.1715 -0.0874  0.3781
12271W        W31125  10.429   1.587  14.999  0.0146 -0.0232  0.0707
12272W        W31126   7.777   7.810   5.056  0.0543 -0.2792 -0.0811
12273W        W31127   0.480   4.685  15.920 -0.2984  0.4802 -0.1325
12274W        W31128   7.050   9.880   2.775  0.0783 -0.1340  0.0816
12275W        W31129  12.049   1.877   0.864  0.0988 -0.3251 -0.0659
12276W        W31130   9.383  12.282   2.283  0.3674 -0.1511  0.2375
12277W        W31131  11.995   6.952  15.147  0.0115 -0.1482  0.1506
12278W        W31132   1.133   9.930   1.063  0.1553 -0.1129  0.0266
12279W        W31133   5.996   0.635  13.572  0.0442 -0.2456 -0.2368
12280W        W31134   3.555   7.710   3.356 -0.0948  0.0244  0.1999
12281W        W31135   9.850  15.435   1.300 -0.2232  0.0512 -0.0500
12282W        W31136   8.233   8.867   1.725  0.4420 -0.0512  0.1757
12283W        W31137   2.947   5.605  16.443 -0.1522  0.1113  0.0242
12284W        W31138   8.053   7.905   1.606  0.0513  0.0426 -0.1515
12285W        W31139  14.843   9.195   1.498  0.0238  0.2169 -0.2155
12286W        W31140   7.079   9.287   4.081 -0.0257 -0.0565 -0.1009
12287W        W31141  11.196  10.915  15.502 -0.1748 -0.0240 -0.0146
12288W        W31142  15.676   1.110   2.509  0.2072  0.0317 -0.1327
12289W        W31143  16.590   3.769  15.425  0.0384  0.2079 -0.1122
12290W        W31144  10.883   9.597  15.636 -0.1355 -0.0780 -0.3823
12291W        W31145  13.704   7.082   5.351 -0.4994 -0.0997  0.5518
12292W        W31146   6.574   9.657  14.006 -0.1157  0.0111 -0.0020
12293W        W31147   3.537  11.161  15.341 -0.1202  0.6359  0.0556
12294W        W31148  16.863  16.309   0.289  0.1841 -0.2981 -0.2828
12295W        W31149   5.407   2.999   4.443  0.2648 -0.0847  0.1722
12296W        W31150   5.990  10.742  14.368  0.1768  0.0763 -0.0214
12297W        W31151   5.834  11.902   1.208 -0.0270 -0.1845 -0.1229
12298W        W31152   5.508   0.544  13.434 -0.2497 -0.1401  0.1388
12299W        W31153   8.089  14.814  12.666 -0.1024  0.0439 -0.0477
12300W        W31154  13.373   0.564   4.674  0.0422 -0.3410  0.2105
12301W        W31155  10.840   5.189   3.405  0.2214  0.0044 -0.0777
12302W        W31156   9.087   7.621  17.067  0.0256 -0.1164  0.2611
12303W        W31157  11.536   5.748   2.342  0.2067  0.1883  0.0340
12304W        W31158  10.320  10.189   3.509 -0.0690  0.2267 -0.3459
12305W        W31159  13.973   0.956  15.021 -0.1229 -0.0584  0.0083
12306W        W31160   9.742  15.733   3.442  0.1661 -0.1860  0.2324
12307W        W31161  16.720   5.984  12.695 -0.1519 -0.0149 -0.0387
12308W        W31162  13.526   8.487  14.933 -0.1026 -0.3596 -0.2008
12309W        W31163   1.483   0.828  16.340 -0.1242 -0.0297  0.0804
12310W        W31164   4.556   1.297  12.841 -0.0703 -0.0387 -0.1221
12311W        W31165  13.895  15.987   2.395  0.1985  0.0330  0.0849
12312W        W31166   9.421  12.634   2.624 -0.0072  0.0071  0.3183
12313W        W31167  12.527  16.182  16.208 -0.2165 -0.0316 -0.1229
12314W        W31168   3.891  15.358   2.911 -0.1460 -0.3385 -0.0975
12315W        W31169  16.355   4.556  16.092 -0.0577  0.1973  0.1218
12316W        W31170   2.709   3.730  13.440 -0.0353  0.2345  0.5859
12317W        W31171   6.076   2.732  12.389 -0.1945 -0.0284 -0.0951
12318W        W31172  11.826  12.531  17.431 -0.0989 -0.0476 -0.0905
12319W        W31173   9.770   8.219  16.067 -0.2659  0.1555 -0.0026
12320W        W31174   5.830  11.404   1.274  0.0279  0.1815  0.0326
12321W        W31175   1.176  14.001   4.978 -0.1197 -0.1836  0.2147
12322W        W31176  13.888   4.685   3.909 -0.4392  0.3031 -0.0295
12323W        W31177   8.489   4.992  14.390 -0.0807 -0.0374  0.1822
12324W        W31178   1.003   7.236   2.250  0.2472  0.1913  0.0800
12325W        W31179  12.162   4.770  12.561  0.4026  0.0134  0.1356
12326W        W31180  13.310   9.450   1.990 -0.0610  0.0411  0.1655
12327W        W31181   2.760   0.148   5.353 -0.0023  0.2504 -0.1630
12328W        W31182  16.300  16.698  15.936 -0.3182  0.2050  0.0824
12329W        W31183   3.115   5.594  12.306 -0.1845 -0.0921 -0.2404
12330W        W31184   3.177   5.106   5.063  0.0174 -0.1595  0.4012
12331W        W31185   6.960  14.393  14.923  0.1694 -0.1087 -0.1607
12332W        W31186   0.776  14.506  13.805  0.0702 -0.2031 -0.0202
12333W        W31187  11.696  10.034  13.688 -0.0702 -0.1874 -0.1497
12334W        W31188   8.231  16.961  15.011  0.0860 -0.1099  0.4063
12335W        W31189   7.682  14.260  13.178  0.4096  0.1634  0.0590
12336W        W31190   5.494  17.209  15.044  0.0781  0.1722  0.2721
12337W        W31191  14.732   0.815  11.421 -0.0861  0.5572  0.1814
12338W        W31192  14.856  13.073   5.294  0.0709  0.0622 -0.2515
12339W        W31193   5.548   3.625   1.449  0.1484 -0.0090  0.1401
12340W        W31194   0.352  14.588   0.529 -0.0136  0.1221 -0.1172
12341W        W31195   3.342  15.268  16.921  0.0509 -0.1025  0.0135
12342W        W31196  10.217   9.312  13.678 -0.0405 -0.1738  0.0686
12343W        W31197  10.188   5.801   2.880 -0.0794  0.1458  0.1560
12344W        W31198   6.909  11.151   5.046 -0.0581  0.0458  0.2147
12345W        W31199   9.315  16.894  13.976  0.0379  0.1015 -0.2120
12346W        W31200   4.777   5.394   5.006 -0.0288 -0.0447 -0.0491
12347W        W31201  10.778   9.027   3.843  0.0536 -0.3029 -0.0984
12348W        W31202   5.316   3.171   1.327  0.0372 -0.2833 -0.0347
12349W        W31203   0.312  15.492   3.211 -0.0064 -0.1546 -0.1630
12350W        W31204   5.509  15.048  15.586 -0.3622  0.3230  0.1050
12351W        W31205   4.072   5.295   0.269  0.1753  0.0433 -0.1600
12352W        W31206   9.208   4.366   3.568  0.2773 -0.1553 -0.2224
12353W        W31207  13.923  10.370   3.321  0.2529 -0.0135 -0.1951
12354W        W31208  11.017   6.382   1.837  0.3576  0.4626  0.1666
12355W        W31209  15.662   3.331   4.925  0.0086  0.0447 -0.1984
12356W        W31210  16.348   0.542  16.658  0.1266  0.2743  0.0365
12357W        W31211  16.880  17.277   1.346 -0.0668  0.1185  0.1587
12358W        W31212  13.372   9.365  15.049  0.1588  0.1155 -0.0890
12359W        W31213  17.008  15.627   1.697 -0.3049  0.0686 -0.0581
12360W        W31214  17.354   9.397  12.691 -0.0242  0.2403 -0.1308
12361W        W31215   0.827  12.705   2.704 -0.2047 -0.4473  0.1141
12362W        W31216   4.135  11.571  13.288  0.0480  0.0040  0.0878
12363W        W31217  17.123   7.751   0.199  0.1171 -0.3464 -0.0819
12364W        W31218  10.699  16.620  13.276 -0.0105  0.3206  0.0142
12365W        W31219   1.834   1.370  13.271 -0.1266  0.0277  0.1325
12366W        W31220  15.805   8.139  15.548  0.0319  0.1847  0.3374
12367W        W31221  16.735  10.760   0.265 -0.0726 -0.1463  0.2698
12368W        W31222  16.410   5.743  16.428  0.0449  0.0050 -0.1600
12369W        W31223   2.475   7.367   0.891  0.0293 -0.0281  0.2011
12370W        W31224  17.308   2.742  14.406  0.0951  0.3675  0.2383
12371W        W31225   7.521  12.064   1.597 -0.0269 -0.1860  0.0281
12372W        W31226   3.831   1.944   3.317 -0.3017 -0.1284 -0.2939
12373W        W31227   0.746   9.229  15.314  0.1484 -0.1730 -0.1597
12374W        W31228   4.794   1.864   0.264  0.0846  0.1489  0.2173
12375W        W31229  14.484   6.410  16.456  0.0708  0.2095 -0.1053
12376W        W31230   5.811  14.837  17.078 -0.0697  0.0713  0.3384
12377W        W31231  12.557  13.098  14.430 -0.1062  0.1445 -0.0765
12378W        W31232  12.140   8.122  12.166  0.1405  0.2958 -0.1953
12379W        W31233  10.156  10.042  16.516 -0.2489 -0.1871 -0.3708
12380W        W31234   3.235  17.400   3.760  0.1459  0.0968  0.0104
12381W        W31235  13.050   4.950  13.032 -0.1409  0.1063 -0.1076
12382W        W31236   7.635  13.197  12.297  0.2157 -0.0047 -0.1341
12383W        W31237   7.315   9.227  13.836  0.0648 -0.2649  0.0353
12384W        W31238   2.308   6.090   0.354 -0.1434 -0.1718  0.2002
12385W        W31239  14.897  11.884   2.075  0.2431 -0.1400  0.1372
12386W        W31240   9.774   6.905  15.432  0.0976 -0.0326 -0.2584
12387W        W31241   0.311   9.249   1.471  0.1967 -0.0336  0.0335
12388W        W31242  12.277  10.437   0.509 -0.2857  0.0481 -0.3210
12389W        W31243   7.907  14.783  17.277  0.0518 -0.2198 -0.1381
12390W        W31244   7.841   1.265  14.635 -0.1761  0.1672  0.0961
12391W        W31245   2.525   9.547  16.548  0.3494  0.0124 -0.1326
12392W        W31246   2.172   5.019   2.158 -0.2485  0.1013  0.1528
12393W        W31247   8.784   3.679  14.920 -0.0614  0.0009  0.1388
12394W        W31248  17.142   5.181   2.929 -0.2750  0.1575  0.1557
12395W        W31249   0.793   1.342   3.519  0.0515 -0.1545 -0.3361
12396W        W31250   9.266   3.180  15.711  0.0203 -0.1064 -0.2353
12397W        W31251   0.936  14.047   0.666 -0.1949 -0.0984  0.0702
12398W        W31252   4.008   8.467   0.419  0.0637  0.0767  0.0675
12399W        W31253   2.929   2.335   3.102  0.3379  0.0772  0.0059
12400W        W31254  12.035   9.365   2.400  0.1815 -0.1702  0.3966
12401W        W31255  16.090  14.335  12.777 -0.0363 -0.1644 -0.2612
12402W        W31256   0.036  11.676  12.560 -0.2667  0.1736  0.1241
12403W        W31257   0.090   7.082   2.832 -0.3162  0.0594 -0.0403
12404W        W31258  16.012  15.943   4.644  0.4389 -0.0358 -0.0810
12405W        W31259   0.356   7.188  14.340  0.0186  0.0438 -0.0109
12406W        W31260  15.890  11.894  16.032  0.1714  0.2066  0.0466
12407W        W31261  15.767   6.407   1.216  0.0138 -0.1812 -0.1532
12408W        W31262   7.749   3.749   1.821 -0.3852 -0.0298  0.3473
12409W        W31263   4.346   2.863   3.105 -0.1596 -0.3187 -0.2110
12410W        W31264  13.466   1.018  15.564  0.1623  0.3091 -0.3230
12411W        W31265  16.464   6.287   1.837 -0.3159 -0.0093 -0.1861
12412W        W31266   5.996  15.012   0.365  0.1196  0.1403 -0.2444
12413W        W31267   7.982   6.999   0.257  0.0494  0.2713  0.1987
12414W        W31268   0.270   2.831   4.469  0.2270  0.2738 -0.3083
12415W        W31269   6.418   9.746  13.571 -0.1716  0.0506  0.3333
12416W        W31270   9.713  11.784   1.585  0.0806  0.3408 -0.0265
12417W        W31271  12.856  10.017  17.342 -0.0409  0.3859 -0.1236
12418W        W31272  14.899  10.631   0.788  0.2308 -0.2229 -0.2365
12419W        W31273   0.326  17.294   1.026  0.1109 -0.2755  0.2441
12420W        W31274  14.156   2.228   0.802 -0.4849 -0.1303  0.3160
12421W        W31275  10.448   2.968   0.025 -0.1392  0.1308  0.0343
12422W        W31276  10.917   8.177   4.331  0.0613  0.2134 -0.1893
12423W        W31277   4.262  16.478  14.666 -0.2365 -0.1481 -0.1386
12424W        W31278   4.439  15.369  13.990 -0.1355 -0.1287  0.1322
12425W        W31279   9.469   0.756  14.449  0.0360 -0.0079 -0.1184
12426W        W31280   5.500   7.380  13.370  0.0549  0.4258  0.0550
12427W        W31281  11.900  10.664  13.936 -0.2125 -0.1506  0.0025
12428W        W31282  11.024  11.880  12.357  0.1994  0.1940  0.0143
12429W        W31283   9.169  12.645  17.147 -0.0934 -0.0903  0.0842
12430W        W31284   7.861   5.024  13.154 -0.1283 -0.0856 -0.1684
12431W        W31285   4.094  17.032   2.749 -0.0126  0.1971 -0.3601
12432W        W31286   1.617  16.375  16.878 -0.0645 -0.2333  0.0369
12433W        W31287   4.648   2.698   5.097  0.1951  0.1830 -0.0063
12434W        W31288   5.244   6.378   2.201  0.0316  0.2224 -0.1916
12435W        W31289  12.591  15.605   3.284  0.0646 -0.0796 -0.4431
12436W        W31290   1.006   7.600   1.930  0.4145  0.3748  0.1843
12437W        W31291   9.862  14.180   5.150  0.0006  0.2208  0.1270
12438W        W31292   6.107   4.801  15.362  0.2226  0.4093  0.3397
12439W        W31293   0.819  15.150  11.558 -0.1245 -0.0662 -0.1807
12440W        W31294  16.832   4.875  17.059 -0.0489 -0.0498  0.0933
12441W        W31295  16.217   2.454  16.466  0.1201 -0.1281  0.0162
12442W        W31296  12.045   8.036  17.108 -0.2324 -0.2553  0.1323
12443W        W31297  15.306   1.958   1.862  0.3101 -0.3133  0.0777
12444W        W31298   9.346  13.870   1.816 -0.1859 -0.4659 -0.0637
12445W        W31299  11.372   9.814   4.744 -0.3087  0.0148  0.0482
12446W        W31300  16.777   8.255   2.314  0.0915  0.4472 -0.1298
12447W        W31301   6.648  16.888  16.030  0.0015  0.2494  0.0578
12448W        W31302   6.558  14.048   3.745 -0.2056 -0.0387 -0.1597
12449W        W31303  17.016  13.875   0.317  0.0147  0.0529 -0.1690
12450W        W31304   2.901   0.893  15.118 -0.2016 -0.2627  0.0536
12451W        W31305   0.101   2.062  16.814  0.1514 -0.0274 -0.2340
12452W        W31306   5.303  11.008  16.176  0.0382  0.1997  0.2703
12453W        W31307   0.178  12.642   0.810 -0.0381 -0.0859  0.1617
12454W        W31308  15.840   3.835  13.863 -0.2537  0.1867  0.0520
12455W        W31309   4.033   1.720   3.883 -0.1189  0.1340  0.2234
12456W        W31310  11.526  16.243  15.406  0.0294  0.0689  0.1771
12457W        W31311   0.538   9.691   2.531  0.0994  0.2906 -0.3155
12458W        W31312   3.550   7.508  12.319 -0.1003 -0.1450 -0.1648
12459W        W31313  12.669   4.587   1.466 -0.0752 -0.0114  0.1910
12460W        W31314   1.650   1.257  15.348  0.0001 -0.3111  0.0654
12461W        W31315   4.377   3.319  14.770  0.0411 -0.0883 -0.0999
12462W        W31316   6.402   0.556  16.099  0.0706  0.1191 -0.1939
12463W        W31317   8.694  12.073   1.418  0.0408 -0.1206  0.1220
12464W        W31318   8.406   9.863   5.171  0.0333  0.0873  0.2581
12465W        W31319  13.926  10.552   0.645  0.0350  0.0619  0.0574
12466W        W31320  10.490   2.987  14.401  0.0775 -0.2382  0.3446
12467W        W31321  13.577   6.432  12.786 -0.0275 -0.2069 -0.0421
12468W        W31322   4.151  12.123  14.199 -0.1518  0.2304  0.0092
12469W        W31323   3.754   2.951   4.042  0.1739 -0.0035 -0.3629
12470W        W31324  12.201   5.207   1.920 -0.3121 -0.1122 -0.1339
12471W        W31325   1.256   7.161  16.152 -0.3096 -0.0289  0.1501
12472W        W31326   2.088  12.942   1.954 -0.1947  0.0085  0.2602
12473W        W31327   2.568   2.049  14.567 -0.0057  0.0902  0.2290
12474W        W31328   8.245  13.734  16.701 -0.0487  0.1113  0.1242
12475W        W31329  13.341   3.168  14.399 -0.1187  0.1634 -0.0923
12476W        W31330  10.308  10.119  12.507  0.0281 -0.0589 -0.1446
12477W        W31331   6.360   9.075  15.520 -0.0242 -0.2504 -0.2533
12478W        W31332   4.911  16.510  16.327 -0.3758  0.2470 -0.1401
12479W        W31333   9.842   6.056  12.440 -0.0609  0.0415  0.0383
12480W        W31334  15.703   0.888   4.450 -0.0164  0.1117 -0.0568
12481W        W31335   1.166  11.260   1.385 -0.1472 -0.2200 -0.1200
12482W        W31336  15.787   0.905  13.863 -0.1921 -0.0946 -0.2122
12483W        W31337   6.277   1.034   3.509  0.1040  0.1129  0.2338
12484W        W31338   3.916   2.813   1.714  0.2227  0.0869 -0.0913
12485W        W31339   7.989   5.718   1.193  0.0168  0.1398 -0.3260
12486W        W31340  13.361  14.626   3.134  0.3415 -0.1632 -0.0101
12487W        W31341   3.605  10.307   2.648 -0.0143 -0.1548  0.2760
12488W        W31342   1.955  14.223   1.241  0.1486 -0.0727  0.1554
12489W        W31343   2.317  16.655  13.843 -0.0270 -0.0841 -0.2205
12490W        W31344  15.973  14.136  16.748  0.0275  0.0308  0.1126
12491W        W31345   3.642   2.959   1.043 -0.2755  0.1105 -0.0499
12492W        W31346   2.333   4.567  13.042 -0.3243  0.0504  0.1339
12493W        W31347   9.640  15.143  14.203 -0.0873  0.1990 -0.0018
12494W        W31348   7.716  17.275  17.266  0.0929  0.3176 -0.1974
12495W        W31349  16.911   7.699   2.263  0.1710  0.1344 -0.1535
12496W        W31350   9.032   3.622  15.472  0.2935 -0.2075  0.1050
12497W        W31351  10.152   9.554  16.294 -0.4131 -0.0666  0.1898
12498W        W31352   5.602  15.100   1.794 -0.0227  0.0016  0.0208
12499W        W31353  11.168   3.650   3.215  0.1413  0.0084  0.0420
12500W        W31354   4.695  12.737  15.321  0.1566 -0.0128 -0.1477
12501W        W31355  17.044  11.035  13.158  0.0522 -0.2015  0.1389
12502W        W31356  12.246  12.756   0.842 -0.0005 -0.0420 -0.1090
12503W        W31357   4.334  14.376  13.613  0.1450 -0.2971 -0.1345
12504W        W31358  13.393   7.600   4.132 -0.0413 -0.2954  0.0383
12505W        W31359   3.264   0.808   6.200  0.1795  0.0879  0.1684
12506W        W31360  11.247   3.653  12.519 -0.0300  0.2562 -0.0424
12507W        W31361   8.020   6.957  14.711 -0.0855 -0.1423  0.2540
12508W        W31362  14.576  15.059  13.533  0.0315  0.0668  0.2923
12509W        W31363  12.450   8.284   2.418 -0.0676 -0.1004  0.0379
12510W        W31364  11.834  15.664   2.660 -0.0045 -0.0811 -0.0470
12511W        W31365   6.564   6.654  12.761 -0.1803 -0.1954  0.0024
12512W        W31366  16.389   2.146   3.736 -0.1556 -0.3202 -0.1128
12513W        W31367   0.414  13.018   6.173  0.0329 -0.0576 -0.0035
12514W        W31368   1.624  12.751   5.550  0.1121 -0.0958 -0.2675
12515W        W31369   1.914  11.663  14.289  0.1496 -0.0384  0.2230
12516W        W31370  14.915   5.325   2.752  0.0414 -0.0210 -0.1381
12517W        W31371  10.656  10.178   1.843  0.1584  0.2451 -0.0739
12518W        W31372  17.194  16.951  17.027 -0.0480 -0.0836  0.4869
12519W        W31373   0.128   9.806   4.840  0.2789 -0.2165 -0.0124
12520W        W31374   6.581   2.386  15.335  0.0458  0.2830  0.2013
12521W        W31375   5.491  15.489   0.066  0.0124  0.0451  0.2752
12522W        W31376  15.333   1.588  15.724  0.0152 -0.0108  0.0896
12523W        W31377  12.121   6.825  16.942  0.1909 -0.0979  0.0764
12524W        W31378   8.795   5.746   1.814 -0.0465  0.1333  0.1796
12525W        W31379   1.676  15.480  14.746  0.0656  0.0784  0.1243
12526W        W31380   6.592   4.159  13.378  0.2398  0.0491 -0.1640
12527W        W31381   9.747   2.643   3.921 -0.0138  0.2147  0.4793
12528W        W31382   0.411  13.553  14.905 -0.2470  0.2066  0.1087
12529W        W31383   2.789  14.760  14.465 -0.0494  0.0042  0.2462
12530W        W31384  13.724  16.569   4.908 -0.0910  0.0360 -0.0740
12531W        W31385   3.216   2.304   4.664  0.1322 -0.3474  0.2865
12532W        W31386   8.721   1.437   3.363  0.1557  0.2830  0.3091
12533W        W31387   9.219  14.328  13.322 -0.2316 -0.2949 -0.1332
12534W        W31388   9.150  13.203  15.594  0.1049 -0.0740 -0.1229
12535W        W31389   6.197   8.515   4.851 -0.1739  0.3298 -0.4023
12536W        W31390   3.984  10.466   0.154  0.1456 -0.2547 -0.0367
12537W        W31391  16.597  14.724   3.372  0.0541 -0.0445 -0.0577
12538W        W31392  12.535   2.311  15.540  0.1709  0.2566 -0.1510
12539W        W31393  16.384  14.439   5.456 -0.0101  0.0702 -0.0172
12540W        W31394   5.577   6.147  14.454 -0.1153 -0.0598 -0.0203
12541W        W31395   9.258  12.071   3.882  0.1671  0.3927 -0.1061
12542W        W31396  10.930   7.630   4.525  0.2012 -0.0135 -0.2826
12543W        W31397   8.637   0.651  15.939  0.0620  0.1615 -0.1754
12544W        W31398   0.807  15.003   6.634 -0.0544 -0.0020 -0.0018
12545W        W31399  11.037  13.143   3.341 -0.2457 -0.1680  0.0600
12546W        W31400   6.616   0.008   0.159  0.2866  0.0295  0.0952
12547W        W31401  16.680  10.349  17.408  0.2353 -0.2836 -0.0291
12548W        W31402   2.753   4.145  15.990 -0.1574 -0.0754 -0.0034
12549W        W31403   4.601  10.387  14.157 -0.1806  0.0820 -0.0808
12550W        W31404  10.493   6.836   2.979  0.1031 -0.1687  0.1390
12551W        W31405  13.143  12.159  13.551 -0.2412 -0.2644  0.3175
12552W        W31406  14.672  15.414  16.144 -0.0574 -0.0349  0.0165
12553W        W31407   5.244  14.753   4.866  0.0114 -0.1191  0.1292
12554W        W31408  11.471   6.486   4.398 -0.0692  0.4246  0.2824
12555W        W31409   9.011   7.062  13.743  0.0217  0.2664 -0.0239
12556W        W31410   5.729  10.919  15.107  0.0611  0.2847  0.1993
12557W        W31411   1.527   5.461   1.151 -0.2142  0.0474 -0.1296
12558W        W31412  14.733   4.256   4.835 -0.1086  0.1441 -0.2114
12559W        W31413   4.240  16.281  14.108  0.2007 -0.0403 -0.0053
12560W        W31414  13.840  16.612  15.551 -0.1565  0.3930 -0.1239
12561W        W31415   3.633   3.482   4.114  0.0678  0.0917  0.2000
12562W        W31416  10.840  17.374  13.938 -0.1833  0.1584 -0.0661
12563W        W31417   1.073   8.982  14.263  0.3809  0.1377 -0.1014
12564W        W31418  13.824   9.707  14.977 -0.0729 -0.2296 -0.0446
12565W        W31419   5.238   7.801   2.003 -0.0300  0.0286 -0.1652
12566W        W31420  10.596   2.583   5.251  0.0962  0.2468 -0.2576
12567W        W31421  11.841  16.514   4.687 -0.0057  0.2964  0.1237
12568W        W31422   0.039  16.183   2.541  0.2682 -0.1839  0.0600
12569W        W31423   6.873  12.619  12.055  0.2811 -0.0132  0.1734
12570W        W31424   1.737   2.488   4.702  0.1274  0.0157  0.0580
12571W        W31425   7.949   7.802   2.139  0.3280 -0.0990 -0.2740
12572W        W31426  11.450  11.368  13.634  0.5132  0.1886  0.0262
12573W        W31427   2.630  13.329   2.561  0.0321  0.0950  0.3144
12574W        W31428  11.821  16.883   4.319  0.0436 -0.0103 -0.0242
12575W        W31429  13.819   6.887  15.405  0.0365  0.1318 -0.0284
12576W        W31430   9.296  14.456   2.812 -0.0040  0.1090 -0.0770
12577W        W31431  13.300   7.763  17.356  0.0055  0.1351 -0.0196
12578W        W31432   5.594  10.699   2.782 -0.4092 -0.0059 -0.0660
12579W        W31433   8.740   5.476  14.932 -0.0125 -0.0248 -0.1913
12580W        W31434   1.056   0.529  16.533 -0.1363  0.1412 -0.0361
12581W        W31435  12.964   7.383  17.298 -0.1380 -0.1232 -0.1036
12582W        W31436  15.681  17.217   5.405  0.0037  0.0947  0.2813
12583W        W31437  16.153  15.898   1.050  0.0365  0.1826  0.1299
12584W        W31438  14.969  15.852  16.103 -0.1356  0.0598  0.1542
12585W        W31439   0.679  10.449  16.754  0.0177 -0.0035 -0.0164
12586W        W31440  15.249   0.021  14.339 -0.1066  0.1492 -0.0639
12587W        W31441  17.082  15.181  14.340 -0.2128 -0.0173  0.5887
12588W        W31442  13.185   8.191  15.260  0.0044 -0.0322  0.1803
12589W        W31443  15.718  12.572   4.336  0.3109  0.1485 -0.1663
12590W        W31444   5.128  12.683  16.695 -0.0717  0.3213 -0.0165
12591W        W31445   2.941  12.511  13.347  0.0564  0.2268 -0.3375
12592W        W31446  12.421   5.397  15.749  0.1644 -0.0188  0.1598
12593W        W31447   2.477  15.467   2.015  0.0968 -0.1870  0.0234
12594W        W31448   0.910  16.039   2.752 -0.1895  0.0862 -0.1180
12595W        W31449  11.204  11.065   4.713 -0.2393  0.4099 -0.2281
12596W        W31450   4.014  10.609   4.663  0.2045  0.0579  0.0271
12597W        W31451  11.109   7.795  16.193  0.4162  0.0884 -0.0831
12598W        W31452  11.842   3.767   4.561  0.2299 -0.0212 -0.0925
12599W        W31453   1.196   1.964  15.736 -0.0293  0.0044 -0.2525
12600W        W31454  15.026  10.471  14.707 -0.0259 -0.0252 -0.0414
12601W        W31455   9.944  10.142   3.189  0.1100 -0.2637 -0.2505
12602W        W31456   8.908   5.993   4.022 -0.1027 -0.1448  0.0464
12603W        W31457  13.154  11.590   3.881  0.0300  0.0147 -0.1464
12604W        W31458   3.328  11.693   3.213 -0.0988  0.1863  0.0490
12605W        W31459   9.462   2.077   3.881 -0.0675 -0.0823  0.0990
12606W        W31460   9.392   6.694  14.613  0.1496 -0.0559 -0.1152
12607W        W31461  15.854  13.007   0.395  0.2237 -0.1410 -0.3817
12608W        W31462  12.315  13.650  13.738  0.0353 -0.0139  0.0347
12609W        W31463  11.280  15.172  13.027 -0.0096  0.2224  0.0158
12610W        W31464  10.343   4.744  16.045 -0.3727  0.2272 -0.3415
12611W        W31465  16.519   2.117   4.425 -0.2356 -0.0722  0.1516
12612W        W31466  16.117   1.185  17.215 -0.0765  0.0987  0.1306
12613W        W31467   7.438  12.424   5.185  0.2155 -0.0368 -0.0299
12614W        W31468  11.869   3.618  12.929  0.0535 -0.2929 -0.1157
12615W        W31469  16.897  12.247  12.849  0.3268 -0.2135 -0.1329
12616W        W31470   5.546   9.988   5.324 -0.0416  0.1240 -0.2687
12617W        W31471  10.290   9.228  12.644 -0.1185 -0.1921  0.1225
12618W        W31472   6.936  17.171  16.393 -0.2910  0.0183  0.0055
12619W        W31473   6.386  10.964  16.153  0.0208 -0.1305  0.1796
12620W        W31474  11.900  12.698  16.112 -0.2681 -0.4070 -0.0193
12621W        W31475  12.618   2.489  13.497 -0.1204  0.2219  0.2569
12622W        W31476   5.573   6.077  11.218  0.0427  0.0344 -0.0407
12623W        W31477  12.384   6.943   3.906  0.0593 -0.3260 -0.1181
12624W        W31478   4.679   4.162   5.060 -0.1230 -0.2190  0.2291
12625W        W31479   2.052   0.656  17.402 -0.2490 -0.1811 -0.1087
12626W        W31480  11.975  13.937  13.406  0.0295 -0.1287 -0.1195
12627W        W31481   0.723   3.809   1.147  0.0149 -0.0769 -0.3635
12628W        W31482   8.750   2.075  15.917 -0.1014 -0.0511  0.0277
12629W        W31483   2.319   8.719  14.848 -0.4128  0.0481 -0.0535
12630W        W31484   8.679  15.252  16.111  0.0409  0.2462  0.4293
12631W        W31485  10.235   1.148  16.765  0.0590  0.0433 -0.1682
12632W        W31486  11.306   9.788  15.038 -0.0672  0.0084  0.0085
12633W        W31487  17.021  10.378   2.179 -0.1488  0.3468 -0.0471
12634W        W31488   6.346   3.322   1.621 -0.0064  0.1457  0.1582
12635W        W31489   2.542   3.279  13.204 -0.0464  0.0872  0.2056
12636W        W31490   1.265   5.469   6.208 -0.0646 -0.3817  0.2485
12637W        W31491  11.301   2.016  16.655  0.3136 -0.1496 -0.1715
12638W        W31492   7.212  11.525   0.040  0.0147 -0.0833 -0.0793
12639W        W31493  13.377   1.163  12.783  0.1184  0.0775 -0.1570
12640W        W31494   5.196   9.835  16.988  0.0576 -0.0178 -0.4155
12641W        W31495  17.366   9.324  13.558  0.1034 -0.2863 -0.1109
12642W        W31496  17.255   6.557   3.503 -0.0847  0.2744 -0.1759
12643W        W31497   4.781  16.064   1.952  0.1543  0.0858  0.0866
12644W        W31498   2.814   2.946   0.303 -0.2840  0.0088  0.2827
12645W        W31499   8.365   3.458  12.535  0.0169 -0.0233 -0.1465
12646W        W31500  11.653   9.951   1.557  0.1938  0.4268 -0.1670
12647W        W31501  10.412   7.967  14.703  0.1420 -0.0588  0.1226
12648W        W31502  14.709  16.854  15.406  0.2783  0.1207 -0.0579
12649W        W31503  15.785  15.211   1.639 -0.0445  0.1492 -0.0213
12650W        W31504   7.602  12.276  16.493  0.2990 -0.2500 -0.0069
12651W        W31505   5.421   4.173   2.614 -0.1763  0.5683  0.1663
12652W        W31506   5.818   9.041   3.826  0.1447 -0.0127 -0.0813
12653W        W31507   2.121  15.668  16.960 -0.1665  0.2655 -0.2638
12654W        W31508   4.580  12.897  12.692  0.1885  0.0586  0.2492
12655W        W31509  13.233   1.500  13.191 -0.0368 -0.0348 -0.1998
12656W        W31510   9.941  13.468  12.073 -0.0870  0.3563 -0.0718
12657W        W31511   0.006   2.639   2.383 -0.2636  0.0594  0.0325
12658W        W31512   5.215   7.250   3.287 -0.0842  0.0310  0.0488
12659W        W31513   1.250  14.058  12.840 -0.0042  0.0688 -0.1225
12660W        W31514  11.276   6.180  12.536  0.1249  0.0305  0.4408
12661W        W31515  16.605  12.785   5.528  0.2049  0.2463  0.1695
12662W        W31516  16.532  12.423   3.274  0.3676 -0.1774  0.0148
12663W        W31517   2.998   9.679   0.785 -0.0116 -0.2122  0.1996
12664W        W31518  14.472  14.981  16.386  0.0327 -0.1118 -0.0613
12665W        W31519  14.744  12.021  13.941 -0.2382 -0.1302 -0.1268
12666W        W31520   5.627  16.299   1.477  0.0068  0.0379 -0.1447
12667W        W31521  12.733   2.780   4.134 -0.4331  0.0203 -0.0428
12668W        W31522  14.949   9.607  13.885  0.4007 -0.2659  0.2502
12669W        W31523  10.102   7.315   0.621  0.0828  0.1768  0.4018
12670W        W31524   8.693   3.602  17.304 -0.0562 -0.0313 -0.2425
12671W        W31525   7.127  12.804  15.648  0.1541 -0.0716  0.0658
12672W        W31526   8.741   2.680   4.001 -0.2162 -0.2722  0.0741
12673W        W31527   9.800   6.346  15.192  0.2732  0.2258 -0.0396
12674W        W31528  14.696  14.719  15.988 -0.0182  0.1578  0.2079
12675W        W31529   2.382   8.886  14.260 -0.0767 -0.0031  0.2397
12676W        W31530  10.197   7.095   4.017 -0.1592 -0.1826  0.0340
12677W        W31531  11.443   9.153  14.884  0.2753  0.1598  0.4107
12678W        W31532   9.184   5.990   4.439 -0.0368  0.2281  0.2361
12679W        W31533  12.647   8.212   3.893  0.1166  0.1083 -0.0343
12680W        W31534   0.863  11.180   0.414  0.2169 -0.2870 -0.0207
12681W        W31535   6.156   4.278  13.108  0.3227  0.0071  0.0486
12682W        W31536   1.746  11.749  14.832 -0.1799 -0.4214 -0.2599
12683W        W31537   6.645   7.615   4.635 -0.0922 -0.1646 -0.3709
12684W        W31538  14.512  14.817   4.413 -0.0716  0.0320  0.2530
12685W        W31539  16.454   9.262  14.983  0.2819 -0.3560 -0.0723
12686W        W31540   6.191  15.581  14.325 -0.0988  0.2729  0.0359
12687W        W31541  12.314   1.532  14.965 -0.1623 -0.3297  0.2409
12688W        W31542  11.763  12.606   2.904  0.1484  0.1914 -0.2400
12689W        W31543   0.680  15.066   4.082 -0.1523  0.0854 -0.3062
12690W        W31544  12.119   6.527   4.810 -0.0688  0.2466 -0.1139
12691W        W31545   0.185  13.702   0.133 -0.1307 -0.1410  0.0207
12692W        W31546   6.426   4.068  14.255 -0.0038  0.2351  0.0704
12693W        W31547  13.236  14.158  13.954  0.0356 -0.1276 -0.2280
12694W        W31548  10.854   2.062  13.340 -0.3404  0.1772 -0.1933
12695W        W31549  11.828  14.369   0.892 -0.0943  0.1058  0.0611
12696W        W31550  11.365   6.895   5.347  0.0916  0.2526 -0.0746
12697W        W31551   3.632   0.176   1.011  0.0981 -0.0087 -0.0977
12698W        W31552   0.233  12.159   4.006  0.0540 -0.1375  0.2505
12699W        W31553  13.115  12.767   4.918 -0.0977 -0.0366  0.0586
12700W        W31554  14.965   6.905  12.427 -0.1821  0.1030 -0.0480
12701W        W31555  13.834   1.233   2.124  0.2177 -0.2706 -0.3290
12702W        W31556  14.428   1.091  15.381  0.0668 -0.2238 -0.0579
12703W        W31557   4.222   6.316  14.044 -0.1036  0.0108 -0.0415
12704W        W31558  15.688   5.909  16.788  0.1232  0.3595 -0.4402
12705W        W31559  10.367  14.484   3.906  0.0765  0.0376  0.1280
12706W        W31560   1.972   9.486   5.287 -0.2870  0.1094 -0.1916
12707W        W31561  12.538   0.921  16.059 -0.1656 -0.1010  0.0868
12708W        W31562  13.606   4.304   1.480 -0.2692 -0.0861 -0.1506
12709W        W31563  12.066   0.055   0.222  0.0812 -0.0516  0.0355
12710W        W31564   9.785   6.927  12.403 -0.2542  0.1773 -0.0169
12711W        W31565   8.992  12.540   3.666  0.0172 -0.0245 -0.0390
12712W        W31566  10.471  11.068   3.787 -0.0265 -0.1516 -0.1108
12713W        W31567  15.219  17.106   3.736  0.0518 -0.2172  0.2906
12714W        W31568   0.952  16.064   0.720  0.2096  0.2223 -0.5317
12715W        W31569   2.946  14.991   0.320 -0.0827  0.3056  0.3622
12716W        W31570   5.222  14.758   0.851  0.1397  0.2483 -0.2899
12717W        W31571  17.242   4.261  12.901 -0.0366 -0.2111 -0.0184
12718W        W31572  12.332  15.614  15.212  0.2246  0.0829  0.1893
12719W        W31573   4.417   3.563  12.230 -0.1366  0.1626  0.1595
12720W        W31574   7.146   5.873   3.484 -0.0457 -0.1747  0.3295
12721W        W31575   0.909   0.823   2.140 -0.3329  0.0414 -0.2680
12722W        W31576   7.421   1.612   0.264 -0.0408 -0.0092 -0.0850
12723W        W31577   2.930   8.470   0.702 -0.0213 -0.1432 -0.0624
12724W        W31578  15.667  12.611   1.800 -0.0302  0.0827 -0.1325
12725W        W31579   4.124  17.328   4.378  0.0391 -0.3005 -0.2280
12726W        W31580   6.856  11.527   3.569 -0.1028  0.0245 -0.1717
12727W        W31581   4.141   1.316   0.773 -0.2406 -0.0987  0.4262
12728W        W31582   9.078  15.696  15.421 -0.0064 -0.0178  0.1144
12729W        W31583   2.204  15.984  13.231 -0.0672  0.0615 -0.0303
12730W        W31584  14.434   1.309  13.574  0.1240  0.0795  0.2637
12731W        W31585   3.158  17.064  14.936 -0.3523 -0.1133 -0.1115
12732W        W31586   2.165  13.806   4.298  0.2009  0.0258 -0.0283
12733W        W31587  11.407   0.176  15.522 -0.1062 -0.1179 -0.0446
12734W        W31588  10.872   8.138  12.964 -0.3047  0.1787  0.0458
12735W        W31589  12.109   3.848   1.921 -0.0977 -0.1093 -0.1577
12736W        W31590  13.884  16.271   1.951 -0.1972  0.2366 -0.0485
12737W        W31591  12.151  12.308  16.294  0.0307  0.3807  0.1412
12738W        W31592   5.235   0.286  15.084 -0.0257  0.2874  0.2172
12739W        W31593   3.245  13.388  12.634  0.0019 -0.0788 -0.3328
12740W        W31594   5.486  16.812  12.698 -0.1493  0.4360  0.2396
12741W        W31595   0.672  14.034  15.730  0.1740 -0.0015 -0.6167
12742W        W31596   7.148   0.963  15.943 -0.2745  0.1147  0.3218
12743W        W31597   0.113   3.404   3.887  0.1461 -0.2888 -0.0246
12744W        W31598   3.968  13.733   4.254 -0.1213 -0.1662  0.3433
12745W        W31599  14.520  14.517  14.249  0.2530  0.2142  0.0979
12746W        W31600  11.324   1.928   4.781  0.2275 -0.3290 -0.0567
12747W        W31601   7.505   0.578   0.609 -0.4275 -0.3743 -0.1697
12748W        W31602  11.046   0.972   3.813 -0.3952 -0.0456  0.0859
12749W        W31603  14.552   8.146  12.938  0.2027 -0.3000 -0.1698
12750W        W31604  14.198  11.691  13.068 -0.0132 -0.1421 -0.0546
12751W        W31605   5.742   1.058   0.097 -0.0301 -0.2032 -0.0672
12752W        W31606   1.759   1.882  16.775  0.1685 -0.1563  0.1734
12753W        W31607   8.425   1.977   4.672  0.1088 -0.0809 -0.0998
12754W        W31608  15.444   4.972   2.177 -0.2619  0.0295 -0.0433
12755W        W31609   8.824   9.942   5.772  0.0014 -0.0508 -0.1944
12756W        W31610  13.453   7.304  14.276 -0.2979  0.2639  0.1868
12757W        W31611   5.834   0.122  17.109 -0.2828  0.1236  0.2177
12758W        W31612   7.515   6.995  14.662 -0.0826  0.1277  0.0763
12759W        W31613  11.935  15.205   4.779  0.2138  0.3191 -0.3478
12760W        W31614   9.093   5.321  12.674 -0.0101 -0.0779  0.1617
12761W        W31615  17.153  15.866   4.817  0.1083 -0.2487  0.0191
12762W        W31616  16.522  14.800   5.122 -0.1533  0.0776  0.3790
12763W        W31617   2.492   5.210  15.952 -0.2227 -0.0957 -0.0650
12764W        W31618  12.126   7.571   4.017 -0.1486  0.1964  0.0671
12765W        W31619   2.610   8.526  14.004 -0.2483 -0.0342 -0.2211
12766W        W31620   1.108   1.840   2.854 -0.0260 -0.1687  0.0240
12767W        W31621   9.137   8.835  15.064  0.0498 -0.0628  0.2357
12768W        W31622  16.593  11.686  17.453  0.0990  0.1087 -0.0946
12769W        W31623  13.702  16.759  13.431  0.1872  0.2299 -0.0474
12770W        W31624   1.092   7.642   2.555 -0.1068 -0.2068  0.3136
12771W        W31625  14.860  11.993   3.298 -0.1553 -0.1453 -0.3521
12772W        W31626  15.630   7.850  13.916 -0.1084 -0.2121  0.2449
12773W        W31627   0.873   7.008   0.573  0.0129  0.2463 -0.1313
12774W        W31628  16.887  10.272  13.394  0.1946  0.4335 -0.3620
12775W        W31629   8.537   2.170  13.449 -0.0051  0.0931  0.0994
12776W        W31630   4.369  13.936  13.339 -0.3810 -0.0575  0.0162
12777W        W31631   4.291   2.575   0.744  0.0214 -0.0163  0.1189
12778W        W31632   3.023  13.361  17.245 -0.3640  0.0772 -0.1687
12779W        W31633   0.476   4.702   3.530  0.0620  0.0341 -0.0468
12780W        W31634  13.727   7.679   1.528  0.0920  0.3005 -0.1426
12781W        W31635  10.246  17.042  15.604  0.1121 -0.1739  0.3215
12782W        W31636  10.897   6.152   0.954  0.4000 -0.3254 -0.0896
12783W        W31637  10.063   5.773  12.787  0.0566  0.2776  0.2936
12784W        W31638   5.674  14.149  15.976  0.2638 -0.2001 -0.1247
12785W        W31639   7.134   6.629   1.370  0.3092 -0.1818 -0.1924
12786W        W31640   2.368  10.861   2.939  0.2248  0.1019 -0.2077
12787W        W31641   7.211   4.471   0.808  0.2584 -0.0902 -0.1479
12788W        W31642  11.518   0.603   1.503  0.1326  0.0617 -0.0737
12789W        W31643  15.881  12.348  13.219  0.0639 -0.0571  0.6877
12790W        W31644   0.107   3.513   5.525 -0.1350  0.0875  0.0884
12791W        W31645   6.076  15.223  12.594  0.0904  0.0506  0.2287
12792W        W31646  16.986  12.161  13.345 -0.1249 -0.0712  0.2467
12793W        W31647   2.275  15.810  15.391  0.1423 -0.0086  0.0036
12794W        W31648  16.433   6.298   4.102  0.0558  0.2206 -0.0104
12795W        W31649   7.024   7.373  15.131  0.0383  0.1029  0.1942
12796W        W31650   9.868   6.756   1.373 -0.1599  0.2710 -0.1593
12797W        W31651   3.150   8.852   2.214 -0.0007  0.1560 -0.0283
12798W        W31652   6.457  11.908   5.090  0.3612 -0.0338  0.1658
12799W        W31653   5.971   5.283  17.098 -0.2388  0.0897 -0.0568
12800W        W31654  13.428  10.899  16.333 -0.0997  0.0331  0.2510
12801W        W31655   4.480  12.220   4.578  0.1951  0.1051  0.0161
12802W        W31656   6.938  11.383  12.425  0.1215  0.0072 -0.1738
12803W        W31657   7.751   2.681  12.716 -0.1112 -0.0759  0.1250
12804W        W31658   8.826   2.441   4.521 -0.1606 -0.0242 -0.2533
12805W        W31659   1.508   2.263  13.441 -0.1306 -0.0621 -0.2312
12806W        W31660  16.642   7.495   1.855  0.1109  0.2160 -0.1876
12807W        W31661  10.700   6.970   4.029 -0.3367  0.1357  0.0873
12808W        W31662   0.657  10.493   4.070  0.0562 -0.3396  0.2020
12809W        W31663   3.928   0.596   4.055  0.0500  0.2781  0.1407
12810W        W31664   0.959  15.684  13.267 -0.1543  0.3103  0.2672
12811W        W31665  16.452  11.290   2.721  0.0046  0.0376 -0.0078
12812W        W31666  11.870   9.331   1.448  0.2420  0.1531  0.1159
12813W        W31667   4.714   4.040   1.229  0.4128 -0.1175  0.0806
12814W        W31668   5.223  11.940   0.297  0.1777 -0.0275 -0.0417
12815W        W31669   0.216   0.746  12.727  0.0491 -0.2020 -0.0157
12816W        W31670  10.628   1.963  14.640  0.0310  0.0170 -0.1303
12817W        W31671   3.524   5.423   2.623 -0.0952 -0.3990  0.0611
12818W        W31672   3.349   2.333  12.462  0.1645  0.3443 -0.4207
12819W        W31673  16.107   1.154   4.341  0.1467 -0.1924 -0.1047
12820W        W31674   4.279   8.532  14.077  0.0202 -0.0517  0.3606
12821W        W31675   5.982   6.999  16.921  0.1142 -0.0889 -0.0022
12822W        W31676  11.984  10.650  16.651 -0.0858 -0.0799  0.2770
12823W        W31677   6.412   1.908  13.555  0.1255 -0.3921 -0.1161
12824W        W31678  11.827   3.246  12.266  0.5159 -0.1592  0.1153
12825W        W31679   8.613   2.362  12.513  0.0086  0.0878  0.0875
12826W        W31680   5.010  17.269   3.735  0.1365  0.1756 -0.1952
12827W        W31681  16.084  14.838   1.053  0.1347  0.1919  0.1661
12828W        W31682  10.650  16.886  11.477  0.0192  0.2536 -0.0368
12829W        W31683  16.774   2.760   0.521  0.0835  0.1533 -0.2296
12830W        W31684  16.605   1.625  12.564 -0.2128  0.0741 -0.1576
12831W        W31685  15.676   1.792  16.498  0.1831  0.1716 -0.2688
12832W        W31686  12.367  12.405   5.063  0.3093  0.2054  0.0329
12833W        W31687  12.169   2.902   3.796  0.3018 -0.4453  0.0780
12834W        W31688   5.901  12.467   0.525  0.0023 -0.0273  0.2373
12835W        W31689   6.956   0.596   2.904  0.0835  0.3929 -0.4334
12836W        W31690  14.440   8.894   0.154 -0.4064  0.2143  0.1836
12837W        W31691  15.237   2.930   0.040  0.1560 -0.1388 -0.0367
12838W        W31692  13.527  13.096   3.378  0.2098 -0.1931 -0.1467
12839W        W31693   8.542   2.098   0.500  0.2308  0.2205  0.1469
12840W        W31694  15.573   1.100   5.069  0.0165  0.1219 -0.0812
12841W        W31695   0.389   7.753  12.356 -0.3001 -0.2255  0.1279
12842W        W31696   3.732   6.225   3.483 -0.1015 -0.1986 -0.1821
12843W        W31697   1.331   4.057  14.489  0.2019 -0.1305  0.0926
12844W        W31698  13.988   3.752  17.066 -0.0347 -0.0226 -0.2798
12845W        W31699   4.033   0.894  12.671  0.1539 -0.0494 -0.0488
12846W        W31700  11.304   5.386  14.336 -0.0878  0.2270  0.0410
12847W        W31701   2.406   2.994   1.662  0.0571 -0.0076 -0.2953
12848W        W31702   1.071   6.544  13.126  0.0989 -0.4369  0.1148
12849W        W31703  10.688  15.532  13.404 -0.0794  0.0188 -0.2784
12850W        W31704  12.886   7.461   4.495 -0.1076 -0.1222  0.5472
12851W        W31705  16.035  14.903  13.685 -0.2126 -0.1773 -0.0548
12852W        W31706  15.769  17.151  15.518  0.2100  0.0315  0.0201
12853W        W31707   2.008   4.570  14.005 -0.2994  0.1013  0.0269
12854W        W31708   8.554   3.768  12.926  0.1825  0.2035  0.3129
12855W        W31709   6.106   3.968  17.403  0.0295  0.0847  0.3661
12856W        W31710   2.887   9.851   5.212  0.0438 -0.0520  0.2830
12857W        W31711   9.540  16.804  14.913  0.1874 -0.1316 -0.1522
12858W        W31712   9.018   9.593   3.914 -0.0376 -0.1160  0.1291
12859W        W31713   1.334   5.487   4.727  0.5059 -0.0703  0.0191
12860W        W31714  16.736   5.845  13.686 -0.0043  0.0801 -0.0688
12861W        W31715  11.523   4.725   2.535 -0.4263 -0.2758  0.2357
12862W        W31716   8.849   4.404  17.206  0.1158 -0.2747  0.0676
12863W        W31717   0.662   1.921  13.634 -0.0043  0.1239  0.1699
12864W        W31718   8.364  15.311   3.120  0.2209 -0.2253  0.1791
12865W        W31719   6.320   2.208  13.966  0.1145  0.0208  0.1112
12866W        W31720   4.747   2.747   1.813  0.1832  0.1663 -0.3314
12867W        W31721   5.257  13.959  16.298  0.0764  0.0297 -0.3603
12868W        W31722   4.382   1.477  16.194  0.1956 -0.1326 -0.2346
12869W        W31723   3.149   0.349  12.427 -0.3224 -0.0968  0.1608
12870W        W31724   1.709  15.535  16.687 -0.1320 -0.1271  0.0857
12871W        W31725  13.296   3.916  16.181 -0.2682 -0.0120  0.3226
12872W        W31726  11.139   8.413  12.659 -0.2818  0.0683 -0.1517
12873W        W31727  12.180   9.777   1.351 -0.0015  0.2916  0.2155
12874W        W31728  11.134  14.741   4.454 -0.2375 -0.0964  0.2000
12875W        W31729   1.840   6.471   2.981  0.1749 -0.1233 -0.0428
12876W        W31730   0.917   3.945   2.354 -0.1290  0.0674 -0.1157
12877W        W31731   8.304   1.155   4.863  0.1340 -0.2062 -0.1861
12878W        W31732  14.183  13.994  16.986  0.0921  0.2791  0.1135
12879W        W31733  11.381  10.634  16.835 -0.0678 -0.1034  0.0695
12880W        W31734  11.838   3.692  14.585  0.1790 -0.2327  0.4219
12881W        W31735   5.707  12.015   0.339 -0.0082 -0.2451  0.2922
12882W        W31736   8.136   8.237   2.701 -0.0195 -0.0093  0.0809
12883W        W31737  17.330   5.437   0.784  0.1566  0.3374 -0.1902
12884W        W31738  10.594  12.615  13.545  0.1381 -0.1617 -0.1620
12885W        W31739   6.955  10.957  12.782 -0.1725  0.0541 -0.0919
12886W        W31740  16.111  12.880  16.736 -0.2438  0.1028  0.0767
12887W        W31741   6.612   3.624   1.296  0.2254  0.1419  0.1810
12888W        W31742  10.730   1.404   1.958 -0.0065 -0.0790  0.2932
12889W        W31743   4.487   3.523   1.156 -0.2099 -0.2525  0.0426
12890W        W31744   3.718   3.244  16.070 -0.0984  0.0756 -0.2880
12891W        W31745  10.975  16.157   3.289 -0.1504 -0.1418 -0.0149
12892W        W31746   3.564   7.642   4.462  0.0638 -0.2753  0.1160
12893W        W31747   5.368   8.026   3.923  0.1044  0.3469  0.1325
12894W        W31748   3.403  10.855  13.583 -0.0356  0.1751  0.0328
12895W        W31749  15.049  14.509  14.397  0.1678 -0.1002  0.0676
12896W        W31750  15.744  15.416  12.966 -0.2449  0.0650  0.2707
12897W        W31751   7.420   4.179  15.881 -0.0589 -0.0276 -0.0031
12898W        W31752   1.483  12.848  13.904  0.0938  0.0623  0.0765
12899W        W31753   9.506   6.220   0.652  0.1883  0.0441 -0.0524
12900W        W31754   3.832  13.450  14.103  0.0345  0.0561 -0.0190
12901W        W31755   6.366   9.309   2.777  0.0920 -0.0818 -0.1707
12902W        W31756  14.847   5.078   3.656  0.2542 -0.0130  0.3624
12903W        W31757  13.110   4.836  14.048 -0.4257 -0.1890 -0.2779
12904W        W31758   8.244   1.297   0.821 -0.0288 -0.1933 -0.1377
12905W        W31759   4.974   2.893  14.691 -0.0215 -0.0802 -0.2081
12906W        W31760   9.048  12.096  13.905 -0.0879 -0.1143 -0.4373
12907W        W31761   7.602   6.869   4.313 -0.1556  0.3745 -0.0629
12908W        W31762  15.148   2.688  14.973  0.0451  0.2186 -0.1311
12909W        W31763  17.054  15.565  12.860  0.1601 -0.0435  0.1342
12910W        W31764  14.323   2.170   3.933 -0.1216 -0.3577 -0.0489
12911W        W31765   6.402   0.776   3.017 -0.2629 -0.0469  0.0031
12912W        W31766   0.398  12.933   2.929 -0.3205  0.0266 -0.0266
12913W        W31767   2.139   3.036  14.430  0.1911 -0.1042  0.2351
12914W        W31768   6.908  10.200   3.666 -0.0900  0.2884 -0.1276
12915W        W31769  12.351  16.726   3.606  0.0363  0.1638  0.0212
12916W        W31770   3.305   1.048   2.247  0.1801  0.0831 -0.3493
12917W        W31771   9.107   8.340   4.310 -0.1238  0.0993  0.2972
12918W        W31772   4.349   3.835  13.529 -0.1143  0.0225 -0.1396
12919W        W31773   6.948   1.378  16.154 -0.0991 -0.0458  0.0065
12920W        W31774   2.389   9.824   2.865 -0.1120  0.3525  0.2056
12921W        W31775  10.567   5.107   4.744  0.0099 -0.0747 -0.1067
12922W        W31776  17.147   8.544  16.797  0.1185  0.0627  0.2897
12923W        W31777   6.003   4.357  16.664  0.2204 -0.1395 -0.2892
12924W        W31778  14.207  15.686   0.039 -0.0843  0.0543  0.0694
12925W        W31779  12.752   5.722   1.688 -0.4514 -0.3203  0.1405
12926W        W31780  10.783  13.502  15.026  0.1166  0.1989 -0.0296
12927W        W31781  14.651   5.685   3.554  0.1156 -0.1638  0.0093
12928W        W31782   3.964   5.232   2.327 -0.2323  0.0569  0.1514
12929W        W31783  11.531  11.683   4.413 -0.2278  0.0848  0.1067
12930W        W31784   0.034  14.115  14.314  0.0856 -0.1866  0.1221
12931W        W31785  11.526  15.819  16.540 -0.0355 -0.0392  0.0491
12932W        W31786  10.355   1.287  17.392  0.1842  0.1577 -0.2045
12933W        W31787   3.322   5.557   3.056  0.1883 -0.0406 -0.0446
12934W        W31788   7.390   2.901   4.857  0.1984 -0.0627  0.2048
12935W        W31789   5.186  15.809  12.700  0.2747  0.0506 -0.1323
12936W        W31790  13.440  15.242   1.197  0.0845  0.0221 -0.2843
12937W        W31791  15.990   3.461  12.813 -0.0640 -0.0233 -0.0841
12938W        W31792   9.155   9.226   0.334  0.2269  0.0041  0.0384
12939W        W31793  14.333  15.269   4.542 -0.5000 -0.0507  0.3506
12940W        W31794   8.615  11.726  16.691  0.0463 -0.1768 -0.1908
12941W        W31795  17.065   2.835   1.433 -0.3093  0.0085  0.1699
12942W        W31796  13.872   1.975   4.170 -0.1261  0.1229  0.1322
12943W        W31797   1.930   5.799  17.000 -0.0658  0.1904  0.1708
12944W        W31798   4.841  14.928  13.137 -0.1950  0.0267  0.0613
12945W        W31799  15.422   8.007   3.475 -0.3886  0.0886  0.2582
12946W        W31800   3.364  15.919   5.271 -0.0502  0.1545 -0.0098
12947W        W31801   9.995  10.479  15.648  0.1068  0.3758 -0.1087
12948W        W31802   1.038  10.564  14.667 -0.3074 -0.0456  0.1216
12949W        W31803   8.748   3.180  12.385  0.0973 -0.0723 -0.0114
12950W        W31804  11.413   2.714   2.045 -0.0016  0.0529 -0.0179
12951W        W31805  12.743  11.113  13.823  0.2467 -0.1545 -0.0810
12952W        W31806  10.078  11.810   0.612 -0.2624  0.0061 -0.1824
12953W        W31807   0.591  14.946  15.386  0.0103  0.0823 -0.0147
12954W        W31808   7.096   7.451  16.127  0.0982  0.1904 -0.1898
12955W        W31809   9.872   7.581  15.421 -0.3869 -0.1594  0.0587
12956W        W31810  16.929   6.254  16.807 -0.0911 -0.1047 -0.0395
12957W        W31811  16.729   3.028  17.123  0.0923  0.3208 -0.0404
12958W        W31812  10.271   0.367  15.016  0.1144 -0.1235 -0.0718
12959W        W31813  14.865   2.258   2.151  0.0042 -0.0863 -0.0010
12960W        W31814   7.620  10.278  12.392 -0.1815 -0.0307  0.0871
12961W        W31815  11.015   7.976  17.193  0.3670  0.0428  0.1289
12962W        W31816  16.319  12.110  13.870 -0.0228  0.0963  0.3429
12963W        W31817   8.520   1.417   2.885  0.1350  0.0693 -0.0997
12964W        W31818   5.204  10.595   0.168 -0.1846 -0.2454  0.2186
12965W        W31819   3.201   7.751   2.561 -0.2080 -0.0982 -0.0210
12966W        W31820   8.954  10.098  13.865  0.0562  0.1533 -0.1534
12967W        W31821  14.273  16.803   3.540 -0.1376  0.0244 -0.1713
12968W        W31822   6.131   3.746  16.450  0.0007 -0.0738  0.1909
12969W        W31823   9.870   6.123  16.709 -0.0240  0.0155 -0.0915
12970W        W31824  13.967   4.756  14.022  0.2038 -0.5423 -0.1904
12971W        W31825   5.632   8.328   3.679  0.0563  0.0657  0.0016
12972W        W31826   4.093   8.704  14.831  0.1862 -0.0067  0.2679
12973W        W31827  10.787  12.431   1.009 -0.0986 -0.3191 -0.0454
12974W        W31828  17.034   2.764   4.784 -0.2846 -0.2381 -0.4361
12975W        W31829  14.021   3.260  16.137  0.0096  0.2112  0.2137
12976W        W31830   5.973   8.821  15.765  0.0731 -0.1704  0.0685
12977W        W31831   7.485   6.879   5.029  0.2801 -0.2339 -0.2967
12978W        W31832   4.299   1.177   2.759  0.0322  0.0135 -0.2664
12979W        W31833  13.532   4.263  15.134 -0.1745 -0.4500 -0.0802
12980W        W31834  16.528   1.963  14.401 -0.2051 -0.0751  0.0171
12981W        W31835  12.845  15.658  13.684 -0.0946  0.1042 -0.0149
12982W        W31836  10.222   3.948  17.114  0.0910 -0.0061  0.3166
12983W        W31837  16.753   0.227  16.631 -0.1617 -0.0503  0.0914
12984W        W31838   3.354   7.751   0.938 -0.0454  0.2111 -0.1342
12985W        W31839  12.848  17.203   3.182  0.0746 -0.1676 -0.3302
12986W        W31840  13.781   2.745   3.549 -0.0867  0.1659  0.0983
12987W        W31841  13.269   9.128   4.745 -0.0018  0.0197  0.1180
12988W        W31842   0.677  15.091   2.540 -0.0039 -0.0757 -0.2235
12989W        W31843  15.719  12.295   6.486 -0.2236 -0.0075  0.0496
12990W        W31844   1.678   8.117   0.068  0.0846  0.0011 -0.2642
12991W        W31845  15.307  11.368   1.453 -0.2380 -0.2145 -0.0582
12992W        W31846   7.931  13.495   0.685  0.0835  0.1023  0.0492
12993W        W31847   8.690  13.866  16.452 -0.0933 -0.2370 -0.2188
12994W        W31848   0.369   6.994  15.472  0.1950  0.0280  0.1018
12995W        W31849   3.586   6.215  14.159  0.2306 -0.0663  0.1028
12996W        W31850   5.036  14.684  14.050  0.0304  0.2102 -0.2428
12997W        W31851  16.502  15.998  15.376 -0.2472 -0.3691  0.0640
12998W        W31852  15.214  16.976   0.982  0.0893 -0.0475 -0.1558
12999W        W31853   4.341   1.834  13.681  0.1843  0.2474 -0.2031
13000W        W31854   1.488  12.820   1.860 -0.0940 -0.3343 -0.2113
13001W        W31855  16.441   0.293   0.592 -0.0249 -0.3060  0.0078
13002W        W31856  12.296  14.688  12.915  0.1439  0.1363  0.0368
13003W        W31857  16.721   1.944  15.569 -0.2043  0.0724  0.0777
13004W        W31858   1.682   9.453   1.609 -0.0770 -0.3699  0.1631
13005W        W31859   4.793  13.363  12.426  0.0138  0.0779 -0.0332
13006W        W31860   1.613   5.598   3.322  0.1269  0.1096 -0.0861
13007W        W31861  14.741   8.207   0.688 -0.0420 -0.1241  0.0391
13008W        W31862  14.216  10.571   1.996 -0.0982  0.3728  0.1012
13009W        W31863   7.886  16.479  12.660  0.2917 -0.0564 -0.1221
13010W        W31864  12.795   9.887  16.445 -0.2897 -0.1753 -0.1457
13011W        W31865   0.242   1.102  17.015  0.1489  0.1356  0.2822
13012W        W31866   3.276   5.047   2.939  0.0778 -0.1222  0.1886
13013W        W31867  16.583   1.144  14.632  0.0616 -0.1464  0.0333
13014W        W31868  16.740   2.818   2.268 -0.1141  0.0085 -0.0559
13015W        W31869   7.495   5.630  12.267  0.1902 -0.0681 -0.0296
13016W        W31870  11.188   9.271   4.197 -0.3138 -0.0544  0.0249
13017W        W31871  16.631  11.384  15.667 -0.4753 -0.2514 -0.2095
13018W        W31872   7.459  13.226   1.944  0.2594  0.1045 -0.4477
13019W        W31873   5.276   1.203  14.132 -0.0927 -0.1005  0.1106
13020W        W31874   9.140   8.577   2.363  0.1046  0.0263  0.1465
13021W        W31875   4.788   7.568  17.240 -0.1443  0.1133 -0.5846
13022W        W31876   7.105   2.951   2.192  0.2879  0.0657  0.2202
13023W        W31877   8.309   1.929  16.918 -0.2092 -0.2115 -0.1618
13024W        W31878  13.001   4.860  13.503  0.0304 -0.0344  0.0728
13025W        W31879  13.622  10.116  16.793 -0.0307  0.0777 -0.0553
13026W        W31880   2.250   6.707   3.712 -0.1753  0.1116 -0.0439
13027W        W31881  12.370   6.882   1.344  0.0139  0.0898 -0.0937
13028W        W31882   0.233   3.142  14.382  0.1324  0.0086 -0.3129
13029W        W31883  14.338  17.213  17.363 -0.3822 -0.3026 -0.0536
13030W        W31884   1.622  12.686   3.740 -0.0035 -0.1464 -0.0033
13031W        W31885  12.744  11.268  16.916 -0.1530 -0.0240  0.0622
13032W        W31886  13.034  14.637   3.524 -0.0101  0.0950  0.2410
13033W        W31887  14.364  13.026   5.062  0.0853  0.1219  0.2354
13034W        W31888  15.198   4.083   3.583 -0.1862  0.1754  0.2167
13035W        W31889   3.468   6.473  13.736 -0.0276  0.0273  0.0271
13036W        W31890   8.442   4.271   2.062  0.1459  0.0327 -0.0047
13037W        W31891   7.319  15.645   3.057 -0.1584 -0.3096 -0.0021
13038W        W31892   1.227  13.576  14.612 -0.1045 -0.1057  0.1406
13039W        W31893  12.097   1.264  14.157 -0.1844  0.0355  0.0939
13040W        W31894   3.092  13.712   3.137 -0.0337 -0.3630 -0.3434
13041W        W31895  14.527  11.311   0.899  0.0423  0.1180 -0.2061
13042W        W31896   2.398   3.957   1.363 -0.1072 -0.0240 -0.0131
13043W        W31897   1.614  10.994  13.985 -0.0135  0.2172 -0.3022
13044W        W31898   9.875  10.891   0.698 -0.0930  0.3916  0.2167
13045W        W31899   5.691  12.073   3.362  0.2743  0.0156 -0.0885
13046W        W31900  15.820   8.149   2.069 -0.2104  0.0442  0.3500
13047W        W31901  14.324  15.576  11.500 -0.1654 -0.0757  0.0177
13048W        W31902   1.810   3.027   2.890 -0.3731  0.1571  0.5518
13049W        W31903   5.556   4.346  13.918  0.2034  0.1231 -0.1624
13050W        W31904  12.895   2.861   4.665 -0.1908 -0.0033  0.0891
13051W        W31905  12.421  11.785   0.423  0.1302 -0.3310  0.2835
13052W        W31906   4.876   0.119   3.307 -0.2491 -0.1914  0.0785
13053W        W31907  14.660  10.967   4.808 -0.0410 -0.0086 -0.2943
13054W        W31908  15.444   6.730  16.280  0.2675 -0.1994  0.0452
13055W        W31909  11.011   3.905  16.776  0.4282  0.1613 -0.0617
13056W        W31910  13.494  12.917   4.155 -0.1646  0.1452 -0.1565
13057W        W31911  11.301   3.316  12.011 -0.1569  0.1292 -0.1399
13058W        W31912   2.771   1.238  16.352 -0.0712  0.1307 -0.0211
13059W        W31913  13.307  12.464   2.696  0.0586 -0.0439  0.2315
13060W        W31914   2.525  14.405   2.295  0.2570  0.0698 -0.1960
13061W        W31915   3.285  15.246   1.821  0.1297 -0.1939  0.0521
13062W        W31916   2.179   9.907  13.411  0.0945  0.1582  0.0678
13063W        W31917   1.335  13.371   1.161  0.3150 -0.1460  0.0074
13064W        W31918  15.031   8.616   0.827  0.1472 -0.0463  0.4866
13065W        W31919  11.879  17.024   2.902 -0.0563  0.1993 -0.1482
13066W        W31920  15.323  14.182   4.098  0.0985  0.0100 -0.0636
13067W        W31921   7.477   4.424   2.154  0.0658  0.1922 -0.2028
13068W        W31922  10.833  10.178  15.728  0.1687 -0.0024  0.0864
13069W        W31923   2.519  14.505   3.163 -0.0532  0.0169 -0.0861
13070W        W31924   5.050   3.678   1.261 -0.1126  0.3590 -0.1503
13071W        W31925   6.734  12.135  11.951 -0.2300 -0.3472 -0.2341
13072W        W31926   5.324  17.046  14.475  0.1069 -0.2441 -0.1118
13073W        W31927   1.712   0.081  13.762  0.0066  0.2956  0.2005
13074W        W31928   4.336  16.641   3.342  0.0495  0.1780  0.4126
13075W        W31929  15.018   0.749  13.013 -0.0057 -0.3650  0.0159
13076W        W31930   7.706   1.011  11.859 -0.0743 -0.0291  0.2601
13077W        W31931   2.945  11.436   0.598  0.3418 -0.1264  0.0205
13078W        W31932   9.699  15.199  13.637 -0.1494 -0.2455  0.0944
13079W        W31933  14.472   7.089   3.979 -0.0846  0.1093  0.1631
13080W        W31934  13.415   8.933   3.202 -0.0803 -0.1442  0.1916
13081W        W31935   7.268  15.039  15.598 -0.1307  0.2311  0.0986
13082W        W31936   3.181  10.358   1.906 -0.3402  0.0484 -0.2518
13083W        W31937  12.787  13.291   2.937 -0.0557 -0.1787 -0.0115
13084W        W31938  12.228   0.261  16.622  0.1687 -0.0484  0.1619
13085W        W31939   5.301   9.240  12.988 -0.0152 -0.2004 -0.0460
13086W        W31940   3.443  16.390   2.477  0.0415 -0.0237 -0.2553
13087W        W31941  14.308  13.776   3.300 -0.0061  0.0996 -0.2743
13088W        W31942  14.950  10.192  17.101  0.1658 -0.1115  0.1421
13089W        W31943   5.945   8.730  17.125 -0.1548 -0.3815 -0.1351
13090W        W31944   0.664   5.156   3.294 -0.2690  0.3163 -0.0175
13091W        W31945   5.633  15.477  16.752 -0.1603 -0.0917  0.2612
13092W        W31946  10.959   8.702  12.273  0.0449 -0.2220  0.0509
13093W        W31947  14.549   0.157  15.429 -0.1186  0.1983 -0.2652
13094W        W31948  10.208  16.904  14.314  0.3861  0.1054 -0.1108
13095W        W31949   0.572   7.664  14.327 -0.0739  0.0508  0.0664
13096W        W31950   2.830  15.992  15.291  0.0202 -0.1775 -0.0202
13097W        W31951   7.925  12.963   0.528  0.0990 -0.0104  0.0118
13098W        W31952   0.926  14.305  15.277  0.3132 -0.2891 -0.1698
13099W        W31953   7.816  11.067  14.752  0.1286  0.2681 -0.1040
13100W        W31954   6.506  10.614   3.094 -0.3998  0.1294 -0.3004
13101W        W31955  10.713  11.233   0.429 -0.1062 -0.0986  0.1292
13102W        W31956   9.645   3.245  15.059 -0.1234  0.1252  0.1853
13103W        W31957   8.081  10.858  17.059 -0.0734 -0.0472 -0.2093
13104W        W31958   8.647   8.424   2.520  0.2094 -0.1525  0.1368
13105W        W31959   2.583   6.904  16.282  0.0922 -0.0930 -0.0251
13106W        W31960   1.756  14.850  12.685  0.0003 -0.1203  0.1457
13107W        W31961   6.523  15.861   0.343  0.2418  0.0725  0.1363
13108W        W31962  10.550   9.173  16.531 -0.1920  0.1802 -0.0095
13109W        W31963  14.770   6.221   4.997  0.0579  0.0109 -0.1344
13110W        W31964   4.337  16.741  13.255 -0.1470 -0.0310  0.1709
13111W        W31965   4.787   5.711  16.556  0.1771 -0.2061 -0.3057
13112W        W31966   2.593   0.845   1.772  0.0490 -0.3053  0.0631
13113W        W31967   2.591  16.916  14.172 -0.0758 -0.2196  0.1815
13114W        W31968  16.420  13.680   0.903  0.2047  0.2692  0.3226
13115W        W31969   9.400  15.376   1.003  0.0076 -0.0877  0.0235
13116W        W31970   0.692  11.829  15.651 -0.1535 -0.0971  0.1643
13117W        W31971   3.559  16.185  12.393  0.2852  0.1376  0.2992
13118W        W31972  14.131  17.254  11.196 -0.3813  0.1103  0.1261
13119W        W31973  12.280  10.829   5.291 -0.0211  0.0415 -0.0613
13120W        W31974  15.074  12.342   1.376 -0.0657  0.1879  0.2325
13121W        W31975  10.365   7.683   0.001  0.2230 -0.1917  0.0482
13122W        W31976   4.528  16.714  15.622  0.0091  0.1669 -0.4254
13123W        W31977  14.748  10.662  16.389 -0.4443 -0.2743  0.1941
13124W        W31978   0.819  10.997  15.496 -0.0828 -0.2135 -0.1509
13125W        W31979  13.482  13.788  11.371 -0.2868  0.1074  0.2460
13126W        W31980   3.173  10.433   4.474 -0.0966 -0.0095 -0.0265
13127W        W31981  14.766   1.300   2.033  0.1630 -0.0341  0.0618
13128W        W31982   1.602   2.801  13.342  0.0523  0.1228  0.2655
13129W        W31983   7.139  13.364  17.261 -0.0108 -0.0635 -0.0796
13130W        W31984  12.633   8.178  15.147 -0.1129 -0.0802  0.1099
13131W        W31985   2.590  11.311   1.294 -0.1334  0.0583  0.2427
13132W        W31986  16.659  10.725  13.352 -0.1631  0.1234 -0.1940
13133W        W31987  16.073   5.222  12.661 -0.0564 -0.1528 -0.2264
13134W        W31988  13.723   1.843  12.385  0.0053  0.0823 -0.3263
13135W        W31989   2.491   3.573  16.045 -0.1242  0.0448 -0.2162
13136W        W31990   8.114   2.689  16.452  0.0225 -0.3327  0.2503
13137W        W31991   0.856  13.853   5.332 -0.1911  0.0859  0.4277
13138W        W31992   5.121  15.037  14.466  0.2801 -0.2983  0.0855
13139W        W31993   8.994   0.175  13.915 -0.4189 -0.1002 -0.0149
13140W        W31994   1.678   7.580  13.270 -0.0973 -0.0243 -0.1990
13141W        W31995  11.004  16.920   3.979  0.0062 -0.3522 -0.2858
13142W        W31996   6.542  12.669   3.917  0.2141 -0.0257  0.0863
13143W        W31997   0.846   1.629  15.504  0.3217  0.1372  0.1230
13144W        W31998  16.596   2.710  12.630  0.0095  0.1926  0.0219
13145W        W31999  16.389   8.433  12.645  0.1262 -0.0548  0.0492
13146W        W32000   9.367  15.017   5.120  0.0932 -0.0842  0.0301
13147W        W32001   6.674   5.019  12.151 -0.1147 -0.0231 -0.4085
13148W        W32002  12.025   2.026   3.578 -0.1348  0.0676 -0.0841
13149W        W32003  14.628   2.345  17.122 -0.0058 -0.1589 -0.0267
13150W        W32004  15.881  14.173  17.276 -0.1102 -0.0045  0.3016
13151W        W32005  16.143   0.151  13.212  0.0417  0.0749  0.1255
13152W        W32006   0.519  12.085   1.933  0.1246 -0.1705 -0.3041
13153W        W32007   2.892   6.788  16.860  0.3267  0.1679  0.5409
13154W        W32008   1.947   2.666  14.131  0.1992 -0.3423 -0.0217
13155W        W32009   3.541  14.871   0.997  0.1559 -0.3371 -0.1801
13156W        W32010   4.569  16.395   2.556 -0.3027 -0.0358 -0.1268
13157W        W32011   9.703   3.655   2.081  0.2294  0.0735 -0.0010
13158W        W32012   8.284   5.602  17.476 -0.1410  0.0386 -0.0098
13159W        W32013   3.132  13.553  14.830  0.0219 -0.0127  0.1091
13160W        W32014   2.714   8.107  12.546 -0.0169  0.0107 -0.1365
13161W        W32015   1.612   7.271   0.465 -0.1645  0.2261 -0.0407
13162W        W32016  13.831   6.486  13.933 -0.0318  0.0008 -0.0185
13163W        W32017   9.382  11.293  13.021 -0.0347  0.2082  0.0461
13164W        W32018   5.114  15.990  14.814  0.0949  0.0763  0.0467
13165W        W32019   2.367   3.013   4.696  0.1442 -0.2595 -0.2150
13166W        W32020  10.986   6.098   3.238  0.2722 -0.0209  0.0988
13167W        W32021   0.379   9.679   2.006 -0.2088  0.2954 -0.0031
13168W        W32022   1.286   0.010  14.036 -0.2693  0.1176  0.1939
13169W        W32023   4.759   0.442  16.318 -0.0535 -0.0498 -0.0365
13170W        W32024   7.008  12.621   5.308 -0.4687 -0.0627 -0.0189
13171W        W32025   9.178   3.910   0.470  0.1702  0.2901 -0.0399
13172W        W32026   2.938   3.730   0.092 -0.2199 -0.0710 -0.1345
13173W        W32027   7.926   5.948  17.425  0.1146  0.0288 -0.3599
13174W        W32028   9.243   2.098   2.219 -0.0763  0.0922  0.2457
13175W        W32029  13.651   0.683   4.048  0.0242 -0.2296 -0.0299
13176W        W32030  11.632   5.364  13.102  0.1315  0.2544 -0.2868
13177W        W32031  10.782  14.027   3.772 -0.0176 -0.0147  0.1135
13178W        W32032  13.554  11.349  16.457  0.0689 -0.2868 -0.0714
13179W        W32033   8.768   6.405  16.504 -0.0199 -0.1269 -0.0031
13180W        W32034  10.404  10.200  15.478  0.1098 -0.1965  0.0729
13181W        W32035  15.016   7.223  15.676 -0.2658  0.0700 -0.0623
13182W        W32036  16.781  17.155  12.549  0.1595  0.0636 -0.1455
13183W        W32037   9.998  17.087   1.800  0.1822 -0.1374  0.2528
13184W        W32038  10.135   0.735   4.988  0.2080 -0.0350  0.0689
13185W        W32039  13.408  17.130   0.522  0.3079  0.1668 -0.2500
13186W        W32040   9.315   1.979   2.867  0.1815  0.0093 -0.3670
13187W        W32041   8.502   1.232  16.020  0.1782 -0.0533  0.0321
13188W        W32042  14.640  10.355  14.122  0.0291 -0.1093 -0.0403
13189W        W32043   7.101   8.854   2.614 -0.1174  0.1563 -0.1796
13190W        W32044   2.380  11.685  14.018 -0.1951  0.1287  0.3609
13191W        W32045   1.323   0.058  15.760 -0.2200  0.0829  0.1090
13192W        W32046   5.889  12.690  12.915  0.1961  0.4525 -0.2670
13193W        W32047  16.821  17.392   3.275  0.0790 -0.1107 -0.1272
13194W        W32048   0.736  13.136   4.563 -0.1147 -0.2196  0.0252
13195W        W32049   6.775   1.026   3.644 -0.2482  0.0696  0.1036
13196W        W32050   5.881   7.101   2.420 -0.0855 -0.1290 -0.0203
13197W        W32051  17.136  11.410   4.077 -0.0564  0.0388  0.0241
13198W        W32052   3.036   7.352   2.314 -0.2569 -0.1600 -0.0575
13199W        W32053  17.361  11.779   1.733  0.1565 -0.1115  0.1304
13200W        W32054   3.340   8.893   3.715 -0.0353 -0.2707 -0.2519
13201W        W32055   9.604   8.222   3.957  0.0723  0.2105 -0.0817
13202W        W32056  15.782   0.073  17.279  0.0936 -0.1324 -0.1524
13203W        W32057  10.520  16.566   2.098  0.2099 -0.1394  0.0388
13204W        W32058   5.160   1.096   2.373  0.1716 -0.1056 -0.1540
13205W        W32059  13.254  14.311  15.571 -0.0118 -0.4354 -0.0043
13206W        W32060  10.821   7.891  16.583 -0.0270  0.0266 -0.2121
13207W        W32061   6.673   9.104   0.502  0.2199 -0.3639  0.1954
13208W        W32062   0.753   7.258   2.680  0.0079 -0.1066 -0.0403
13209W        W32063  13.619  17.327   0.944  0.1608 -0.2131  0.0090
13210W        W32064   9.083   7.576  14.977 -0.1732 -0.1284 -0.3738
13211W        W32065   2.296  10.721   2.090  0.1688 -0.3809 -0.2878
13212W        W32066   4.887  11.634  12.161 -0.0140  0.0561  0.0798
13213W        W32067  15.596  15.093  13.346 -0.2265  0.0045  0.2935
13214W        W32068  17.309  14.940  16.339 -0.1936 -0.0554  0.1015
13215W        W32069   1.809   5.147  15.175 -0.3132 -0.0387 -0.0489
13216W        W32070  17.370   1.293  15.946 -0.4029  0.0318  0.2463
13217W        W32071   9.134  14.359   1.650 -0.0944  0.1640  0.4875
13218W        W32072  12.580   6.451   0.113  0.5057  0.0722 -0.1736
13219W        W32073   2.508   2.535  16.517 -0.1102 -0.0272 -0.1661
13220W        W32074   0.649   7.758  13.654  0.2345 -0.1143 -0.2095
13221W        W32075   0.455  17.067   3.521 -0.0122  0.0009 -0.1837
13222W        W32076  13.741   9.014  12.467 -0.1625  0.0643  0.3561
13223W        W32077   1.768  16.636  13.944 -0.0232  0.2061 -0.1676
13224W        W32078   6.257   6.244  16.372  0.0575 -0.1580 -0.1060
13225W        W32079  12.347   4.791  16.322 -0.0700 -0.2032  0.0824
13226W        W32080  11.817   3.958   2.351  0.2847  0.1555  0.0273
13227W        W32081   8.022   2.302   4.633 -0.0635 -0.0149 -0.0739
13228W        W32082  16.704   0.646  14.036  0.2213  0.1202 -0.0168
13229W        W32083  12.001   8.184   0.233 -0.2104  0.0785  0.2159
13230W        W32084   5.559   5.247  17.437  0.1728 -0.0566  0.0969
13231W        W32085   6.186   1.525  15.033 -0.1010 -0.0806 -0.1742
13232W        W32086  12.007  17.242  11.858  0.1080  0.1365  0.1478
13233W        W32087  15.195   6.852  13.919  0.0482 -0.0820  0.1064
13234W        W32088   1.681  15.274  16.271 -0.1033 -0.0586  0.3532
13235W        W32089  10.434   3.789   5.490  0.0268  0.0510  0.1298
13236W        W32090  16.959   4.392  13.268  0.0666 -0.0732 -0.1419
13237W        W32091   8.775   4.114   1.284  0.0960  0.0360 -0.0873
13238W        W32092   3.128  10.010  14.190 -0.3040  0.2065 -0.2234
13239W        W32093   3.187  10.610  12.535  0.1032 -0.1873 -0.0435
13240W        W32094   2.263  14.770  15.141 -0.0161  0.3381  0.1812
13241W        W32095  14.800  12.435  14.177 -0.4218 -0.1926  0.2565
13242W        W32096   2.861   7.164  17.398 -0.0767  0.1036 -0.2148
13243W        W32097   3.096   0.939   4.805 -0.2032  0.0502 -0.1253
13244W        W32098   5.691  14.194   2.315 -0.0903  0.1365 -0.1500
13245W        W32099   5.784   3.736   3.991  0.1779 -0.0763 -0.2781
13246W        W32100   2.790  10.640   0.521 -0.0397 -0.0903 -0.0539
13247W        W32101  16.706  15.469   2.109 -0.0013  0.3229  0.0254
13248W        W32102   0.444   8.656  14.167 -0.0018  0.1429  0.2753
13249W        W32103   8.133  11.896   2.808  0.1158 -0.0037  0.1031
13250W        W32104   2.065  11.082   3.379  0.3494  0.1070  0.0628
13251W        W32105   4.479   4.535   0.719 -0.3406 -0.3090  0.3866
13252W        W32106  16.528   4.790   2.261 -0.2255 -0.1872 -0.2704
13253W        W32107   1.688   1.013  17.137  0.0265 -0.0665 -0.2102
13254W        W32108  11.301   3.686   3.787 -0.3412 -0.0401  0.1423
13255W        W32109   8.571   3.780   4.071  0.2193 -0.0346 -0.0811
13256W        W32110  14.048  16.274  17.365 -0.0615  0.0774 -0.0551
13257W        W32111   9.678   9.107  17.175  0.0970  0.0983  0.1667
13258W        W32112  10.537  16.499   0.700  0.2218  0.0593 -0.0137
13259W        W32113  12.903   6.887  17.464  0.1075 -0.3184 -0.1682
13260W        W32114  14.344   3.898   3.937  0.0369  0.2987  0.2170
13261W        W32115  15.045  16.199   4.993  0.0670  0.0208 -0.1454
13262W        W32116   1.079   5.959   4.754  0.0463  0.1009 -0.0349
13263W        W32117  16.055   1.058  14.634 -0.1176  0.1684  0.0868
13264W        W32118  13.320   2.371   2.536  0.0001 -0.2206  0.0607
13265W        W32119   0.225   3.517  15.570  0.2614 -0.2815  0.0304
13266W        W32120   8.281   2.620  14.370  0.1285  0.2042 -0.1115
13267W        W32121   5.940   7.470   2.051 -0.0362  0.4593 -0.0736
13268W        W32122  12.994   7.461   0.707  0.1120 -0.0971 -0.4493
13269W        W32123   8.305   2.332  15.248  0.0090  0.1292 -0.3801
13270W        W32124   6.185   7.503   2.592 -0.1027 -0.0773  0.0732
13271W        W32125  13.383  16.323  16.224  0.1122  0.0282 -0.1410
13272W        W32126   3.008   1.901  14.391 -0.0841 -0.3009 -0.4826
13273W        W32127   4.531  14.704  12.789 -0.3228 -0.1853 -0.3125
13274W        W32128   9.004  13.124   2.880 -0.5499 -0.1105  0.0596
13275W        W32129   5.063   3.884  13.238 -0.1583 -0.0050 -0.0004
13276W        W32130   2.822   1.990  15.911  0.0731 -0.0407 -0.0294
13277W        W32131   3.117   5.148   2.411 -0.1855  0.0222 -0.1633
13278W        W32132   1.163   9.033   0.175 -0.1988  0.0870  0.1397
13279W        W32133   0.902  12.709  15.723  0.1090 -0.0195  0.1803
13280W        W32134  11.701   3.611  15.735 -0.0460 -0.0784  0.2258
13281W        W32135   8.780   3.679  11.132 -0.4022  0.2676  0.3089
13282W        W32136   0.520   2.546  15.775 -0.3442  0.0345 -0.0866
13283W        W32137  16.973   1.039  14.293 -0.3409  0.0853 -0.1182
13284W        W32138   4.012   2.549   6.255 -0.0118 -0.0868 -0.1629
13285W        W32139   6.421  12.772  13.726  0.1829  0.0067 -0.0854
13286W        W32140   3.961  14.235   2.901 -0.1280 -0.0930  0.3549
13287W        W32141  12.855  10.622   5.169 -0.1613 -0.0841 -0.0447
13288W        W32142  10.681   0.272   2.874  0.1930  0.0915  0.0318
13289W        W32143   4.047  14.568   0.724 -0.2048  0.1254 -0.0811
13290W        W32144   1.805   8.487  13.598  0.1594 -0.1637  0.1253
13291W        W32145   8.529   6.272  14.616  0.0361 -0.0265  0.0742
13292W        W32146   9.787  15.713  13.743 -0.3598 -0.0975  0.4444
13293W        W32147   8.094   9.978  16.687  0.2492  0.0828  0.1600
13294W        W32148   9.214   0.021  15.965  0.2540 -0.0246  0.0865
13295W        W32149   0.258   0.369  12.371  0.0640 -0.2630 -0.0881
13296W        W32150   9.329  14.606  17.056 -0.1775  0.2630  0.1595
13297W        W32151   8.220  12.958  15.719  0.1202  0.2691  0.0397
13298W        W32152   5.137  13.136  14.709  0.0386  0.0166 -0.3080
13299W        W32153   3.392  14.381   2.430  0.2217 -0.1726 -0.1969
13300W        W32154  11.858   7.941   2.818  0.0699  0.3464 -0.2386
13301W        W32155   9.786  14.772  12.426 -0.0239 -0.0039  0.0068
13302W        W32156   9.700  17.133  16.537  0.0315 -0.1095 -0.2707
13303W        W32157  16.228  15.351   1.128 -0.0268  0.0387 -0.0825
13304W        W32158   6.116   3.502  15.118 -0.1825  0.0525 -0.0757
13305W        W32159   1.769   2.132  13.959  0.1697 -0.0184 -0.0362
13306W        W32160   3.155   8.560   5.020 -0.0166 -0.0741  0.1791
13307W        W32161   3.092   8.390  17.433 -0.3109  0.0362  0.2733
13308W        W32162  14.570   8.388   0.214  0.1118 -0.3016 -0.4082
13309W        W32163   4.814  17.059  17.448  0.1206  0.0550 -0.1028
13310W        W32164   3.251  14.605   0.072  0.0178 -0.0833 -0.1914
13311W        W32165   6.753   8.562  12.646  0.0925 -0.1767  0.0312
13312W        W32166   6.594   1.423  17.111 -0.0845 -0.2838 -0.0888
13313W        W32167  14.395   6.146   5.306 -0.1549 -0.3318 -0.1177
13314W        W32168   0.073  15.218  13.012  0.0813 -0.1871 -0.2075
13315W        W32169   4.583   9.196  11.809  0.0219 -0.1023  0.0593
13316W        W32170   8.767   3.873   2.967 -0.1160  0.0490 -0.0476
13317W        W32171   3.633   2.358  16.172  0.2265  0.0746 -0.0673
13318W        W32172   0.503  15.301  14.966  0.1600  0.2049 -0.1076
13319W        W32173  13.378   7.912   3.370 -0.1124 -0.3144  0.1187
13320W        W32174   8.390   3.968  16.490 -0.2647 -0.0098 -0.1076
13321W        W32175  14.305   7.560  14.274  0.1897 -0.1413 -0.2438
13322W        W32176  11.747   6.706   5.065  0.0756 -0.0741  0.0114
13323W        W32177  13.712  12.662  16.191  0.0673 -0.0117 -0.0297
13324W        W32178   7.199   4.589   3.662  0.0841  0.1898 -0.1026
13325W        W32179  15.977   2.722   1.951  0.0034 -0.0539 -0.2646
13326W        W32180  16.705  14.200   4.307 -0.1389 -0.0901  0.0556
13327W        W32181  12.033   2.537   2.268 -0.0056  0.3996  0.1463
13328W        W32182   5.551  12.557  14.820 -0.1387  0.2132  0.0617
13329W        W32183   0.756  15.386  16.520 -0.0273 -0.5752 -0.1751
13330W        W32184   5.165   8.869   4.956 -0.1477  0.0777 -0.0987
13331W        W32185   3.562   2.259   2.460  0.2281  0.2556 -0.0909
13332W        W32186  10.552  12.245   4.588 -0.0358  0.0980  0.1626
13333W        W32187   4.963   3.882   2.902  0.1723 -0.3342  0.1082
13334W        W32188   6.489  13.999   3.188 -0.0203 -0.2959 -0.2750
13335W        W32189   4.937  10.349  12.411 -0.0075  0.1498  0.0872
13336W        W32190   4.991   2.285   3.026  0.0217 -0.2506 -0.4293
13337W        W32191  10.802  14.847  15.876 -0.0585  0.1353 -0.2159
13338W        W32192  13.747  10.573  17.106  0.1557  0.0928 -0.0430
13339W        W32193   5.089  14.270  13.050 -0.2936  0.0042  0.1988
13340W        W32194  13.650   0.840  13.633 -0.1608  0.0804  0.0897
13341W        W32195   5.738   7.728  16.353  0.3330 -0.0953  0.0537
13342W        W32196   1.421   2.968   4.274 -0.1273 -0.1835 -0.0954
13343W        W32197   2.224  13.432   3.419 -0.1913 -0.1109  0.2301
13344W        W32198   4.337   9.941   5.222  0.0600  0.1640  0.1378
13345W        W32199   7.531  12.882   0.915 -0.1941  0.1541 -0.0602
13346W        W32200  12.795  14.010   4.105 -0.1600  0.1948  0.1056
13347W        W32201  15.299   2.341   5.527  0.0893 -0.1346 -0.1685
13348W        W32202   2.123  16.351   0.079 -0.0666 -0.1790  0.4898
13349W        W32203   8.799  11.328   0.701  0.0665 -0.0286  0.1490
13350W        W32204  14.963   3.613  17.446 -0.0307  0.1329 -0.1444
13351W        W32205  14.715   2.431  14.240 -0.1416 -0.1347  0.0294
13352W        W32206   3.646  17.110  15.048 -0.0731 -0.1614  0.0508
13353W        W32207  14.270  14.615   3.937 -0.0681  0.1331 -0.0246
13354W        W32208   3.481  10.286  17.436  0.0656 -0.0214  0.0308
13355W        W32209   5.002  15.744   4.038  0.0776  0.2109 -0.1852
13356W        W32210   2.318   9.351   0.748 -0.4424  0.0574 -0.1939
13357W        W32211  10.552  11.999   1.421  0.1590 -0.1317  0.3106
13358W        W32212  16.997  10.590  15.090 -0.0629 -0.1213 -0.0606
13359W        W32213   2.526   9.632  13.093 -0.0964 -0.2073  0.0861
13360W        W32214  12.780  11.549  15.052  0.1246 -0.1719  0.2566
13361W        W32215  15.848   1.841   6.203 -0.0490 -0.1455  0.0688
13362W        W32216   1.354  14.054   3.915 -0.2030  0.2069  0.0522
13363W        W32217  16.341   1.597   5.070  0.0275  0.0744 -0.1482
13364W        W32218  16.086   2.683  14.602  0.2068 -0.5021 -0.0711
13365W        W32219   2.038  10.836  17.010  0.1646  0.2488 -0.1211
13366W        W32220   5.952   1.004   3.004  0.0534 -0.0988  0.0365
13367W        W32221  10.645   4.639   2.539  0.0569 -0.0499  0.1217
13368W        W32222   2.772  15.779   4.405  0.3182 -0.1894  0.1525
13369W        W32223  10.280  10.934  12.847 -0.4023  0.1048 -0.1052
13370W        W32224   9.457  12.347   3.517 -0.0970 -0.0866 -0.1827
13371W        W32225   5.432   5.559  14.499  0.1714 -0.3002  0.3970
13372W        W32226  15.879   6.098  11.713 -0.1118  0.1470 -0.1805
13373W        W32227   6.733   6.369  13.097 -0.1746  0.0704  0.2008
13374W        W32228  16.939  16.963   2.806 -0.0274  0.0923 -0.0362
13375W        W32229   5.035   6.233   4.548  0.0571  0.2688 -0.0356
13376W        W32230   0.296   2.680   0.785  0.0320  0.1686  0.1947
13377W        W32231   4.591   3.617  13.154 -0.0683  0.1321  0.0239
13378W        W32232  10.430   0.585   2.575  0.1750 -0.1972 -0.3393
13379W        W32233   1.144   1.750   4.659  0.3569  0.0713  0.0916
13380W        W32234   4.359   5.981  15.206  0.0437  0.0903 -0.0204
13381W        W32235  14.748   8.396  16.433  0.0237  0.1749  0.0715
13382W        W32236   2.003  14.153   1.755  0.0971  0.0420  0.4174
13383W        W32237  16.251   7.206   1.474  0.0358  0.2920  0.1652
13384W        W32238   2.651  16.833   4.022 -0.0349 -0.5256 -0.0850
13385W        W32239   5.642   0.887  12.381 -0.4406  0.0119  0.2271
13386W        W32240   1.973  17.028  13.451 -0.2419  0.0059  0.0884
13387W        W32241   1.583   9.679   3.375  0.3318 -0.3194 -0.1016
13388W        W32242  17.076   0.433   3.326 -0.0742  0.2928 -0.2510
13389W        W32243  13.376   5.264   1.089  0.2733  0.0834 -0.2500
13390W        W32244  10.719  11.736   3.099 -0.0786 -0.0970 -0.1708
13391W        W32245  15.222   7.056   0.094 -0.1127 -0.2652 -0.1966
13392W        W32246   7.807   4.364  16.160 -0.0388  0.2041  0.0371
13393W        W32247   0.252   4.907  16.354 -0.2408 -0.1577 -0.2900
13394W        W32248   0.079  16.408  12.326 -0.0603  0.0196  0.0085
13395W        W32249  14.737   7.726  13.424 -0.0568  0.1690  0.0636
13396W        W32250   6.491  12.315  16.777  0.1818  0.2831 -0.0925
13397W        W32251   5.269   4.182   1.332  0.3692  0.1631 -0.0368
13398W        W32252  13.955   9.424   3.381 -0.1656 -0.0795 -0.2442
13399W        W32253  13.950   9.009   4.567  0.2177 -0.0966 -0.0726
13400W        W32254  16.089  14.670   0.487 -0.1373 -0.0976 -0.1416
13401W        W32255  15.041   5.321  17.037  0.0983  0.0674  0.2672
13402W        W32256   6.499  13.151  14.938 -0.2546  0.2162 -0.0981
13403W        W32257  12.685   3.967  13.309  0.1483  0.2315  0.0832
13404W        W32258  16.309   3.126   1.341 -0.1458 -0.1151  0.1921
13405W        W32259   6.223  14.504  14.283 -0.1753 -0.0609  0.1122
13406W        W32260   0.742   9.559   1.639 -0.1999  0.1712 -0.3791
13407W        W32261  10.322  15.606   1.354  0.2633 -0.0668 -0.0340
13408W        W32262  16.464   7.135   3.404  0.0913 -0.0451 -0.0769
13409W        W32263   9.314   5.490   6.292 -0.0285 -0.1917 -0.1030
13410W        W32264   3.091  16.986  15.860 -0.2661  0.4324  0.1016
13411W        W32265   6.412   2.790   0.334 -0.0920 -0.0917  0.1795
13412W        W32266   8.499  10.684   5.396 -0.2759 -0.4372  0.0350
13413W        W32267   6.407  15.858   0.913 -0.0223 -0.0098 -0.2472
13414W        W32268   3.396   8.132   5.194  0.0353 -0.3433 -0.1608
13415W        W32269   2.262  16.587  15.883 -0.2294 -0.0258  0.0577
13416W        W32270   5.348  15.777  13.195 -0.1368  0.1722 -0.0926
13417W        W32271  10.372  10.419   0.152  0.1120 -0.3458  0.1759
13418W        W32272   0.232   2.129   0.777  0.1179 -0.1994  0.1603
13419W        W32273  16.679   0.832  12.477 -0.1488 -0.1454 -0.1151
13420W        W32274   0.986  12.228  15.071  0.1238 -0.1608 -0.1330
13421W        W32275  16.411  11.103  13.724  0.2715  0.2326  0.2135
13422W        W32276   2.921   2.844  17.189  0.2451  0.3937  0.0078
13423W        W32277  14.072   3.266  13.438  0.4678 -0.1604  0.1019
13424W        W32278   2.070  15.489   0.399  0.1919  0.1913 -0.4087
13425W        W32279  14.164  13.136  13.666  0.1247 -0.0474 -0.1231
13426W        W32280   7.298   5.428   3.281 -0.1493  0.3470 -0.1120
13427W        W32281   8.605   0.952  15.028  0.0816 -0.4001 -0.0383
13428W        W32282  12.821   3.535  15.119 -0.0328 -0.3666 -0.0217
13429W        W32283   3.291  14.910   3.437 -0.3189  0.0023  0.0511
13430W        W32284   6.337   5.591   0.622  0.1015  0.1613 -0.0111
13431W        W32285   5.982   6.083   1.885  0.1618  0.2207 -0.0345
13432W        W32286   6.582   7.564  16.454  0.2879  0.0429 -0.0924
13433W        W32287   0.554   3.993  12.415 -0.0887 -0.3215 -0.1445
13434W        W32288  17.281   9.822  13.452 -0.0245 -0.1649 -0.0866
13435W        W32289  10.429  17.212  16.981  0.2086 -0.0228  0.2557
13436W        W32290   3.801  15.786   0.124 -0.0031 -0.2371  0.0259
13437W        W32291   0.972   5.469   2.533 -0.2176  0.0063 -0.0420
13438W        W32292  12.897   8.121   5.040  0.0705  0.1252  0.1972
13439W        W32293   0.403   0.011  13.186  0.0072  0.3224 -0.4078
13440W        W32294   2.775  15.274   1.600  0.3220  0.0338 -0.1317
13441W        W32295   6.398   5.427  12.418 -0.1326 -0.1075  0.3408
13442W        W32296  11.604   1.485  17.485  0.1732  0.3381  0.1085
13443W        W32297  16.814  15.583  15.496 -0.0210 -0.0050  0.1408
13444W        W32298  11.170  16.901  16.062 -0.0026  0.2374 -0.1356
13445W        W32299   0.850  16.199   4.553 -0.3335 -0.0888  0.0957
13446W        W32300   6.710   5.672   3.451  0.2227 -0.3031  0.2688
13447W        W32301   3.892  14.584   4.251  0.0694 -0.2809 -0.5472
13448W        W32302  16.725  14.416   2.888 -0.1048  0.2462 -0.0992
13449W        W32303   3.924   3.843   0.295 -0.0510  0.0903  0.0794
13450W        W32304  14.185  14.075  15.557  0.1003  0.0156  0.2500
13451W        W32305   7.946  15.728   3.802 -0.2184 -0.0132 -0.2331
13452W        W32306  13.350  10.924  14.497 -0.1479  0.0120  0.0743
13453W        W32307   4.749  15.776  13.007  0.0003 -0.0566 -0.1000
13454W        W32308   7.776   7.879  12.584  0.0588 -0.1551  0.1378
13455W        W32309   7.918  15.860   0.739 -0.1392  0.2009  0.0557
13456W        W32310   2.641   7.147   4.357 -0.0639 -0.1842  0.6005
13457W        W32311  10.561  11.467  13.511  0.3667 -0.1959 -0.4396
13458W        W32312   8.789   6.699   0.488  0.0649  0.2011 -0.0007
13459W        W32313  12.792  16.827  12.684 -0.0907 -0.0296  0.1129
13460W        W32314  14.959   5.494  14.091  0.2588  0.0683  0.0092
13461W        W32315  14.108   1.104   0.117  0.1787 -0.1397  0.1799
13462W        W32316  12.716   3.344  12.433 -0.0268  0.0946  0.1802
13463W        W32317  15.809   1.843  13.407 -0.1012  0.0830 -0.0094
13464W        W32318   5.133  16.743  13.123  0.0095  0.0922 -0.1014
13465W        W32319   2.691  15.743  13.233  0.2658  0.0569 -0.0467
13466W        W32320   0.492   2.539   4.031 -0.2258 -0.0239 -0.2214
13467W        W32321  15.875   3.066  15.618 -0.1695  0.0021  0.2068
13468W        W32322   0.684   6.485   1.200  0.2424  0.1210 -0.0753
13469W        W32323   3.571   6.430   1.119  0.2551 -0.4057 -0.2279
13470W        W32324  14.379  12.554  12.706 -0.0307 -0.0046 -0.0760
13471W        W32325   1.095   8.671  12.217  0.2199 -0.1154 -0.0178
13472W        W32326   9.592  15.809   2.184 -0.1302  0.0663  0.1645
13473W        W32327  10.420   6.696   4.867  0.0885 -0.1049 -0.0822
13474W        W32328  12.044  13.516   4.246  0.1033  0.1347  0.3530
13475W        W32329   1.718  14.306   4.385  0.2603  0.1847 -0.1457
13476W        W32330   5.186   7.686   2.502 -0.0669 -0.1610 -0.2994
13477W        W32331  12.582   2.393   3.719  0.3335 -0.1603  0.1657
13478W        W32332  11.334  15.937   3.551 -0.1172 -0.2835 -0.1434
13479W        W32333  13.643   4.071  14.175 -0.2291  0.2283  0.0510
13480W        W32334   7.599   3.102  16.899 -0.0592 -0.3308 -0.0174
13481W        W32335   3.088   5.210   1.071 -0.0895  0.0692 -0.1455
13482W        W32336  13.081   8.438  14.101 -0.2036 -0.1516 -0.2957
13483W        W32337  14.959  14.401  12.991  0.0216  0.1601  0.0063
13484W        W32338  16.652   4.413  16.987  0.1188 -0.0843  0.0958
13485W        W32339   7.613   9.797  16.527  0.1203 -0.3041 -0.1162
13486W        W32340   9.564  16.211  16.754 -0.2088 -0.4661  0.0814
13487W        W32341   3.280   2.039   3.312  0.2398 -0.1574 -0.2452
13488W        W32342   3.064   0.683   1.563 -0.2321  0.2156 -0.1609
13489W        W32343  14.088  16.730  13.025  0.0903  0.1916  0.2287
13490W        W32344   0.609   5.781   1.751  0.0826  0.0730  0.2348
13491W        W32345   0.990  16.962   5.144 -0.0487 -0.3582 -0.0775
13492W        W32346   9.292   8.657   5.246 -0.0227 -0.1355 -0.1913
13493W        W32347  12.186  10.131  16.890  0.0112 -0.0619  0.0615
13494W        W32348  14.980   4.685   1.225  0.0884 -0.2764  0.0430
13495W        W32349  10.102   0.231  17.158 -0.1251 -0.1812 -0.0917
13496W        W32350   8.124   2.200   2.804 -0.1660 -0.1146 -0.1145
13497W        W32351   6.714  16.553  14.589 -0.0648  0.1765 -0.2801
13498W        W32352   6.039  10.559  16.367 -0.1251 -0.3243 -0.1532
13499W        W32353   6.159   8.766   1.386 -0.1162 -0.0070  0.2170
13500W        W32354   2.918   5.545  14.800 -0.5623 -0.0809  0.0386
13501W        W32355  11.851  16.915   2.407  0.1567  0.0698  0.1706
13502W        W32356   5.473  17.269  12.623 -0.1097 -0.3317  0.0803
13503W        W32357  15.478   5.965   4.043 -0.1546 -0.0044  0.3872
13504W        W32358   9.752  13.243   0.359  0.1219 -0.2007  0.4196
13505W        W32359  16.623   0.685  16.196 -0.3344  0.0588  0.0252
13506W        W32360   6.204   3.136  15.505  0.2020  0.0425 -0.0357
13507W        W32361   3.976   2.106   4.268  0.0523 -0.0856  0.2796
13508W        W32362   5.288   9.961   3.253 -0.1473  0.2230 -0.2998
13509W        W32363  12.354  13.733  13.193  0.1511 -0.1313  0.1372
13510W        W32364   7.714  13.112  15.123 -0.1173 -0.0375  0.2793
13511W        W32365  13.816   0.163   1.678 -0.0693 -0.1178  0.2854
13512W        W32366  16.474   1.293  15.542 -0.2433 -0.0760 -0.1513
13513W        W32367  12.840   8.576   0.736  0.1275  0.3474  0.2282
13514W        W32368  14.318   7.827   0.154  0.3956  0.1569  0.0336
13515W        W32369   2.205   1.037   4.012 -0.3036 -0.0878 -0.0244
13516W        W32370   4.308  11.479  13.760  0.1575  0.1702 -0.1747
13517W        W32371  11.546  15.591   1.553  0.3035  0.1337  0.0670
13518W        W32372   5.122  10.397   1.253 -0.3835  0.0130  0.0760
13519W        W32373   2.309  10.430  16.700  0.0430 -0.3250 -0.1712
13520W        W32374  16.553   6.482   0.991  0.0179 -0.2032  0.0160
13521W        W32375   9.444   2.670   1.929 -0.2397 -0.1217  0.0422
13522W        W32376   9.859   2.844   1.129  0.4530 -0.0096 -0.1269
13523W        W32377   7.087  15.974   2.054  0.1202 -0.0664 -0.0147
13524W        W32378  15.647   8.977  13.192  0.2352 -0.1116  0.0360
13525W        W32379   0.140   4.835   1.957  0.0884  0.1436 -0.3296
13526W        W32380   1.264   7.064  12.276 -0.1679 -0.0464 -0.0302
13527W        W32381  11.839  15.851  16.985  0.0761 -0.0153 -0.1793
13528W        W32382  16.800   1.513  14.358 -0.0717  0.1462 -0.1829
13529W        W32383   0.026  12.541   4.274  0.0686 -0.0984  0.0806
13530W        W32384   0.414   7.047   4.964 -0.1621  0.3289 -0.1508
13531W        W32385   5.302   5.593  12.440 -0.2328 -0.0031 -0.1414
13532W        W32386  13.783  14.222   1.754  0.1528 -0.0529 -0.0341
13533W        W32387   4.128  14.885   2.843 -0.2336  0.1158 -0.3508
13534W        W32388   7.166  17.330   1.714  0.0801 -0.1923  0.0107
13535W        W32389   6.850  11.401   3.062 -0.2823 -0.0732 -0.1370
13536W        W32390  17.123   0.651  15.893  0.0219  0.1032 -0.0345
13537W        W32391   4.221   7.976   0.055 -0.2376 -0.0722 -0.1024
13538W        W32392   4.985   7.301   4.438  0.1031 -0.0046  0.2540
13539W        W32393   5.349   0.196   3.026  0.0981 -0.1582  0.1000
13540W        W32394  15.141  15.952  15.527  0.0354  0.1705 -0.2256
13541W        W32395  10.501   5.421  12.442  0.2519  0.2698  0.1403
13542W        W32396   5.027   6.882  15.686 -0.2419 -0.0905 -0.0698
13543W        W32397   5.102   6.731   0.036  0.3299  0.1158 -0.0887
13544W        W32398  17.061  12.159   4.659  0.1160  0.0617 -0.0684
13545W        W32399  10.702  11.827  13.195  0.0359 -0.3079  0.3062
13546W        W32400   5.658  12.194   4.822 -0.1799  0.1286  0.0869
13547W        W32401   6.054   5.160   3.399 -0.2243 -0.0957  0.0163
13548W        W32402  12.025   1.045  16.091 -0.3884  0.0141 -0.3333
13549W        W32403   1.188  16.870  15.756 -0.2282 -0.0921  0.1784
13550W        W32404   7.134   9.579   2.199 -0.0244 -0.0792 -0.2261
13551W        W32405   8.383  12.839  17.192 -0.2097  0.1474  0.0390
13552W        W32406   4.224   0.381   1.198 -0.1029  0.0214 -0.0922
13553W        W32407   2.397  14.862   4.350 -0.1155  0.5595 -0.0385
13554W        W32408   9.347   8.477  13.844 -0.2645  0.0762 -0.0420
13555W        W32409   9.551  11.328   1.577 -0.1692  0.1101 -0.0790
13556W        W32410  14.758  13.938   3.179 -0.0509  0.0993  0.2970
13557W        W32411  16.102   9.134  13.307  0.0486 -0.1827 -0.2101
13558W        W32412   7.313  12.413  13.440  0.1194 -0.1568 -0.1701
13559W        W32413   4.974   6.106  13.320  0.0959 -0.0121 -0.0235
13560W        W32414  11.530   8.359   2.999 -0.2699 -0.4815  0.0684
13561W        W32415  14.174   9.060  15.292 -0.0243 -0.0809  0.1592
13562W        W32416   8.485  11.530  15.667 -0.1384 -0.0697  0.0835
13563W        W32417   6.064   7.449  16.724 -0.1445  0.1805  0.0213
13564W        W32418   0.573  11.303   3.233 -0.0858  0.0754  0.1841
13565W        W32419   6.061   0.691   4.389 -0.0267  0.0168 -0.1897
13566W        W32420   1.782  14.301   5.151  0.3280  0.0798 -0.0817
13567W        W32421  16.303   9.440  13.647  0.4240  0.0442 -0.0200
13568W        W32422  12.575  11.431  17.444  0.0240 -0.0302  0.0298
13569W        W32423  16.933   9.985  13.799  0.1250 -0.0528 -0.1470
13570W        W32424   6.571   1.654  15.819  0.0945  0.4235  0.0335
13571W        W32425   7.170  16.863   1.920 -0.2203 -0.1579  0.0066
13572W        W32426  17.259  10.204   3.027  0.1434 -0.1669 -0.5376
13573W        W32427   6.797  14.977   0.511  0.0885 -0.0022  0.1664
13574W        W32428   6.841   8.533   4.168 -0.1574 -0.0827  0.0824
13575W        W32429   9.070   4.101  11.747  0.0525 -0.1358 -0.2842
13576W        W32430   6.477   3.838  14.990  0.1089  0.0760  0.3922
13577W        W32431  17.057   0.517  13.505 -0.0216  0.1124  0.1280
13578W        W32432   1.315   7.646  16.728 -0.0051  0.1042  0.0392
13579W        W32433   4.142  11.941   1.758 -0.3110 -0.4714 -0.0254
13580W        W32434  10.557   6.862   2.113 -0.0961  0.0815 -0.2086
13581W        W32435   5.310   6.054  13.682  0.1269 -0.0162  0.1382
13582W        W32436  16.736   8.116  13.482 -0.1512 -0.1985  0.0645
13583W        W32437  16.937   8.228   1.411  0.1182  0.1940  0.2546
13584W        W32438  10.674   9.304   4.269  0.0803 -0.2037  0.2019
13585W        W32439   9.273  15.569  13.700 -0.1503 -0.2671  0.2248
13586W        W32440   3.084   3.188   1.308  0.0655 -0.1803 -0.0881
13587W        W32441   1.385  17.361   5.133  0.0071 -0.2194 -0.0182
13588W        W32442   9.014   0.108  16.670 -0.2898 -0.0104 -0.0739
13589W        W32443   4.196   0.645  14.233  0.0664 -0.1098 -0.0281
13590W        W32444  15.543   4.154   3.216 -0.0712 -0.0735  0.1133
13591W        W32445  13.327   2.872  16.900 -0.1277  0.0371  0.0656
13592W        W32446   8.971  11.623   3.042 -0.0939  0.2582  0.2986
13593W        W32447  11.874   0.302  12.152 -0.3118  0.1113  0.0863
13594W        W32448   6.522  13.524   4.436  0.3461 -0.2250 -0.2314
13595W        W32449  11.364   5.760  12.762  0.1519 -0.1379 -0.2033
13596W        W32450   7.103  16.658   2.613 -0.0891  0.0450  0.2777
13597W        W32451  15.155   9.082   2.721  0.1275  0.0139 -0.4434
13598W        W32452   8.215  10.690   0.431 -0.0555  0.1420 -0.0036
13599W        W32453   8.173   8.273   1.882 -0.1331  0.0216  0.1767
13600W        W32454   4.154  13.233  16.744  0.0473  0.2113 -0.2127
13601W        W32455   8.729   7.551  17.413  0.1288  0.1435  0.1625
13602W        W32456   5.628  11.328   4.590  0.2626  0.3469 -0.0110
13603W        W32457   4.289  15.916  12.783  0.0768  0.3028  0.0949
13604W        W32458   9.144  12.146   0.397 -0.0667 -0.0422 -0.0333
13605W        W32459  15.691   0.430  16.141 -0.0795 -0.1657  0.2174
13606W        W32460   1.727   6.038   2.672  0.1544  0.1340 -0.0599
13607W        W32461   9.017  10.567   0.002  0.1005  0.2993 -0.0482
13608W        W32462  10.198   7.827   1.064 -0.0556 -0.1781  0.0810
13609W        W32463   5.803  14.191  14.389 -0.0767 -0.3075 -0.0786
13610W        W32464  12.725  14.207   1.200 -0.2479 -0.1477 -0.2226
13611W        W32465   9.131   9.197   2.524 -0.0553 -0.0278  0.1053
13612W        W32466   5.811   6.281  12.554  0.4937 -0.0613 -0.0417
13613W        W32467   9.345  11.041   2.479  0.0767  0.0582 -0.3720
13614W        W32468   8.732   0.160  13.002  0.0069 -0.5203 -0.0967
13615W        W32469   6.643  13.510   5.819  0.2188  0.0136  0.0696
13616W        W32470  16.110  10.263   3.890 -0.2641 -0.2833  0.1705
13617W        W32471   9.607  17.275  12.196 -0.0714  0.0901  0.2691
13618W        W32472  16.781  16.449   3.036  0.0478  0.4374  0.1621
13619W        W32473  17.305  10.859   0.332  0.1923  0.1037  0.0470
13620W        W32474  14.496   0.771   0.011 -0.0101  0.3945  0.0661
13621W        W32475   4.397  10.914   4.295  0.0391  0.1490  0.1430
13622W        W32476   9.184   1.705  16.774  0.0117  0.2429 -0.0434
13623W        W32477   5.544   5.145   0.787 -0.0591 -0.1223  0.0751
13624W        W32478   7.051  12.065   3.558  0.2108 -0.1177 -0.1957
13625W        W32479  15.683   0.759   2.062 -0.1109 -0.0354  0.0444
13626W        W32480   6.882  10.231   1.333  0.0995  0.0427 -0.5778
13627W        W32481   7.796   1.250   0.497 -0.0980  0.1978  0.1054
13628W        W32482   8.394   0.928  12.763 -0.0363 -0.3650 -0.0883
13629W        W32483  13.610   2.953   1.728 -0.0558 -0.0331 -0.4996
13630W        W32484  15.485  16.168   1.285 -0.2513  0.3707 -0.0210
13631W        W32485  14.614   2.805  16.934 -0.0351  0.1015  0.2172
13632W        W32486  14.930  15.416  13.634 -0.2510  0.0566 -0.0026
13633W        W32487   3.791  16.152  15.378  0.0220  0.1873 -0.0640
13634W        W32488   6.498   3.567   0.689  0.3563  0.2651  0.1727
13635W        W32489  14.359  14.208   3.000  0.1507 -0.0691  0.2765
13636W        W32490   8.711  15.724   3.112 -0.1652  0.0219  0.1190
13637W        W32491  14.528   0.474  13.313 -0.2550 -0.2237  0.0712
13638W        W32492  15.108   1.580  14.024 -0.1570 -0.0411 -0.2569
13639W        W32493  16.070  15.350  12.559  0.1351 -0.0395  0.2453
13640W        W32494  16.759   0.335  12.531 -0.2017  0.0660 -0.0725
13641W        W32495  12.858   6.854  15.699  0.0332 -0.0025 -0.1649
13642W        W32496   6.569   5.213   4.690 -0.0628  0.1051  0.2822
13643W        W32497  16.205  15.725  14.237 -0.1397 -0.4720 -0.1990
13644W        W32498  16.205   2.829   0.400 -0.3535  0.0081 -0.3676
13645W        W32499   1.670   5.746   2.233 -0.0761  0.3041 -0.1452
13646W        W32500  16.007   4.874  14.088  0.5823 -0.2381  0.0295
13647W        W32501  15.686  10.532  12.318 -0.1179 -0.0588  0.1154
13648W        W32502  11.989   7.624   0.465 -0.3103 -0.1301  0.0796
13649W        W32503   5.122  15.841   0.994  0.3289  0.1467 -0.2193
13650W        W32504   6.285  13.077  14.177  0.2744 -0.0138  0.1128
13651W        W32505   0.848   2.689  14.759 -0.1261  0.1845 -0.0686
13652W        W32506   3.711   4.376   2.367 -0.1796 -0.1522  0.2241
13653W        W32507   7.959  16.037   4.306  0.0721  0.3407  0.2302
13654W        W32508  13.561   2.224  17.065 -0.0616 -0.1925  0.0097
13655W        W32509   4.723   1.157  16.696  0.0130  0.2020 -0.1250
13656W        W32510  12.234   6.381   3.581 -0.1784  0.1322  0.2082
13657W        W32511   8.710  14.195  15.733  0.0840  0.1489  0.0474
13658W        W32512   3.713  12.070   4.487 -0.3503 -0.0814  0.2487
13659W        W32513  12.741  11.944  13.849  0.0490 -0.0063 -0.1335
13660W        W32514  13.235   2.820  16.083 -0.2337  0.1327 -0.1886
13661W        W32515   9.277  16.434   2.710  0.4481 -0.0334 -0.3511
13662W        W32516   2.554   9.274   1.770 -0.1821 -0.1177  0.0263
13663W        W32517  16.416  16.200  12.996 -0.1524  0.1811  0.1753
13664W        W32518  15.718   1.799  16.010  0.2206  0.1823 -0.2463
13665W        W32519   3.537  16.252   1.594  0.1954 -0.0885 -0.0273
13666W        W32520   9.003  14.787  13.243 -0.2668  0.0681  0.0792
13667W        W32521  10.584  14.165  12.365  0.0997 -0.1151 -0.0972
13668W        W32522   1.376   9.508   0.202  0.5632  0.1919  0.4487
13669W        W32523  11.740  17.204  15.499 -0.0930  0.2744 -0.0351
13670W        W32524  11.555   7.027   4.159  0.1119 -0.0914 -0.1620
13671W        W32525   0.277   3.489   1.123  0.0040  0.0207 -0.1811
13672W        W32526  14.376   3.711  15.030  0.0786  0.1625 -0.0017
13673W        W32527   7.157   5.002   4.145  0.1813 -0.0343  0.3881
13674W        W32528   5.797  15.069   0.847 -0.2429 -0.3547  0.2212
13675W        W32529   0.939   7.536  15.408  0.2720  0.1197 -0.0123
13676W        W32530   0.079  12.661  14.377 -0.0888 -0.2646 -0.0757
13677W        W32531   0.529  14.592   3.974 -0.3340 -0.1193 -0.0388
13678W        W32532  15.380  11.846  16.423 -0.1436  0.0511  0.0427
13679W        W32533   3.893  12.869   5.492 -0.1915  0.1717 -0.0521
13680W        W32534   4.203   5.652   0.851 -0.1861 -0.1104  0.0644
13681W        W32535   0.700   3.943   1.636 -0.1872 -0.1911 -0.1153
13682W        W32536  11.386  11.517   4.915 -0.0196  0.0494  0.2186
13683W        W32537   5.986   9.308  15.816 -0.0474 -0.2672  0.0282
13684W        W32538  10.550   0.081  15.273 -0.1213  0.0734  0.3166
13685W        W32539  11.851   3.446   1.826 -0.1765 -0.0952 -0.0445
13686W        W32540   5.620   6.758  15.738 -0.0476  0.0195 -0.3250
13687W        W32541   8.731   7.483   0.617 -0.0437 -0.0498  0.2674
13688W        W32542  13.587   3.881  13.689  0.1928 -0.3393 -0.1128
13689W        W32543   5.953  15.951  17.187  0.0280 -0.0152  0.1616
13690W        W32544  15.379   1.732   4.177 -0.0973  0.0925 -0.1406
13691W        W32545   5.945  16.667   4.131 -0.1440 -0.0343 -0.1228
13692W        W32546  16.664   6.290   2.319  0.0840 -0.1119 -0.2147
13693W        W32547   5.704  10.466   4.053  0.1231 -0.3068 -0.1172
13694W        W32548  10.728   4.274   1.526 -0.2103  0.2858 -0.0531
13695W        W32549  13.648   1.444   2.657  0.0554  0.0185  0.0638
13696W        W32550   8.657   0.859  13.520  0.0053 -0.1778  0.2242
13697W        W32551   2.236  12.899  14.561 -0.1697  0.0838  0.0819
13698W        W32552   0.781   5.119  15.146 -0.1653 -0.0144  0.1344
13699W        W32553   3.268   0.117   2.018  0.2912  0.2401 -0.0328
13700W        W32554  16.343   6.846  15.747 -0.0811 -0.0440  0.1869
13701W        W32555   6.794   0.697   5.561 -0.3463  0.1598  0.2827
13702W        W32556   3.211  14.224  16.266 -0.0416  0.2241 -0.0317
13703W        W32557  11.107   3.032  13.125  0.3996  0.0694 -0.0928
13704W        W32558  10.313   0.386  13.198  0.3456 -0.1308 -0.7103
13705W        W32559   4.437   6.682  16.419 -0.1607 -0.0965 -0.0736
13706W        W32560   6.233   4.765   3.537  0.1108  0.3553  0.1454
13707W        W32561  15.008   3.833   4.393 -0.6181 -0.0168 -0.2688
13708W        W32562  15.329  14.645   3.783 -0.1381  0.4105  0.0864
13709W        W32563  15.786  16.610   1.278  0.0225 -0.0261  0.0368
13710W        W32564   1.487   1.952  14.917 -0.0250  0.0415  0.0281
13711W        W32565  15.635  11.083  15.871  0.0266 -0.0380 -0.2355
13712W        W32566  11.670   2.217   1.694  0.1981 -0.0302 -0.0647
13713W        W32567   4.823  15.429   1.148  0.1460 -0.2692 -0.0898
13714W        W32568   7.027  11.938  14.464  0.0445 -0.2553  0.1671
13715W        W32569   0.710   4.368   3.844  0.2508 -0.1454 -0.3301
13716W        W32570  11.474   2.334  14.587  0.1104  0.1323  0.0786
13717W        W32571   4.164  11.771   4.600  0.0015 -0.1082  0.1006
13718W        W32572   1.897   5.936   3.716  0.0146 -0.0786 -0.1328
13719W        W32573  11.775   0.693  12.485  0.0215  0.1296 -0.1106
13720W        W32574   6.598   0.122   1.547  0.0434  0.2020  0.2628
13721W        W32575   2.892   8.472  16.435 -0.1780 -0.1308  0.1136
13722W        W32576   0.320  14.416   5.377 -0.0516  0.0780 -0.2395
13723W        W32577  16.599  14.091  13.785  0.5012  0.1629 -0.0028
13724W        W32578   0.218   6.095  13.919  0.2057 -0.0212  0.1108
13725W        W32579  13.017  12.230  15.870 -0.0960 -0.0851 -0.1374
13726W        W32580   4.728  15.053   4.306  0.1261 -0.0838  0.0973
13727W        W32581  12.355   0.043  13.716  0.0041  0.3262 -0.2617
13728W        W32582   6.630   9.049  13.376 -0.3024 -0.0153 -0.1523
13729W        W32583  15.943  15.910   2.716  0.0672  0.0419 -0.0760
13730W        W32584  10.648   7.126   5.210 -0.1792  0.1659 -0.0726
13731W        W32585  15.702   7.880   3.939 -0.2551  0.1103  0.1644
13732W        W32586   7.271   7.769   0.435 -0.3711  0.2383 -0.1109
13733W        W32587   6.560  11.027  12.282 -0.1678 -0.2475 -0.0687
13734W        W32588   7.540   5.909   1.449  0.1397  0.0461 -0.0336
13735W        W32589   9.327   0.926   5.226 -0.0146  0.1753  0.2315
13736W        W32590   6.008   3.107   3.138  0.0471  0.0160 -0.2169
13737W        W32591  12.260   5.729   0.350  0.3097  0.1040 -0.1149
13738W        W32592  13.683  14.118  13.775  0.2058  0.2509  0.0633
13739W        W32593  12.686  14.745  12.475  0.0451  0.0976 -0.0028
13740W        W32594   4.629  16.227   4.970 -0.0935 -0.2973  0.0488
13741W        W32595  13.438  10.508   0.261  0.1896 -0.0938 -0.0401
13742W        W32596  14.516   5.962   0.224  0.1530  0.3864  0.1026
13743W        W32597   1.457   7.222  13.646  0.2731 -0.2566  0.2343
13744W        W32598   8.403  17.386  13.420 -0.0662  0.0173 -0.1226
13745W        W32599  11.118  16.264   2.729 -0.0222  0.0798  0.1098
13746W        W32600   4.865  13.819   3.741  0.1065  0.2460 -0.2465
13747W        W32601  10.864   2.265   1.103 -0.0264  0.1771 -0.0232
13748W        W32602   7.915   1.979  11.815  0.1898 -0.1466 -0.1536
13749W        W32603   6.208  15.456   0.534 -0.1382  0.1627  0.2520
13750W        W32604   1.701   1.117   4.147 -0.2721 -0.0731  0.2648
13751W        W32605   4.549   0.442   2.503  0.0664  0.2645  0.0979
13752W        W32606  11.446  14.914  16.511  0.2549 -0.1731  0.0242
13753W        W32607   7.957  16.577  15.204  0.2783 -0.0011  0.2342
13754W        W32608  10.772   7.418  13.458 -0.1889  0.0338  0.2189
13755W        W32609   9.585  13.655   5.488  0.1084  0.2169 -0.0988
13756W        W32610   0.998   1.878   6.118 -0.0915  0.0194  0.2127
13757W        W32611   4.452  14.840   0.958 -0.0354 -0.0309 -0.0320
13758W        W32612   4.027  14.746  14.482 -0.3453  0.0232 -0.1254
13759W        W32613  15.721  16.795   0.792  0.0875 -0.1782  0.3142
13760W        W32614   9.811   8.560   2.430 -0.0060  0.0360  0.4763
13761W        W32615   0.937   9.490  12.603 -0.0590  0.0113  0.1333
13762W        W32616   1.888  14.780  11.504 -0.0820 -0.0122  0.2602
13763W        W32617   7.880  12.343  13.975 -0.0513 -0.0219 -0.0005
13764W        W32618   4.500  11.166   0.167  0.0351  0.0627 -0.1187
13765W        W32619  15.404   8.072   1.275  0.0325  0.0746  0.2629
13766W        W32620  12.491   2.533   2.605  0.0014 -0.0105 -0.1222
13767W        W32621  17.216  11.310   0.694 -0.1035  0.1241 -0.1996
13768W        W32622   3.727  16.484   0.325 -0.0722 -0.2486  0.0579
13769W        W32623  16.162   1.838  13.069  0.0630 -0.0163  0.1632
13770W        W32624   7.094  15.587   1.735  0.2115 -0.0750 -0.0659
13771W        W32625   1.593   2.627   6.114  0.2874 -0.0563 -0.1086
13772W        W32626  17.283   5.853   2.288  0.1603  0.4152 -0.1604
13773W        W32627  13.436   7.444   4.597  0.2974  0.0217 -0.3401
13774W        W32628   4.553   0.962   0.616 -0.0305  0.1694  0.0783
13775W        W32629   8.623  16.605  13.775  0.2813 -0.0906 -0.1667
13776W        W32630  14.858   8.905  17.385 -0.2652 -0.2321  0.0307
13777W        W32631   7.493   2.672   2.296  0.1241  0.0434 -0.1287
13778W        W32632  15.116  13.655   4.173  0.0912 -0.0023  0.0269
13779W        W32633   7.913   3.358   5.096  0.3300 -0.0172 -0.1052
13780W        W32634   2.448  12.630   4.063  0.1950 -0.0267 -0.1531
13781W        W32635   9.690  16.032   3.839 -0.1355 -0.1766 -0.1984
13782W        W32636   6.257  13.008  12.847  0.2393  0.1962  0.1133
13783W        W32637  14.583   8.882   3.805 -0.0006 -0.2219 -0.0714
13784W        W32638  13.883  16.394   0.485 -0.0827 -0.1382  0.0115
13785W        W32639  15.151  16.761   3.367  0.1644  0.1066 -0.0263
13786W        W32640  13.317  12.123  13.047 -0.0663 -0.0037  0.2868
13787W        W32641   8.952   0.686  14.758 -0.0030  0.0627 -0.1860
13788W        W32642   4.713   4.480  17.218  0.1198 -0.3745 -0.1160
13789W        W32643   7.380   4.737  13.415 -0.0384  0.3011 -0.0185
13790W        W32644  14.191   6.748  16.771  0.0153 -0.0945  0.0877
13791W        W32645  13.662   1.955   2.754 -0.2748  0.0408 -0.0317
13792W        W32646   2.250  14.333   3.573 -0.1396  0.0871 -0.3155
13793W        W32647   4.394   4.051  14.073  0.1315  0.0639  0.0882
13794W        W32648   7.415  15.641   2.236 -0.1777 -0.1968 -0.0708
13795W        W32649   4.926  13.199  15.400 -0.1546  0.0826 -0.2212
13796W        W32650  14.133   2.758  14.762 -0.1351 -0.0957 -0.0834
13797W        W32651  15.701   7.582   3.541  0.0664  0.0909  0.0259
13798W        W32652   0.499  14.944  14.527  0.0439 -0.0927 -0.1060
13799W        W32653   4.920   4.303   0.424  0.1474  0.0153 -0.0802
13800W        W32654  12.410   9.377   3.240 -0.0682 -0.2695 -0.2292
13801W        W32655   0.171   3.065   5.351 -0.2981 -0.2262  0.0801
13802W        W32656   1.149  15.105  16.313 -0.1898 -0.0639 -0.0185
13803W        W32657   0.982   5.170   2.922 -0.0993 -0.1819 -0.0886
13804W        W32658   8.327  16.994   4.358  0.1071 -0.2006  0.0823
13805W        W32659  14.994  14.865  16.387 -0.0232  0.3898 -0.0100
13806W        W32660  17.384   0.751  16.675 -0.0301 -0.4448 -0.1066
13807W        W32661  12.528  16.182  16.747  0.1935 -0.0364 -0.0962
13808W        W32662  10.398   2.080   5.243 -0.0246 -0.0413  0.0411
13809W        W32663   7.508  10.678  12.140 -0.3956  0.0813 -0.1129
13810W        W32664  13.363  14.472   1.770  0.2981  0.1400 -0.1036
13811W        W32665  14.197  16.377   2.560  0.2276  0.2017 -0.2154
13812W        W32666  15.371  15.245  13.798  0.1880 -0.2253 -0.0364
13813W        W32667   1.485   7.703  16.251  0.2559 -0.2182 -0.0861
13814W        W32668  11.240  16.935  12.285  0.3683 -0.0237 -0.2215
13815W        W32669   7.918   8.614  13.560  0.1290  0.0304  0.0291
13816W        W32670  16.796   2.382  13.748  0.1036 -0.2289 -0.0142
13817W        W32671   1.892   5.049  13.910  0.0089  0.3272 -0.0019
13818W        W32672   7.418   9.435   0.816  0.0690  0.1344  0.1626
13819W        W32673   5.850   8.164  13.389  0.4812  0.2555  0.1525
13820W        W32674   7.994  17.181   4.702 -0.1861  0.0849 -0.0883
13821W        W32675   9.276   8.689  12.276  0.0341 -0.0688 -0.1405
13822W        W32676   5.066  14.964  13.639  0.0599 -0.1459  0.0647
13823W        W32677   3.085   0.575  16.935  0.0930 -0.0758 -0.1283
13824W        W32678  10.372   1.827   4.211 -0.2361  0.1936  0.2147
13825W        W32679   1.365   4.580   2.599 -0.0668 -0.5157 -0.1335
13826W        W32680   2.339   1.342  16.136 -0.0364 -0.0615  0.0993
13827W        W32681  12.365  12.639  13.932 -0.0238 -0.0154  0.0974
13828W        W32682   4.773   1.501   4.298 -0.0343  0.0249  0.0920
13829W        W32683   7.989   8.082   5.440  0.0700 -0.0417  0.0072
13830W        W32684   2.140   5.812   1.837 -0.0683  0.2401 -0.1780
13831W        W32685  10.714  14.993   0.205  0.0552  0.0051  0.0082
13832W        W32686  11.296  14.836  15.956  0.2706 -0.2774  0.0395
13833W        W32687   4.781   8.760   5.296  0.2282 -0.1852 -0.0698
13834W        W32688   9.524  10.659   1.574  0.0340 -0.1521 -0.0013
13835W        W32689  16.382  13.402  16.253 -0.1584 -0.0405 -0.3605
13836W        W32690   1.625   9.395  12.335  0.0814 -0.2247 -0.3462
13837W        W32691   0.231  10.970  13.093  0.1777 -0.0033  0.0544
13838W        W32692   7.404   6.903  12.478 -0.2929 -0.0789  0.0286
13839W        W32693  13.898  13.278   2.030  0.1095 -0.3053  0.2437
13840W        W32694  13.240   9.279  16.861 -0.0519 -0.1874 -0.1016
13841W        W32695  15.739   9.374   5.193  0.2613 -0.1614 -0.1623
13842W        W32696   0.880   6.844  15.309 -0.3206  0.0057 -0.1433
13843W        W32697  16.980   1.641   3.112 -0.1618  0.2298 -0.1072
13844W        W32698  17.262   0.551  14.036 -0.3171 -0.2023  0.3068
13845W        W32699   2.202   0.521   3.737  0.3214 -0.0343  0.2132
13846W        W32700   2.166  12.032   4.115 -0.1180  0.3664 -0.1100
13847W        W32701   9.808   4.237   4.382  0.0284  0.3529 -0.0605
13848W        W32702  16.344   3.595   1.619  0.0665 -0.2426 -0.0311
13849W        W32703  14.775   4.693   5.143 -0.0232  0.0138  0.2882
13850W        W32704   1.347  13.999  17.354  0.0941 -0.0897 -0.3297
13851W        W32705   5.091   3.748   0.354 -0.2132 -0.0865  0.2918
13852W        W32706   9.975  15.980   1.245  0.1306 -0.0523 -0.0666
13853W        W32707   2.987  10.420  15.131 -0.2593  0.2103 -0.1991
13854W        W32708   2.119  14.729  15.730  0.1069  0.2088  0.3997
13855W        W32709  10.638  13.355   2.617 -0.0232 -0.2003  0.2449
13856W        W32710  11.664   5.127  13.596 -0.4316 -0.0282 -0.0973
13857W        W32711   2.322   6.509  14.927  0.3647 -0.0778  0.0358
13858W        W32712  14.251   8.891   1.021  0.1113 -0.4170  0.0685
13859W        W32713  14.882   3.113   3.971 -0.1078  0.1200 -0.0058
13860W        W32714  13.036   0.540   0.328  0.4448  0.0574  0.0238
13861W        W32715   7.111   6.379  13.453  0.0440 -0.2207 -0.1039
13862W        W32716  11.470   4.816   0.404 -0.1052 -0.1279 -0.1728
13863W        W32717  12.399  13.515   3.284  0.3728 -0.0677  0.1391
13864W        W32718  10.849  17.259   5.216  0.4486 -0.1914 -0.2012
13865W        W32719   0.673   7.958   1.789 -0.0875  0.0397  0.0267
13866W        W32720   9.435   1.681   1.492 -0.0780 -0.1828  0.3333
13867W        W32721   1.000   4.821   4.054 -0.0323 -0.0121  0.2938
13868W        W32722  15.709  17.384  16.322 -0.1267 -0.0222  0.3465
13869W        W32723  10.849  13.762   4.730  0.1089 -0.2015 -0.1925
13870W        W32724  13.702   3.339  13.863  0.0680 -0.3761  0.1013
13871W        W32725   4.617  16.050   3.974  0.2442  0.5477  0.0434
13872W        W32726  17.106  10.034   0.716  0.2691  0.0790 -0.1676
13873W        W32727   8.957   7.089  14.959  0.1486 -0.1134 -0.0586
13874W        W32728   3.426  15.325   2.798 -0.0683  0.0354  0.0495
13875W        W32729   2.766  17.379  14.105  0.1420 -0.3250 -0.0506
13876W        W32730   1.593  16.306   2.072 -0.2520  0.2180  0.1530
13877W        W32731   6.263   4.736  12.078 -0.1809 -0.1165 -0.2365
13878W        W32732   0.910   5.286   4.272  0.2622 -0.1469 -0.0648
13879W        W32733   3.888  17.373   1.919  0.0529  0.0246 -0.0904
13880W        W32734  14.713  17.326   0.205  0.2141 -0.1199  0.3211
13881W        W32735   0.784  16.378   5.027  0.4595  0.0890 -0.0951
13882W        W32736  15.018   4.346   0.798  0.0081  0.1614  0.1775
13883W        W32737   6.851   5.749  13.981 -0.0497 -0.1552  0.3674
13884W        W32738  16.598   8.285   2.777 -0.1475 -0.2921 -0.1827
13885W        W32739   7.940   5.993   2.843 -0.0206  0.0637  0.0911
13886W        W32740  15.330  14.781  13.014 -0.2810 -0.3232 -0.0753
13887W        W32741   3.722  13.321   5.284 -0.2190 -0.0505 -0.1587
13888W        W32742   9.898   8.907  12.601 -0.0216 -0.0441 -0.1922
13889W        W32743   3.371   2.380  17.224 -0.1640  0.1245  0.4849
13890W        W32744   1.886   9.469  14.863  0.0044 -0.1300 -0.0964
13891W        W32745   4.588   3.052   1.409 -0.0327  0.2737 -0.1153
13892W        W32746   1.024   0.537   1.746 -0.2668  0.1957  0.0785
13893W        W32747  15.214  15.697   1.351 -0.1612  0.0513 -0.0103
13894W        W32748  15.719  10.347   5.097 -0.0068 -0.0059 -0.1147
13895W        W32749  15.288  14.205  12.591  0.0920  0.2117  0.1536
13896W        W32750   0.109   8.926   0.039 -0.0900  0.4146  0.2753
13897W        W32751   6.136   0.832   1.384  0.3897 -0.0248  0.1220
13898W        W32752  10.455  11.611  16.044 -0.2473 -0.1382 -0.0571
13899W        W32753   3.023  15.827   1.067  0.1920 -0.2707  0.0747
13900W        W32754   9.926  13.426   0.803 -0.0563 -0.0233 -0.1492
13901W        W32755  12.912   6.559  14.106  0.0928 -0.1732  0.0829
13902W        W32756  11.936   3.113  12.796 -0.1075  0.0793 -0.1230
13903W        W32757   4.498  14.858  11.398 -0.0944 -0.1739  0.0753
13904W        W32758   0.896   3.884   5.237  0.0541  0.0542 -0.1471
13905W        W32759  11.522  16.742   5.060  0.0459  0.0739  0.0122
13906W        W32760  16.687   7.242  16.597 -0.3951 -0.1845  0.1714
13907W        W32761  13.333   8.809  13.836  0.0434 -0.2298  0.1063
13908W        W32762   6.065  17.226   0.189 -0.1668  0.1211  0.1568
13909W        W32763   7.411   1.160   4.411  0.1375  0.2899  0.0043
13910W        W32764  11.905  10.165  13.068  0.0504  0.0003 -0.1297
13911W        W32765  16.147   0.866   1.867 -0.0243 -0.0064 -0.0077
13912W        W32766   1.279  14.898  13.785 -0.1690  0.0150  0.2146
13913W        W32767   3.845   9.005   4.407 -0.0331  0.0247  0.0946
13914W        W32768   5.443  10.553   2.309  0.0774 -0.0652 -0.4203
13915W        W32769  10.334  12.612   3.220 -0.0579  0.1365 -0.1919
13916W        W32770  10.297  13.208   5.383  0.0430  0.2427  0.0306
13917W        W32771   2.958   1.557   5.374 -0.1056  0.0481 -0.0421
13918W        W32772  13.418   7.952   0.320  0.4516 -0.1460 -0.1919
13919W        W32773   1.655   1.203  16.672 -0.2965 -0.0979 -0.0419
13920W        W32774   4.692   5.384   0.121  0.2184  0.1266  0.5293
13921W        W32775   0.369  17.323   3.069 -0.2748 -0.1376 -0.1319
13922W        W32776   6.918   7.081   2.215 -0.0022 -0.1855  0.1095
13923W        W32777   6.452  15.778  15.724  0.0743 -0.0743  0.1831
13924W        W32778   2.070   9.453  13.224 -0.1271 -0.2264 -0.2051
13925W        W32779  14.898   0.334  14.422 -0.0455 -0.4210 -0.0407
13926W        W32780  13.136  15.068   0.727  0.0090 -0.0255  0.0908
13927W        W32781  14.779   9.402  14.973  0.0053 -0.1433  0.1516
13928W        W32782   2.641  10.721   5.213  0.1985 -0.0925  0.0975
13929W        W32783  13.139  11.145  14.930 -0.1014  0.1669  0.1371
13930W        W32784   4.710   9.042   3.876 -0.0819 -0.1320 -0.0222
13931W        W32785  11.097  14.095   1.449 -0.2386  0.2385 -0.1690
13932W        W32786   5.766  12.313   0.942 -0.1724  0.1777 -0.2751
13933W        W32787   9.762  10.341  16.748  0.1499 -0.4410 -0.1420
13934W        W32788  13.892  13.141  15.905  0.1465  0.3286 -0.1535
13935W        W32789  12.168   8.666  12.831 -0.0982  0.1099  0.0375
13936W        W32790   8.435  10.310   0.048 -0.2100  0.3768 -0.0922
13937W        W32791   2.273  14.516  13.620 -0.1997  0.1858 -0.0448
13938W        W32792   9.925   0.130  16.239 -0.0149 -0.0245  0.0380
13939W        W32793  16.345  11.951   4.698 -0.0120  0.1725 -0.2569
13940W        W32794   7.538   7.726  15.225  0.2566  0.0028 -0.0879
13941W        W32795  13.203  16.634   0.413  0.2379  0.3775 -0.0166
13942W        W32796  11.853   1.048  17.238 -0.0385 -0.2497  0.0057
13943W        W32797   7.072   9.031   0.775  0.1613 -0.2135  0.1232
13944W        W32798   9.653  16.278  12.458 -0.0611 -0.0299  0.0055
13945W        W32799   5.347   7.637  15.470 -0.2334 -0.0156  0.2287
13946W        W32800   3.052  12.154   3.205 -0.2534  0.0365  0.2126
13947W        W32801   3.260   3.719  13.498  0.1444 -0.1737  0.0324
13948W        W32802  13.622  11.669   4.965  0.0526 -0.0878 -0.1058
13949W        W32803   7.371  10.370   1.541  0.0498 -0.3750 -0.2354
13950W        W32804  11.922   8.688   0.398 -0.0330 -0.0107  0.2388
13951W        W32805   9.923   9.285   2.633 -0.3029 -0.1773 -0.1460
13952W        W32806   7.361  15.441  13.903 -0.1850 -0.4775  0.0577
13953W        W32807  12.956  10.609  16.425  0.1456 -0.0902  0.0179
13954W        W32808  15.641   1.369   1.060  0.0723 -0.0161 -0.2672
13955W        W32809  14.810   3.880   5.122  0.1800 -0.3054  0.4003
13956W        W32810   8.704  16.343  12.594  0.3250  0.2583 -0.4654
13957W        W32811   0.153  17.240  15.339 -0.3513  0.0307  0.3037
13958W        W32812  11.576   0.673   4.557 -0.0074  0.0467  0.1570
13959W        W32813  15.385   3.840  15.202  0.0234  0.3899  0.0262
13960W        W32814   5.398  16.462   3.323  0.2206  0.3302  0.0831
13961W        W32815   3.041  14.903  13.290  0.0222 -0.0038 -0.1895
13962W        W32816  11.794   7.677   3.685  0.0525  0.0425 -0.1906
13963W        W32817   0.039   8.457  12.820  0.0111  0.1363  0.4349
13964W        W32818   6.947   8.926   4.469 -0.1901 -0.0535  0.1970
13965W        W32819  16.991  10.943  16.016 -0.2367  0.0318  0.2402
13966W        W32820   6.160  16.592   4.940 -0.0727  0.4369  0.1692
13967W        W32821   7.262   8.915  16.962 -0.2549  0.0017 -0.0442
13968W        W32822   6.097  11.938  16.942 -0.1275  0.2948  0.1896
13969W        W32823  15.974   3.700  15.277 -0.0750  0.1757 -0.0375
13970W        W32824   3.598   2.696   4.878 -0.0775  0.0025  0.0177
13971W        W32825   4.570   4.052   2.002  0.0648 -0.0648  0.0794
13972W        W32826  12.295   6.381   1.175  0.3227  0.1311  0.0958
13973W        W32827   0.893   0.075  15.430  0.1241 -0.0708 -0.0841
13974W        W32828   8.777   1.650  16.237  0.1047 -0.1337  0.0205
13975W        W32829   6.084  16.667  16.068  0.2774  0.2941  0.0589
13976W        W32830  13.225   0.160  13.421 -0.2167 -0.1619 -0.1366
13977W        W32831   0.522   5.303  12.739 -0.2202  0.0874 -0.0760
13978W        W32832   2.958   8.938   1.666  0.0637  0.1540  0.0327
13979W        W32833  14.368   1.863  16.085 -0.0750 -0.1553  0.0426
13980W        W32834   7.340  11.022  16.165  0.0086  0.1522  0.1267
13981W        W32835   7.144  12.784   3.010  0.1176 -0.0856 -0.2517
13982W        W32836   8.386   1.749  15.926 -0.2421 -0.1295 -0.0246
13983W        W32837   8.607   4.880   1.484 -0.1713  0.0829 -0.2750
13984W        W32838  16.457   6.360  16.982  0.1713  0.1900 -0.0633
13985W        W32839  15.748   0.839  17.143  0.0268  0.0936 -0.0686
13986W        W32840   3.268   2.106  16.770  0.2043  0.3256 -0.0859
13987W        W32841  17.051   5.578   3.245 -0.1286 -0.0233 -0.2084
13988W        W32842   0.537   8.635   3.803 -0.1215 -0.2916  0.0287
13989W        W32843  14.688   4.210  15.544  0.0595 -0.0941  0.2366
13990W        W32844   5.245   2.719  16.582  0.2500 -0.2565  0.2637
13991W        W32845   7.935  16.222   2.981 -0.0915  0.2197  0.2460
13992W        W32846   8.867   0.091   0.321  0.2690  0.0410 -0.0220
13993W        W32847   2.146   2.106   1.259 -0.4770  0.1032  0.0330
13994W        W32848   3.934  14.133   3.935 -0.3146 -0.0219  0.0930
13995W        W32849   6.312   2.770  16.520 -0.1291 -0.0040 -0.0090
13996W        W32850  12.909  11.738   4.329 -0.0194  0.1428  0.1091
13997W        W32851  11.627   0.376  15.977 -0.2717 -0.1093 -0.0278
13998W        W32852   4.307  11.020   2.673  0.2652  0.2359 -0.1924
13999W        W32853  17.009  13.594   2.643  0.0317 -0.1292 -0.1238
14000W        W32854  10.976   4.068  12.402  0.0003 -0.1629 -0.2002
14001W        W32855   1.014   9.549  16.813 -0.0713  0.0323  0.4265
14002W        W32856   3.066   6.272   1.083 -0.0717  0.1021 -0.1622
14003W        W32857   6.424   2.621   1.880 -0.4391  0.0642  0.1711
14004W        W32858  15.574  16.091  16.049  0.3244 -0.0270  0.0923
14005W        W32859   3.120  12.899  17.057 -0.2549 -0.2264 -0.0967
14006W        W32860   7.510  16.461   1.731  0.0846 -0.0078 -0.0269
14007W        W32861  11.488   1.477  16.836  0.0848 -0.3148 -0.1104
14008W        W32862   6.528  12.694  17.095  0.0851  0.4146  0.2143
14009W        W32863   6.232   6.056  14.117 -0.2132 -0.3585 -0.0426
14010W        W32864  15.756   7.322   0.069 -0.1446 -0.3186  0.2138
14011W        W32865  12.095   9.053  17.033 -0.1325 -0.2238  0.3041
14012W        W32866  11.393   7.346  14.326 -0.1665  0.0032 -0.1563
14013W        W32867  11.824   8.810   3.431  0.1368  0.1513  0.2545
14014W        W32868  15.830   9.163   0.906 -0.2379 -0.0688  0.0419
14015W        W32869   2.172  14.446  16.148  0.3854 -0.0451  0.2291
14016W        W32870   5.589   0.909  16.110 -0.2758 -0.2768 -0.0565
14017W        W32871   1.006  13.117   4.135 -0.1440  0.1449 -0.0377
14018W        W32872  13.452  15.667   1.488 -0.2406  0.0367 -0.1259
14019W        W32873   9.398  16.357  13.108  0.0537 -0.0410  0.0803
14020W        W32874  10.196  13.710  17.210  0.1855 -0.0217  0.0243
14021W        W32875   8.138  10.154   0.618  0.1126 -0.1397 -0.5374
14022W        W32876   2.581  12.712  13.736 -0.2833  0.0544 -0.2847
14023W        W32877   1.313   8.971   1.014  0.1564  0.0894 -0.0560
14024W        W32878   7.301   3.203   3.537 -0.1172  0.0581  0.1216
14025W        W32879  12.997   7.406   2.971 -0.0838 -0.2557 -0.0496
14026W        W32880   0.921  12.176   1.238  0.0397  0.0964 -0.1306
14027W        W32881   7.458   3.840  14.971  0.2811 -0.1339  0.2764
14028W        W32882  11.176   3.541  15.782  0.2283 -0.0153  0.0541
14029W        W32883  14.665   3.577   4.143  0.0774  0.0541 -0.1808
14030W        W32884  11.903   6.215  15.630  0.0160 -0.1284  0.1033
14031W        W32885   6.980   7.772  17.421  0.2481 -0.0184 -0.2078
14032W        W32886  11.667  11.217   1.506  0.1717  0.0535  0.2163
14033W        W32887   2.884   2.869  15.598  0.1896  0.3155 -0.1100
14034W        W32888   5.148  14.259  15.892 -0.1316  0.2877  0.1776
14035W        W32889  15.562  14.552   3.328 -0.1590 -0.2195 -0.0625
14036W        W32890   2.807   0.102  16.361 -0.0190 -0.1949  0.4082
14037W        W32891  14.343   0.738   1.012 -0.3127  0.2184 -0.0951
14038W        W32892  16.216   6.416   5.267  0.1214  0.0378  0.0407
14039W        W32893   3.723  14.673   4.762  0.1004  0.1704  0.1563
14040W        W32894  16.331   3.043  14.893 -0.0694  0.4660  0.3228
14041W        W32895   2.497  15.460   2.652  0.1604  0.0618 -0.2753
14042W        W32896  11.720   8.523   3.847  0.0728 -0.1208 -0.2116
14043W        W32897   6.025   4.125   4.732 -0.0489 -0.0592  0.4023
14044W        W32898   7.527  10.891   5.169 -0.2663 -0.0487  0.4446
14045W        W32899   6.972   0.985  16.847 -0.1858 -0.2175 -0.4902
14046W        W32900   0.355   4.075   4.842 -0.2500 -0.2238  0.0282
14047W        W32901   5.539   7.560  14.584  0.0040  0.4500 -0.0211
14048W        W32902   5.661  11.649  15.623  0.0402 -0.3254 -0.0629
14049W        W32903   4.934  17.372   1.656  0.2399 -0.2780 -0.1488
14050W        W32904  11.253  13.545  16.767 -0.1648 -0.5644  0.0032
14051W        W32905  11.810   4.708  16.874 -0.1250  0.1686  0.0528
14052W        W32906  10.357   4.077  13.127 -0.1430 -0.1702 -0.0319
14053W        W32907   5.322   7.855  15.017 -0.1226  0.1722  0.0958
14054W        W32908   9.234   2.009   3.386  0.1257 -0.1926  0.1524
14055W        W32909  10.960   0.754  17.011 -0.0291 -0.0068  0.0854
14056W        W32910   5.437   5.020   1.575 -0.0647  0.3485 -0.1021
14057W        W32911  14.422  14.348   2.553 -0.0133  0.2962 -0.1168
14058W        W32912   2.127  17.115  14.029  0.0206 -0.2705  0.0671
14059W        W32913  13.779   1.095   1.127 -0.1539  0.0968 -0.2085
14060W        W32914  11.355   2.563  14.158  0.1125  0.2084 -0.1532
14061W        W32915  10.736   2.576   4.253 -0.3548  0.0452  0.1813
14062W        W32916   6.951  14.991   1.663  0.3512 -0.0225 -0.0322
14063W        W32917   9.898   3.661   2.940  0.2661  0.2170 -0.1207
14064W        W32918  16.085   6.478   4.388  0.2521  0.1262  0.0509
14065W        W32919  13.247   6.872  13.242  0.3341 -0.0187 -0.4681
14066W        W32920   4.293  13.733   4.646  0.0169 -0.0571 -0.0578
14067W        W32921   0.273   1.211  14.804  0.0217 -0.2122  0.3153
14068W        W32922  13.672  12.675   1.530  0.0288  0.3031 -0.0074
14069W        W32923  15.803  15.436   0.773  0.1146  0.1907 -0.0910
14070W        W32924   3.662  11.492  14.979  0.1457  0.0488 -0.0999
14071W        W32925  12.650   8.445   2.985 -0.1364  0.0658  0.0153
14072W        W32926  13.119  10.414   4.822 -0.1146 -0.0815 -0.0744
14073W        W32927  15.056  12.043  14.331 -0.1288 -0.4139 -0.0261
14074W        W32928   2.578  11.715  17.043  0.3530  0.1205  0.0383
14075W        W32929   7.667  10.057   1.193  0.2222  0.0769 -0.1027
14076W        W32930   1.957  16.823  16.280 -0.1896 -0.0678 -0.0616
14077W        W32931   5.406  17.166  17.206 -0.1278 -0.0071 -0.3533
14078W        W32932   0.264  17.005  15.891  0.1994 -0.2969  0.3271
14079W        W32933   6.791   2.753  12.657  0.0283 -0.5144  0.2815
14080W        W32934  11.935   7.089   5.340 -0.2450  0.0286  0.1172
14081W        W32935  16.033  10.967   2.788  0.1154  0.0343 -0.3339
14082W        W32936  16.849   3.334   1.227  0.2422 -0.1196 -0.1374
14083W        W32937   0.079  14.961   0.218  0.1326 -0.2527  0.0321
14084W        W32938   6.616  15.760   1.848 -0.0154 -0.3770  0.0931
14085W        W32939  16.686   5.584  15.761  0.1036 -0.0704  0.2927
14086W        W32940   5.284   1.768  13.493 -0.1967  0.1056 -0.0114
14087W        W32941   3.927   1.942  13.362  0.0227  0.0158  0.0235
14088W        W32942   3.197  13.926   0.202 -0.1775  0.1343  0.2872
14089W        W32943   1.311   5.758  15.333 -0.0878 -0.2378 -0.1559
14090W        W32944  10.344   4.238   2.362  0.0164  0.0137  0.1088
14091W        W32945   6.747  13.244  12.746  0.3568  0.1912 -0.0492
14092W        W32946  10.963  10.137   0.006 -0.3136  0.0199 -0.3074
14093W        W32947  10.778   4.877   4.360 -0.0924  0.0192  0.2742
14094W        W32948  10.042  13.749   5.307  0.3096  0.1383 -0.2651
14095W        W32949   6.096  10.734   2.822 -0.1935  0.1064 -0.2347
14096W        W32950   6.903   8.448   1.767  0.2387  0.0095  0.0604
14097W        W32951  16.771  12.154   5.159  0.3065 -0.2840 -0.2151
14098W        W32952  16.167   5.355   0.814  0.0420 -0.1200 -0.0502
14099W        W32953   0.229  13.544  15.735 -0.0955 -0.2802 -0.1722
14100W        W32954  13.184  11.380   5.057  0.1139 -0.0073  0.2244
14101W        W32955  15.784  16.886   5.099 -0.1134  0.2011 -0.2712
14102W        W32956  12.903   6.613  16.465 -0.1516 -0.1000 -0.0008
14103W        W32957  12.565   6.547  12.241  0.2072  0.0828  0.0827
14104W        W32958  10.159   1.516  14.492  0.3277 -0.1164  0.0657
14105W        W32959  16.345   9.316   3.749 -0.0663 -0.1114  0.0670
14106W        W32960  16.775   2.549  11.579 -0.3138 -0.2112  0.0876
14107W        W32961   5.433   9.704   0.670 -0.0718  0.0436  0.2394
14108W        W32962   4.278  17.259   2.236  0.0833 -0.1272  0.2375
14109W        W32963  15.674  17.012   0.325 -0.3681  0.0518 -0.1903
14110W        W32964  10.386  15.264   3.368  0.0132  0.0542 -0.2004
14111W        W32965   9.288  11.669  16.924 -0.0685  0.0566  0.0066
14112W        W32966  15.616   8.615   5.106  0.2373  0.1721  0.3937
14113W        W32967  15.901   4.922   0.707 -0.0673 -0.0711 -0.0674
14114W        W32968   0.303  12.486  12.820 -0.1132  0.2382 -0.1926
14115W        W32969   5.173   7.802  13.483 -0.0779  0.0004  0.0430
14116W        W32970  14.925   0.501  12.465 -0.0159 -0.3413 -0.0225
14117W        W32971  14.706   1.309  16.275 -0.0325  0.2150  0.2096
14118W        W32972  12.615   8.221   4.592  0.1487 -0.0801 -0.1315
14119W        W32973  10.222  15.424   4.268 -0.1144 -0.1536 -0.1208
14120W        W32974   5.971  14.235  16.421  0.1923  0.2421  0.0098
14121W        W32975  10.974   5.675   3.640 -0.0621 -0.1884  0.2627
14122W        W32976  13.736  16.063   1.522 -0.0404  0.1334 -0.2318
14123W        W32977   2.498   3.071  15.853 -0.1460 -0.0292 -0.3048
14124W        W32978  15.631  14.537  16.700  0.1074 -0.3387 -0.0879
14125W        W32979   5.541   4.405   3.932  0.1131  0.1980 -0.0854
14126W        W32980   8.349   5.824   1.464  0.0392 -0.0101  0.0363
14127W        W32981   5.302  14.726  13.033  0.1556 -0.0455  0.1984
14128W        W32982   0.085  10.007  14.713 -0.2500  0.1707  0.1482
14129W        W32983   7.951   0.776   0.726 -0.0841  0.1610 -0.0934
14130W        W32984  10.267   7.827   2.855 -0.0606  0.1166 -0.2315
14131W        W32985   2.048   2.931  17.084  0.0309  0.2461  0.0581
14132W        W32986  13.905   4.176   0.410  0.0592  0.0330 -0.0670
14133W        W32987   7.822  14.912   0.359 -0.0414  0.1309  0.1956
14134W        W32988   0.436  12.915  16.084 -0.1653  0.1953 -0.0051
14135W        W32989   0.698  11.765   0.926 -0.0617  0.3293  0.0179
14136W        W32990  11.942   8.288  15.862  0.4977 -0.0408  0.0734
14137W        W32991  15.618   2.951   4.583 -0.0506  0.0959  0.0153
14138W        W32992  13.153   2.738  17.313  0.0105  0.0228  0.0818
14139W        W32993  10.606   3.092   3.098  0.2873  0.0057  0.0693
14140W        W32994  16.007   2.607  14.032 -0.0557 -0.2689  0.0931
14141W        W32995   4.464   7.885   5.284  0.0146  0.1023 -0.1739
14142W        W32996  13.753   2.968   0.671  0.1292 -0.1486 -0.0322
14143W        W32997   7.019   0.771  15.512 -0.0244  0.0338  0.1920
14144W        W32998   8.235   3.304  17.270  0.1304 -0.0633  0.2830
14145W        W32999   4.732   9.191  13.387 -0.1848 -0.0752 -0.2741
14146W        W33000   5.180   6.346  17.177 -0.1409  0.1242 -0.2750
14147W        W33001  15.793  15.582  16.324  0.1475  0.1706 -0.1247
14148W        W33002   7.483   7.790   0.957  0.3779 -0.0148  0.3557
14149W        W33003   8.669  16.600  14.830  0.1264  0.0469  0.0283
14150W        W33004   6.484  10.214   4.036  0.2224 -0.0942  0.1061
14151W        W33005   6.872  17.313  13.100 -0.1856 -0.0250  0.1096
14152W        W33006  13.970   3.922   4.240  0.2144  0.1137  0.0172
14153W        W33007  15.350   3.564   0.276  0.3133  0.0010 -0.1840
14154W        W33008   0.263   9.294  14.014  0.2301 -0.0022 -0.0494
14155W        W33009  13.018   7.473  15.854  0.0250 -0.0905 -0.0030
14156W        W33010  10.627   1.135   5.043 -0.0431 -0.0737 -0.4720
14157W        W33011   3.829  15.371  17.113 -0.0167 -0.0455  0.1727
14158W        W33012   8.546   1.026   3.538 -0.0527  0.1525  0.0196
14159W        W33013  14.129   9.217  13.592  0.2002 -0.3442  0.3460
14160W        W33014  13.499  16.202   4.027  0.0867  0.0557 -0.0868
14161W        W33015  13.134   5.303   4.452 -0.1234  0.3080  0.0364
14162W        W33016  16.813   4.256   3.369  0.1042 -0.0525 -0.1652
14163W        W33017   6.686  17.190   3.149  0.0379  0.1620  0.1588
14164W        W33018  12.256   8.405   4.175 -0.0177 -0.2005 -0.1004
14165W        W33019   4.775   2.482   4.123 -0.0673 -0.2905  0.0264
14166W        W33020  14.070  15.858  17.099 -0.1408  0.2651  0.2277
14167W        W33021   4.859   7.624   1.533 -0.0705  0.1737 -0.1358
14168W        W33022  11.977   6.551  16.032 -0.2895 -0.1881 -0.0545
14169W        W33023   1.992  11.035  12.817  0.3395  0.0759  0.2239
14170W        W33024  13.643  17.049  14.690  0.2610  0.0922 -0.1179
14171W        W33025   0.722  10.448   0.003 -0.2475 -0.1787 -0.3167
14172W        W33026   7.934   0.056   1.077  0.2443 -0.2838  0.0793
14173W        W33027   6.377  16.213   5.197  0.1083  0.0603  0.0201
14174W        W33028   3.824   9.291  14.732 -0.0011 -0.1554 -0.1446
14175W        W33029   2.801  15.901  14.668  0.1088  0.2536  0.0804
14176W        W33030   3.399   3.560  14.815  0.0159  0.0645 -0.1520
14177W        W33031   6.659   2.107  13.121 -0.0296 -0.0423  0.0554
14178W        W33032  17.035  11.022   3.313  0.3048  0.0671  0.2172
14179W        W33033  12.211   1.069   2.137  0.1436  0.0713 -0.0590
14180W        W33034  10.351  11.116   0.808 -0.1247 -0.0750  0.0283
14181W        W33035  17.383   8.739  15.115  0.1029  0.0273  0.1238
14182W        W33036   0.793   4.699   4.492 -0.0454  0.2585  0.2115
14183W        W33037   2.450   7.070  13.262  0.1187 -0.0337  0.0876
14184W        W33038  13.291  14.757   1.145  0.0285 -0.2174  0.0168
14185W        W33039   3.951   6.059   1.042  0.2678  0.2105 -0.1982
14186W        W33040   3.710  14.460  12.750  0.0203 -0.1760 -0.4342
14187W        W33041  13.173  15.381   4.051 -0.0938  0.1254 -0.0298
14188W        W33042  14.540  12.053  16.634 -0.0221  0.0963  0.3772
14189W        W33043   7.174   5.567   5.372  0.1670  0.0507  0.2435
14190W        W33044   9.518  10.133   3.430  0.2564  0.1063 -0.2697
14191W        W33045   3.512   5.900  12.480  0.2657  0.5524  0.1563
14192W        W33046  13.827   0.034   5.224  0.0045  0.1887 -0.1778
14193W        W33047   5.648  11.610   3.149  0.1722 -0.2223 -0.3285
14194W        W33048  11.397  15.690  17.126  0.1452 -0.0311  0.1874
14195W        W33049  12.494   7.279  13.209 -0.0105 -0.1290  0.0375
14196W        W33050  16.615   1.129   0.062  0.1324 -0.1809  0.1717
14197W        W33051  15.713   0.167  14.632  0.0461 -0.0342 -0.0406
14198W        W33052  10.793   1.710   0.349 -0.1042  0.0363 -0.1672
14199W        W33053  11.290   8.344  16.119 -0.5705 -0.1187  0.1119
14200W        W33054   8.942  14.078   2.629 -0.0062 -0.1534  0.4461
14201W        W33055   9.734   9.546  12.411  0.3565 -0.1235  0.1843
14202W        W33056  16.225   4.915   4.877 -0.2879  0.1722  0.2333
14203W        W33057  11.057  15.602  16.047  0.0119 -0.2865 -0.0174
14204W        W33058  12.353  16.814  13.545  0.1725  0.2319 -0.1026
14205W        W33059   5.538   8.552   2.719  0.0879 -0.1467  0.0358
14206W        W33060  12.054  17.387   2.559 -0.1374  0.1414  0.1651
14207W        W33061   9.282  10.276  16.531  0.2366 -0.2733 -0.0472
14208W        W33062  10.359   2.541   0.486  0.1852  0.3701 -0.2122
14209W        W33063  16.592   1.689  14.818  0.3469  0.2978 -0.0306
14210W        W33064   1.943  13.566  15.209  0.0227  0.0032 -0.1133
14211W        W33065  14.079   8.806   0.462  0.1389 -0.2674  0.1139
14212W        W33066  10.085   3.700   1.600  0.4355 -0.0747 -0.2419
14213W        W33067  12.107   7.467  13.631 -0.5862 -0.1344 -0.1275
14214W        W33068   1.153  16.612   0.687  0.0688  0.1755  0.1028
14215W        W33069  10.079  11.900  12.638  0.0798 -0.2737  0.3532
14216W        W33070  11.900   4.190  15.723 -0.3892  0.1564  0.1708
14217W        W33071   0.318   5.597  13.847 -0.2914 -0.2994  0.0752
14218W        W33072  10.274  13.959  13.525 -0.2657 -0.3903  0.0916
14219W        W33073   9.970   9.639  15.119 -0.1684  0.1779  0.3599
14220W        W33074   4.017   5.890  13.312  0.0815 -0.0645  0.3230
14221W        W33075  10.038  15.707   0.000  0.2095  0.3093 -0.0288
14222W        W33076  17.280  11.802  15.183  0.3197 -0.0338 -0.3070
14223W        W33077   9.758   4.478   2.638 -0.1989 -0.2076 -0.1017
14224W        W33078   3.000   8.950  14.139  0.1675 -0.0807 -0.3516
14225W        W33079  10.076   6.163  16.265  0.4303 -0.1748  0.0868
14226W        W33080  15.288   1.135   1.268  0.1027 -0.0937  0.0648
14227W        W33081  14.740   2.025  13.885 -0.0202  0.4059  0.1301
14228W        W33082  15.964  15.438   4.553  0.0918  0.0428  0.3627
14229W        W33083   7.108  14.102   4.510 -0.1396  0.3146  0.1444
14230W        W33084   6.286   2.211  14.513  0.2674 -0.1067 -0.1576
14231W        W33085   8.524   0.905   0.733  0.1562 -0.2134 -0.1332
14232W        W33086  14.648   6.415  17.254 -0.2983  0.1633 -0.3418
14233W        W33087   4.939   8.100   2.269 -0.2899 -0.1068 -0.1231
14234W        W33088   8.130  15.460   1.148 -0.1454 -0.0703 -0.1205
14235W        W33089  16.412   9.629   2.283 -0.0720 -0.1547 -0.1312
14236W        W33090   2.122   9.823   4.844  0.0801 -0.0789  0.2667
14237W        W33091  12.582  16.403   1.949  0.1191  0.0200  0.1258
14238W        W33092   7.349   1.179   1.300  0.2580  0.1462  0.0174
14239W        W33093   1.493  13.386  16.767 -0.4498 -0.1761  0.0229
14240W        W33094   3.899  16.519   1.298  0.1141 -0.1003 -0.0161
14241W        W33095  14.109   9.451   4.292  0.1430 -0.1447 -0.2412
14242W        W33096   9.720  17.174   2.212 -0.0897  0.0032 -0.0886
14243W        W33097   2.676   7.953  17.355  0.0971  0.1069  0.0099
14244W        W33098   5.771  14.144  15.388 -0.2562 -0.3134  0.1215
14245W        W33099  15.648   5.695   1.550 -0.1329 -0.1457  0.1538
14246W        W33100  16.222   4.972   1.810  0.0314  0.2070 -0.0915
14247W        W33101   7.376  14.391   2.221 -0.0967  0.0561  0.3631
14248W        W33102  17.212  11.778  13.000 -0.0377  0.1138  0.0475
14249W        W33103  12.197   2.904  14.691 -0.0943 -0.0193 -0.3402
14250W        W33104  16.608  10.300   3.774 -0.1009  0.1933  0.0314
14251W        W33105   9.017   9.548  13.154 -0.0119  0.3037  0.0441
14252W        W33106  14.319   5.287   4.446 -0.0987  0.2952  0.1403
14253W        W33107  14.850   9.504  15.494 -0.0745  0.0422  0.0334
14254W        W33108  10.558  10.514  12.635  0.1108  0.1513 -0.2998
14255W        W33109   5.074  10.136   0.531  0.1588 -0.0098  0.0121
14256W        W33110   9.559  10.242  12.959  0.1777  0.2814 -0.1141
14257W        W33111  15.366  17.365   0.004  0.1759  0.1362  0.1158
14258W        W33112  11.113   5.376   5.574  0.0074  0.1325  0.0838
14259W        W33113  17.300   9.105   1.760  0.1401 -0.1186 -0.3904
14260W        W33114  15.471  14.690  16.243  0.0900 -0.0057 -0.1867
14261W        W33115   1.724   7.102  13.101  0.2599  0.2659  0.1097
14262W        W33116  15.419  13.213  15.105 -0.0591 -0.5426  0.1464
14263W        W33117   8.442  11.202   1.835  0.0332 -0.0466  0.2211
14264W        W33118  15.154   4.827   0.786 -0.2270  0.1148  0.2012
14265W        W33119  14.154   6.951  12.778  0.0819 -0.1163  0.0025
14266W        W33120  15.017  13.049  14.092  0.0276  0.0200 -0.0362
14267W        W33121   8.848   0.236   0.787  0.0395 -0.0414  0.2157
14268W        W33122   8.803   9.207  15.023 -0.2736  0.0293  0.3028
14269W        W33123  10.592   8.272  16.909  0.0530 -0.1249  0.0542
14270W        W33124   0.304  10.826  12.561  0.0993  0.1160  0.2967
14271W        W33125   9.911   3.326   1.272 -0.2278  0.0177 -0.1398
14272W        W33126   6.424   5.248   1.859 -0.0232 -0.3402 -0.2317
14273W        W33127  12.121  16.971   3.921  0.1573 -0.1159  0.2891
14274W        W33128   3.871  13.606   0.288 -0.2120 -0.1034  0.1043
14275W        W33129   9.738  15.556  13.264  0.0197 -0.1897  0.0606
14276W        W33130   0.235   3.983   2.904  0.2907 -0.5141  0.0781
14277W        W33131   4.938   4.909   4.989 -0.1153 -0.2265 -0.0180
14278W        W33132   2.398   6.479   2.315  0.3620 -0.0311 -0.0469
14279W        W33133  14.355   9.484  12.858  0.1106 -0.0135  0.1381
14280W        W33134  11.567  11.682  12.873 -0.3642  0.0578  0.0959
14281W        W33135  12.432  17.261  16.913 -0.0006 -0.1201  0.1533
14282W        W33136   0.368   8.513   0.028 -0.0925 -0.0055 -0.1636
14283W        W33137  15.848  14.817  14.683  0.0785 -0.0023 -0.1216
14284W        W33138  14.103  17.106  15.508  0.0664 -0.0434  0.1854
14285W        W33139   8.152   8.182   0.445  0.3698  0.0459 -0.2689
14286W        W33140  10.201   9.438   1.962  0.0236 -0.1104  0.0773
14287W        W33141   6.903   1.482   1.346  0.1020  0.0944 -0.1206
14288W        W33142   8.409   7.808   1.200  0.1827 -0.2884  0.3224
14289W        W33143  15.358  11.010  14.128  0.4327  0.1880  0.3750
14290W        W33144   3.463  12.506  11.960 -0.0216  0.3364 -0.2709
14291W        W33145   2.589  16.073   2.770  0.0946  0.0181 -0.0761
14292W        W33146  15.213  16.756   0.480  0.3234  0.1176 -0.1192
14293W        W33147   1.275   2.616   4.667 -0.0391  0.1244  0.4237
14294W        W33148  10.743   2.156   4.561 -0.1058  0.2508 -0.1386
14295W        W33149   2.324   3.950  16.368  0.2902 -0.0261  0.0767
14296W        W33150   9.218   3.509  12.481  0.0262 -0.0666  0.1204
14297W        W33151  13.124   9.717  15.498  0.2082  0.2072 -0.1079
14298W        W33152  12.227  13.865  17.021 -0.1166 -0.0126 -0.2251
14299W        W33153   2.332  10.770   0.620 -0.0066  0.0109  0.0121
14300W        W33154   1.010   3.788  12.204 -0.0270 -0.1346 -0.0441
14301W        W33155  10.093   6.605  15.587 -0.3219  0.2611  0.0245
14302W        W33156   9.436   9.841   0.218 -0.0313  0.2394 -0.0264
14303W        W33157  17.259  14.583   2.783 -0.0537  0.1281 -0.2758
14304W        W33158  12.446  11.328   3.175  0.1073 -0.2751 -0.0605
14305W        W33159  10.214   4.931   0.151  0.1412 -0.1717  0.0662
14306W        W33160   1.610  10.575   4.051  0.1722 -0.0812 -0.0280
14307W        W33161   7.987   0.624  15.848  0.0100 -0.1265  0.1083
14308W        W33162   0.610  17.043   1.671 -0.1300  0.1330 -0.2681
14309W        W33163   7.053   3.542  13.879 -0.0885 -0.1403  0.0531
14310W        W33164   2.247  11.854  13.087 -0.0076 -0.0962 -0.0314
14311W        W33165  15.657  17.389  16.832  0.0333 -0.0281  0.1275
14312W        W33166   6.062  14.915  15.694 -0.1806 -0.0351 -0.0437
14313W        W33167   7.684   5.053   0.454 -0.0271  0.0999 -0.2243
14314W        W33168   9.456   2.434   3.514  0.2714 -0.1310 -0.3920
14315W        W33169   1.561  13.870  15.495 -0.0992  0.0878  0.0941
14316W        W33170  11.745  12.710  13.070  0.1564  0.1523  0.0314
14317W        W33171  11.863   5.855   5.815 -0.0151 -0.3521 -0.2580
14318W        W33172   1.545   7.615  14.677 -0.1594 -0.1081 -0.1429
14319W        W33173  12.639   4.363   5.203  0.0299  0.0904 -0.1598
14320W        W33174   0.451  14.432  15.489 -0.1891 -0.1811  0.2652
14321W        W33175   6.063   0.265   5.201 -0.1922  0.1578  0.0382
14322W        W33176  11.338  14.110  17.052  0.3613  0.0635 -0.2979
14323W        W33177  15.526   5.550  12.846  0.3244 -0.0344 -0.2177
14324W        W33178  16.459   4.736   3.191 -0.2927 -0.1379  0.1826
14325W        W33179   1.314   5.006  13.808 -0.0712  0.4878  0.2252
14326W        W33180   8.417   6.374   3.926 -0.0458  0.0705  0.2964
14327W        W33181   7.895  16.993  15.393  0.0812  0.1386 -0.0317
14328W        W33182  12.109  14.322   2.214  0.3664  0.2225  0.0803
14329W        W33183  15.288  10.327   0.864 -0.0443 -0.0625  0.0194
14330W        W33184  13.893   1.646  15.901  0.4039 -0.1559 -0.0674
14331W        W33185  13.410   5.190  14.912 -0.3135 -0.2413  0.2487
14332W        W33186  10.451   5.566   0.563  0.0885  0.0310 -0.2152
14333W        W33187  14.957  10.540   3.003  0.1622 -0.1672  0.0724
14334W        W33188   0.065   4.423   5.058 -0.1490  0.2956  0.1238
14335W        W33189  11.617   1.706  16.400 -0.0579 -0.0143 -0.0940
14336W        W33190   6.174   6.279  17.067  0.1087 -0.0943 -0.0240
14337W        W33191   3.144   0.048   4.494 -0.1106 -0.2483  0.0427
14338W        W33192   6.896  15.250   1.181 -0.0961  0.3694  0.0040
14339W        W33193  14.931   6.966  13.098  0.3315 -0.0017 -0.3343
14340W        W33194   1.672   8.605  15.815 -0.0349  0.2827 -0.2407
14341W        W33195   9.726   0.949   2.128 -0.0448  0.0402 -0.0474
14342W        W33196  10.494  16.096   1.117 -0.2059 -0.0889 -0.0156
14343W        W33197   6.742   4.376   1.016  0.0061  0.1356  0.2780
14344W        W33198   6.362   9.054  17.235 -0.0128  0.0235  0.2306
14345W        W33199  16.869  14.333  12.316 -0.3873 -0.1261  0.2132
14346W        W33200  10.234   8.393  15.214  0.0946  0.1051  0.1655
14347W        W33201  11.647   4.226   4.365  0.0725  0.3252 -0.1674
14348W        W33202  11.522  13.359   4.841  0.0079 -0.2637  0.2073
14349W        W33203   3.829  12.034   3.967  0.0675  0.0523  0.0811
14350W        W33204  12.020  17.016   3.390 -0.2328  0.0815 -0.3863
14351W        W33205   0.775   0.899  16.315  0.1373  0.2463  0.0963
14352W        W33206  11.297  11.251  14.995 -0.1662 -0.0132 -0.0749
14353W        W33207  14.696  13.353   3.301  0.0771 -0.2116  0.1340
14354W        W33208   7.595  16.050   5.617 -0.2335 -0.1284  0.0026
14355W        W33209  13.467  12.196  14.965  0.3147 -0.2000 -0.3268
14356W        W33210  11.876   4.684  15.383  0.1219 -0.1796 -0.0110
14357W        W33211  15.554  16.099   4.815  0.1800 -0.2230  0.2746
14358W        W33212  13.213  14.983   5.390  0.1205  0.0202 -0.0956
14359W        W33213  16.657  14.826   3.884 -0.2116  0.1860  0.0837
14360W        W33214   2.431  11.374  15.101  0.4010  0.1594  0.2945
14361W        W33215   5.609  16.683  15.356  0.2354  0.1148 -0.2990
14362W        W33216   4.622   1.890   2.254  0.3465  0.2522 -0.0011
14363W        W33217   3.994  16.971  16.180 -0.1565 -0.2999 -0.0313
14364W        W33218  10.569  13.880   2.739  0.0949  0.4517 -0.2431
14365W        W33219   0.206   2.466   0.338  0.2909 -0.1725  0.0875
14366W        W33220  11.541   9.498  15.440  0.5198 -0.1104  0.1787
14367W        W33221   1.578  10.093  12.469 -0.0613 -0.1130  0.2056
14368W        W33222   8.592   4.765  16.975 -0.0002  0.1342 -0.1649
14369W        W33223  10.215   6.532  13.256  0.0505 -0.4622 -0.0023
14370W        W33224  10.767  13.992   1.105  0.1306  0.2440  0.0741
14371W        W33225  11.933  13.282   5.142  0.2896  0.4634 -0.1115
14372W        W33226   9.056   8.282   2.972  0.3434  0.0348  0.2347
14373W        W33227   7.538  12.663   4.776 -0.3838  0.0703 -0.2410
14374W        W33228  16.252   6.361  11.878  0.1373 -0.1491  0.3978
14375W        W33229  10.563   6.873  13.324  0.1341  0.0501 -0.1567
14376W        W33230   3.297  12.858  15.941  0.1627 -0.0798 -0.1409
14377W        W33231   0.509   9.763   4.499 -0.1655 -0.1301  0.0199
14378W        W33232  13.100  12.186  16.410 -0.2488  0.0336 -0.0486
14379W        W33233  13.928   2.885  13.866 -0.2707  0.0937 -0.0295
14380W        W33234  12.261  11.181  13.112 -0.0114  0.0198  0.0668
14381W        W33235   3.212   8.203   2.788  0.1422  0.0808 -0.2168
14382W        W33236   4.526   5.122   3.667 -0.1842  0.1268  0.2347
14383W        W33237   0.774   4.473  12.289 -0.0769  0.3106 -0.1273
14384W        W33238  10.511   9.003  14.639  0.0420 -0.0015  0.0316
14385W        W33239   5.251  16.267   4.967 -0.0283 -0.2268 -0.1357
14386W        W33240   0.703  16.218  12.940  0.1484  0.2974  0.2974
14387W        W33241   4.522   7.943   1.450 -0.1904 -0.2496  0.2823
14388W        W33242   6.398  17.336  12.860 -0.0455 -0.0193 -0.1658
14389W        W33243   2.891  16.734  13.231  0.1181 -0.0637  0.4505
14390W        W33244   1.802  11.926   6.059  0.0184 -0.1273 -0.0389
14391W        W33245   1.505  10.256  16.362 -0.0030 -0.0514  0.0463
14392W        W33246  16.499  12.122  15.321  0.1237 -0.0517  0.2953
14393W        W33247   7.401  10.107  13.707  0.0324  0.1606 -0.0016
14394W        W33248  10.013   8.627   0.470 -0.2451 -0.1992 -0.3591
14395W        W33249   9.191  12.712   0.240 -0.1997  0.2251  0.0611
14396W        W33250   7.380   0.441   0.095 -0.1838 -0.4411  0.1903
14397W        W33251  12.936  10.734  14.674  0.3563  0.4074 -0.1219
14398W        W33252   0.361  11.306  17.308 -0.5332  0.0608 -0.0696
14399W        W33253   6.953  13.753   4.860 -0.1580 -0.0211  0.1697
14400W        W33254   9.379   2.458  16.819 -0.2920  0.1706  0.1757
14401W        W33255  16.338   2.944  16.729 -0.4304  0.1318  0.0128
14402W        W33256  14.765  15.696   2.317  0.1328  0.0119  0.0766
14403W        W33257   9.019   1.240   4.177  0.1197 -0.0753 -0.1815
14404W        W33258  12.223  12.420  12.791  0.3899  0.0235  0.0491
14405W        W33259   6.714   0.333  12.731  0.1830  0.1373  0.0078
14406W        W33260  10.963  16.772   2.670  0.1578  0.2943 -0.1238
14407W        W33261   7.939   8.510   5.165  0.0692 -0.3618  0.1005
14408W        W33262  11.567   7.564  13.429 -0.0694 -0.1562 -0.0422
14409W        W33263  12.664  11.968  17.318  0.0899  0.0453  0.1283
14410W        W33264   2.891  14.151   3.035  0.5367  0.0177  0.1746
14411W        W33265  13.626   8.434  14.026 -0.0915  0.1164  0.2587
14412W        W33266   2.474  10.532  12.005 -0.1994  0.1089 -0.0739
14413W        W33267   2.376   9.563  14.724  0.0460  0.1159 -0.2349
14414W        W33268  14.452   8.408  14.605  0.0278 -0.1402 -0.0022
14415W        W33269   8.765  10.394   3.806 -0.0288 -0.0546 -0.2288
14416W        W33270   2.270   9.894   4.369 -0.0132  0.0160  0.2378
14417W        W33271   3.066  13.890   4.008 -0.0646 -0.3978 -0.3099
14418W        W33272   3.326   0.467   4.834 -0.1809  0.1751  0.1630
14419W        W33273  17.160   5.600   1.230 -0.0704 -0.1211 -0.0754
14420W        W33274  14.628  12.591   0.464  0.2143 -0.1493 -0.1719
14421W        W33275   2.940   0.074   2.828 -0.1623 -0.1637 -0.3289
14422W        W33276   8.652   7.871  14.848  0.1919 -0.1312 -0.0598
14423W        W33277   3.692  11.330   3.155 -0.2634  0.0770  0.2637
14424W        W33278   7.580  15.174  14.880 -0.0509 -0.0679  0.0112
14425W        W33279   4.740   7.691  13.706 -0.4178 -0.1407 -0.0401
14426W        W33280   8.863   0.772   2.413 -0.2324 -0.0115  0.2014
14427W        W33281   2.514   9.332   4.942 -0.0974 -0.1656 -0.0679
14428W        W33282  15.555   3.024   3.753  0.0149  0.2932 -0.1770
14429W        W33283  13.087  15.090   5.851  0.3600 -0.1350  0.1481
14430W        W33284   0.581   0.848  12.454 -0.0601 -0.0447  0.0817
14431W        W33285   9.134  16.172  15.157 -0.2125 -0.2905  0.1113
14432W        W33286   8.691  13.239  14.065 -0.2122 -0.0979 -0.0684
14433W        W33287  14.641   8.365   5.077  0.0864 -0.0255 -0.4743
14434W        W33288   4.703  13.179  14.921  0.1132 -0.2033  0.1971
14435W        W33289  14.929   9.271   4.730 -0.0004  0.0546  0.1822
14436W        W33290   3.727  15.973  16.467  0.3724 -0.2507  0.0406
14437W        W33291   9.403  15.624   3.810  0.1069  0.2339 -0.0246
14438W        W33292  11.152  11.155   0.116 -0.0886 -0.0136 -0.1476
14439W        W33293  15.255   7.422   2.662 -0.1475  0.1661 -0.0000
14440W        W33294  14.047  11.138   2.762  0.1694 -0.1600  0.1280
14441W        W33295  16.650   5.957   2.998 -0.0666 -0.1195  0.1141
14442W        W33296   4.475  12.141  16.206 -0.1138  0.4299  0.1541
14443W        W33297   7.756  14.878  16.208 -0.0121  0.1410 -0.2595
14444W        W33298   9.234   6.356  12.815  0.1557  0.2861 -0.0821
14445W        W33299  10.421  13.178  14.200  0.0264 -0.2104  0.0633
14446W        W33300   7.596  15.571   4.152  0.3364  0.1253 -0.0313
14447W        W33301   5.531  11.193   2.850 -0.0107 -0.1229 -0.1818
14448W        W33302   1.807   5.868   1.367 -0.2101  0.0379  0.1652
14449W        W33303  15.730   3.258   2.208  0.1742  0.0784  0.0816
14450W        W33304   0.655   1.300   1.521  0.1423  0.0509  0.0470
14451W        W33305   0.450  11.778   2.893 -0.1597  0.0703  0.1134
14452W        W33306  11.742  14.727   3.094 -0.1613  0.0558 -0.0926
14453W        W33307   0.243   6.499  15.601  0.0756  0.2306  0.2795
14454W        W33308  11.992   3.177   0.860 -0.1847  0.0128  0.2288
14455W        W33309   4.192   1.374  16.685  0.2038  0.1796 -0.2301
14456W        W33310  13.768   5.858  17.110  0.1092 -0.0883  0.0128
14457W        W33311   9.756  17.250  15.605  0.0756 -0.0485  0.0456
14458W        W33312  14.795   8.018  15.413 -0.1254 -0.0125 -0.2427
14459W        W33313  15.891   4.187   4.193  0.1051 -0.0014  0.0790
14460W        W33314  13.570   5.682   1.309 -0.1582  0.1658  0.1447
14461W        W33315   9.722   1.495  12.289 -0.0445  0.0361  0.0911
14462W        W33316  16.885  11.873  14.473 -0.0260  0.5173  0.0615
14463W        W33317  15.462   7.698  12.950  0.3007 -0.0400  0.1808
14464W        W33318   8.167   2.109  14.289 -0.0086  0.0309  0.2438
14465W        W33319  15.242   6.556   1.021  0.0020 -0.2110 -0.0658
14466W        W33320  14.500   9.585  13.440 -0.3079 -0.1597 -0.2496
14467W        W33321   9.544   1.953  16.421 -0.0789 -0.2122  0.1142
14468W        W33322   9.640   7.367  14.248  0.1882  0.1010 -0.1430
14469W        W33323  11.826  17.011  12.574  0.1174 -0.0330 -0.0047
14470W        W33324   6.436   0.295  15.227  0.3060  0.1642  0.3055
14471W        W33325   9.141   6.961   3.919  0.1222 -0.1543 -0.4092
14472W        W33326  13.919   4.180  15.626  0.0572 -0.2357  0.4490
14473W        W33327   2.968   9.444   4.906 -0.2545 -0.1701 -0.1897
14474W        W33328   3.990   8.263  16.024  0.1994  0.1517  0.0596
14475W        W33329   0.601   1.391  14.461 -0.3125  0.1199  0.0201
14476W        W33330  15.483   8.516   1.455  0.0389  0.0506 -0.3326
14477W        W33331   1.681   9.682   2.101  0.1229 -0.0505 -0.0483
14478W        W33332  12.030  14.886   0.843 -0.1475  0.0783 -0.0508
14479W        W33333  11.412  10.275  15.135  0.1703 -0.1755  0.0330
14480W        W33334   1.105  14.720  15.418 -0.0045  0.0384  0.2262
14481W        W33335  11.048   5.772  14.806 -0.5140  0.1944  0.0059
14482W        W33336   3.006   2.080   3.859  0.0048 -0.0545 -0.3745
14483W        W33337  10.331   2.792   4.026  0.0049  0.0256  0.0868
14484W        W33338  16.606   0.839   2.592 -0.0868 -0.0492  0.0554
14485W        W33339  16.734   5.244   2.490 -0.0490 -0.1133  0.3340
14486W        W33340  10.294  16.534   5.533  0.0078 -0.1881 -0.4533
14487W        W33341  16.065   7.208  12.403 -0.1558  0.1153 -0.1955
14488W        W33342  14.731  17.003  17.114 -0.1222 -0.2492 -0.0971
14489W        W33343   4.718   6.346  14.960 -0.3666 -0.0101 -0.0629
14490W        W33344  10.565   6.961   1.606  0.0343 -0.1614  0.0165
14491W        W33345   1.183  12.802   5.720  0.0106  0.1701 -0.0107
14492W        W33346   9.801  14.621   5.359 -0.0231  0.1453 -0.1190
14493W        W33347  13.586  14.797   0.731  0.0484 -0.3858 -0.1476
14494W        W33348   3.553   5.686  15.544  0.2473 -0.0019  0.4463
14495W        W33349   2.099   8.995  16.692  0.0006 -0.4355 -0.2707
14496W        W33350  12.291   1.982  15.178 -0.0912  0.0155  0.1696
14497W        W33351   4.093   6.527   2.919 -0.0997 -0.1239  0.1692
14498W        W33352  15.996   5.642  15.728 -0.0024  0.0731  0.1437
14499W        W33353   6.409   2.683  15.657  0.0277 -0.0326 -0.2542
14500W        W33354  14.656   1.408   2.772 -0.0330  0.0843  0.1837
14501W        W33355  11.600  14.515   2.206 -0.3648  0.0026 -0.0629
14502W        W33356  13.979   6.221  16.711 -0.2418 -0.0462  0.3609
14503W        W33357  14.440   2.727   5.532  0.1917 -0.0254  0.2336
14504W        W33358   9.238  13.966   1.242  0.1675  0.0978 -0.2658
14505W        W33359   3.693  13.413   1.123 -0.1663 -0.3833 -0.2691
14506W        W33360  12.188  10.290  12.285 -0.2139  0.0104 -0.0752
14507W        W33361   2.796   5.581  15.843  0.1399 -0.0503  0.0364
14508W        W33362   6.709  15.680  12.502  0.2342 -0.1034  0.2495
14509W        W33363  17.129  15.860   0.378  0.0209 -0.2452 -0.3222
14510W        W33364  15.930   7.919  13.405  0.2492 -0.0162  0.1421
14511W        W33365  12.431   0.396  15.587  0.3394  0.3670 -0.0078
14512W        W33366  12.413  16.402   2.887 -0.1865 -0.2471  0.0439
14513W        W33367   2.690   5.698   1.781 -0.1996 -0.0103 -0.2150
14514W        W33368  13.921  13.224   5.209 -0.1452  0.2785  0.3471
14515W        W33369  10.842  16.131   0.256 -0.0982  0.1339 -0.0796
14516W        W33370   0.057   0.195   1.652  0.1828 -0.0205 -0.2153
14517W        W33371   2.495   9.633   0.313 -0.0029 -0.0468 -0.1233
14518W        W33372   5.747  15.533  12.887 -0.1795 -0.0503 -0.1389
14519W        W33373   2.805   3.516   1.559  0.2191 -0.1303 -0.2148
14520W        W33374   4.959  14.036   2.100  0.2133  0.0042 -0.1243
14521W        W33375   8.304   4.336  16.907 -0.3305  0.1142 -0.1027
14522W        W33376   8.847   7.398   5.114 -0.1395  0.0567  0.0435
14523W        W33377   9.042   9.515   4.957 -0.1932 -0.2267  0.0042
14524W        W33378   5.941  17.119   3.462  0.1160  0.0540 -0.0888
14525W        W33379   9.541  12.540  15.218  0.0325 -0.1440  0.0187
14526W        W33380   9.350   6.557   3.743 -0.2450  0.1982 -0.1918
14527W        W33381   4.462  13.027  13.236 -0.0989 -0.0380  0.0193
14528W        W33382  15.722  17.059  15.024 -0.0139  0.3404  0.0090
14529W        W33383   6.519   5.354  17.025  0.0414 -0.1556  0.2691
14530W        W33384  11.060  11.689  12.827  0.0991  0.4254 -0.1094
14531W        W33385   6.454  16.938   0.066 -0.1095 -0.2256 -0.3942
14532W        W33386   6.230   9.992  14.059  0.0616 -0.0900  0.0906
14533W        W33387   9.260   5.277  15.302  0.1452  0.1923  0.0216
14534W        W33388  14.063   9.767   3.867  0.2783 -0.1694  0.1957
14535W        W33389   7.600   8.278  16.089  0.0745 -0.1435  0.4284
14536W        W33390  13.392   2.874  13.994 -0.1737  0.0789  0.2678
14537W        W33391  11.559  13.370  17.345 -0.1651  0.3501 -0.0635
14538W        W33392   0.894   2.521   4.924 -0.0101 -0.1891  0.0313
14539W        W33393  16.869  11.671   5.227 -0.1228  0.0063  0.0174
14540W        W33394   1.126  15.560  12.360  0.2093  0.3551 -0.2018
14541W        W33395  13.703   1.721  13.534 -0.4340 -0.2273  0.2909
14542W        W33396  11.940   0.622   3.562  0.2679  0.0029 -0.3019
14543W        W33397   9.426   8.201  15.705  0.0322 -0.0203  0.0940
14544W        W33398   2.276   0.214  14.030 -0.1717  0.2387  0.0994
14545W        W33399   9.935  10.422  17.301  0.1453  0.1046  0.0831
14546W        W33400  12.407  10.224  14.813  0.2707 -0.1927  0.3374
14547W        W33401   1.917   7.837   4.881  0.0285  0.2043 -0.1839
14548W        W33402   7.852  10.107  15.790  0.0976  0.0530 -0.2097
14549W        W33403   6.395  13.418   0.223  0.0483  0.0515  0.0777
14550W        W33404  12.443   9.702   2.818 -0.0041 -0.0754  0.0968
14551W        W33405   1.116  10.482   2.763 -0.2266 -0.1881  0.1577
14552W        W33406   8.709   7.866   4.253 -0.0709 -0.2110 -0.1602
14553W        W33407   0.091  16.326   1.028  0.3518  0.0791 -0.1140
14554W        W33408   4.327   2.090   0.359 -0.1095 -0.0737  0.2886
14555W        W33409  13.124  11.518  12.873  0.0806  0.0949 -0.1847
14556W        W33410   9.224  16.620   3.284  0.1069  0.0608 -0.0651
14557W        W33411  14.394   1.853  14.304 -0.0055  0.1519 -0.0351
14558W        W33412   5.390  10.833   5.114 -0.5630  0.0334  0.0542
14559W        W33413   8.915  13.766  17.352 -0.1298 -0.1281  0.1429
14560W        W33414   3.531   0.488   2.273  0.1764  0.1186 -0.1729
14561W        W33415   0.503   1.159   2.767  0.4168  0.1677  0.1387
14562W        W33416   9.769  16.116  13.342 -0.2772 -0.1162  0.1753
14563W        W33417  13.800  11.556   2.717  0.1655  0.0308 -0.4499
14564W        W33418  11.356  12.382   3.319  0.1481 -0.2879  0.2473
14565W        W33419   8.682   5.624  17.064 -0.2286 -0.0476  0.1238
14566W        W33420  13.734   6.762   0.745 -0.2542  0.3347 -0.3991
14567W        W33421  10.803  16.638   0.263 -0.0194 -0.2193  0.0438
14568W        W33422   3.573   1.050   0.018 -0.0954  0.1948  0.2970
14569W        W33423   9.148   5.331  17.482 -0.2055 -0.2179  0.0585
14570W        W33424   5.870  14.779  13.454  0.0854 -0.1742  0.2748
14571W        W33425  11.033  13.577   1.265 -0.0834  0.0599  0.0682
14572W        W33426   6.364  14.465   3.604  0.1076  0.1467 -0.1044
14573W        W33427  13.446   3.780   3.966 -0.3633 -0.2121  0.1939
14574W        W33428  14.421  13.985   3.764 -0.2188  0.2174 -0.1042
14575W        W33429   0.048   1.838   2.238  0.1921 -0.0721 -0.1778
14576W        W33430  16.516   0.199  17.115 -0.0844  0.3237 -0.0946
14577W        W33431   5.243   9.962  16.113  0.2290 -0.1918  0.1304
14578W        W33432   8.156   7.663   2.667 -0.2538  0.3403 -0.0373
14579W        W33433  13.482  17.329  17.202 -0.0903 -0.1148  0.2231
14580W        W33434  11.911   4.539   0.280  0.1391  0.0603 -0.3243
14581W        W33435   7.460   7.655   3.015 -0.2117  0.0405 -0.2996
14582W        W33436  15.083   4.433   3.239 -0.0939 -0.2030 -0.0151
14583W        W33437   6.594  15.847   3.310 -0.1597  0.2203  0.0726
14584W        W33438  10.491   2.845   3.543 -0.0007 -0.0164 -0.3730
14585W        W33439   4.496   5.482  13.618  0.0127 -0.2006 -0.0057
14586W        W33440   2.390  13.802  15.324  0.3258 -0.3337  0.0272
14587W        W33441   7.939  12.309   4.124 -0.0876  0.1442 -0.1530
14588W        W33442   0.259   4.344   4.092 -0.1156 -0.1307  0.1198
14589W        W33443  15.927   9.886  16.362 -0.1118 -0.0871  0.2251
14590W        W33444  10.782   7.383   3.309 -0.1955  0.1163 -0.0284
14591W        W33445   6.734  14.352  14.035  0.1490 -0.0284 -0.1623
14592W        W33446  12.303   3.893  14.745  0.1860  0.3759 -0.1148
14593W        W33447  11.084  11.971   4.714  0.2682  0.0282  0.1388
14594W        W33448  13.170  13.445   1.626  0.2036 -0.0414  0.0106
14595W        W33449   1.527   9.669   2.594  0.2803 -0.0381  0.3680
14596W        W33450   5.614   2.533   3.776 -0.2166  0.0387 -0.2743
14597W        W33451   0.574   0.790   4.747  0.1783  0.1066  0.0212
14598W        W33452   2.852   8.299   3.121  0.1574  0.2222  0.0606
14599W        W33453  10.697  12.262  12.291 -0.0095 -0.3129 -0.4892
14600W        W33454   9.793   9.603   5.197 -0.1797 -0.0473 -0.0220
14601W        W33455   1.096  12.180   4.604 -0.0429 -0.1070  0.0573
14602W        W33456  14.915   7.198   2.950  0.1221  0.0834  0.0936
14603W        W33457   9.497   3.375   1.039 -0.0407 -0.0493  0.1008
14604W        W33458  15.991   4.998   2.233 -0.0163 -0.2318 -0.0239
14605W        W33459   1.997   4.628  12.662 -0.0006  0.1790  0.0518
14606W        W33460   0.873  17.136   2.765 -0.1923 -0.0870  0.3007
14607W        W33461   3.671   9.167   0.859  0.1552  0.0571  0.0608
14608W        W33462   6.607  12.366   3.571 -0.1038 -0.2081  0.0856
14609W        W33463   9.433   2.656  12.979  0.0475  0.3380  0.0932
14610W        W33464  15.797   7.102  14.660 -0.1717 -0.5136 -0.0807
14611W        W33465   9.348   4.319   4.069  0.1712  0.1687 -0.2445
14612W        W33466  14.497  11.777   0.125 -0.0185  0.1791  0.1064
14613W        W33467  16.836   9.624  15.270 -0.3980  0.1568 -0.2054
14614W        W33468   9.672   9.343   4.229  0.1601 -0.1288 -0.1507
14615W        W33469  13.047   4.315   0.601  0.1031  0.0632  0.1079
14616W        W33470   1.008  15.845   2.257 -0.0628  0.1474 -0.1433
14617W        W33471  10.349   1.518   1.222  0.1718 -0.0757 -0.2356
14618W        W33472   4.763  16.519  13.369  0.2735  0.1738 -0.2609
14619W        W33473   8.650   1.237  13.899 -0.4663 -0.0712 -0.0060
14620W        W33474  12.402  16.823   0.658 -0.1147  0.2087 -0.2363
14621W        W33475  11.338   4.266   4.832 -0.1967  0.2414  0.0909
14622W        W33476  10.882  10.418   3.185  0.3104  0.2694  0.1772
14623W        W33477  13.724   5.232  17.234 -0.2140 -0.1975 -0.1060
14624W        W33478   0.068  14.032  13.786  0.1325 -0.0378 -0.0796
14625W        W33479   4.581   1.384   0.927  0.0597 -0.2446  0.2799
14626W        W33480   0.727   6.051   5.084 -0.2492 -0.2453  0.0083
14627W        W33481   1.460  14.038   2.457 -0.1169 -0.0192 -0.0007
14628W        W33482   8.505   0.447   1.520  0.0425 -0.0152  0.3567
14629W        W33483  17.063   4.562  16.703  0.1955 -0.2087 -0.0747
14630W        W33484   2.163   2.214  14.301 -0.1169  0.0147 -0.0128
14631W        W33485   8.210  10.858  14.948 -0.1035  0.1780 -0.0926
14632W        W33486  12.586   7.739   3.675 -0.0375  0.0502 -0.2913
14633W        W33487   0.624   4.243   0.749 -0.5453 -0.2476  0.0224
14634W        W33488   8.970  10.489   1.648  0.1627 -0.4502  0.1691
14635W        W33489   7.457   8.965   3.008  0.4550  0.2375  0.2279
14636W        W33490   9.209   2.781   3.741  0.0607 -0.2250  0.0624
14637W        W33491  10.094   1.522  15.776 -0.1674  0.1773 -0.2170
14638W        W33492  14.079  14.083   0.810  0.0455 -0.3074 -0.1106
14639W        W33493  12.885  11.839  13.279 -0.0572  0.0117  0.2091
14640W        W33494  12.399   8.453  12.454 -0.1470 -0.2951 -0.2625
14641W        W33495   5.156  15.294   0.554 -0.4341 -0.3745 -0.0685
14642W        W33496  13.122   9.196   0.405  0.2241 -0.0775 -0.1510
14643W        W33497  10.861  10.046   0.960  0.0489 -0.1524  0.0947
14644W        W33498  13.191   9.454  14.611 -0.2767 -0.1454  0.2325
14645W        W33499  13.382   6.523   4.482 -0.4096  0.1998 -0.1445
14646W        W33500   1.214  13.012   3.659 -0.0049  0.3353  0.1528
14647W        W33501  12.049   7.712  12.521 -0.0263  0.0003  0.1198
14648W        W33502  11.528   5.135  17.047 -0.1897  0.1775  0.2065
14649W        W33503  10.384  17.216   3.533  0.0701  0.4598  0.2109
14650W        W33504   4.837   3.343  15.398  0.1740 -0.3494 -0.1672
14651W        W33505  11.955   9.437  16.185  0.2615 -0.3941  0.2676
14652W        W33506   7.953  12.269   0.131 -0.2397  0.0860 -0.0351
14653W        W33507  15.223  14.877  15.234  0.2512  0.0020 -0.1335
14654W        W33508  11.372   1.997  14.085 -0.2330  0.1134 -0.1827
14655W        W33509   2.127  11.486  15.915  0.0242  0.1121 -0.0863
14656W        W33510  12.796   0.100  16.624  0.0305  0.3632  0.0699
14657W        W33511   9.236   0.326   2.641  0.2575 -0.2976 -0.2925
14658W        W33512   1.367   5.081   2.580 -0.1264 -0.0086 -0.0526
14659W        W33513  15.344  11.689   4.833  0.2496 -0.0919 -0.1902
14660W        W33514   1.820  11.597   1.803  0.0058 -0.0248 -0.1018
14661W        W33515  13.568  12.275   1.787  0.3688  0.0186 -0.0969
14662W        W33516  13.633  10.937  13.980  0.3014 -0.1052  0.1516
14663W        W33517   0.764  13.034   5.842 -0.0455 -0.0463  0.1866
14664W        W33518   7.452  15.528  15.370  0.0170 -0.3605 -0.1312
14665W        W33519   6.422  12.192   4.239 -0.0678  0.0405  0.2448
14666W        W33520   7.969  17.053  12.555 -0.0505  0.1475  0.0254
14667W        W33521   3.876   7.533  14.130 -0.3161  0.5376 -0.2580
14668W        W33522   5.330   3.230  14.555 -0.1634  0.3561  0.1451
14669W        W33523  13.998  13.371   3.231 -0.4008 -0.0652  0.0918
14670W        W33524   6.189   7.221   0.345 -0.1855  0.1902  0.3533
14671W        W33525  13.904  15.440   1.399 -0.0555  0.3797 -0.1811
14672W        W33526  13.331   1.015  13.262 -0.4561 -0.2007 -0.1504
14673W        W33527   7.864   4.681   2.213  0.0898 -0.1961  0.1576
14674W        W33528   6.542  12.330  14.440  0.1221 -0.1808  0.0727
14675W        W33529   5.662   9.869  14.071 -0.0745 -0.0605  0.1548
14676W        W33530   5.511   2.174  17.087  0.0083  0.0302  0.2663
14677W        W33531   5.096  13.701   0.202  0.0917 -0.1837  0.1962
14678W        W33532   3.802   4.197  11.914 -0.0394 -0.4380 -0.2237
14679W        W33533   9.986   1.397   3.834 -0.0468 -0.0673 -0.0084
14680W        W33534  10.504  16.981   4.855 -0.0643  0.1137 -0.0395
14681W        W33535   5.888   9.091   2.083 -0.2717  0.2478 -0.0578
14682W        W33536   4.790   0.681  15.525 -0.0200  0.0695  0.0626
14683W        W33537  10.002  12.548  13.482  0.0634 -0.4102 -0.1643
14684W        W33538   3.911  10.229  14.658 -0.3113  0.1694 -0.3749
14685W        W33539  15.507   2.380   1.147 -0.3429 -0.0812 -0.0669
14686W        W33540   0.237   2.604  13.279  0.2435  0.1012 -0.2509
14687W        W33541   8.662  14.054  12.314 -0.2332  0.1230 -0.1224
14688W        W33542   7.979  16.999  14.461 -0.0671 -0.1685  0.0575
14689W        W33543   9.320  12.924   3.747 -0.1183  0.1362 -0.2841
14690W        W33544   2.935  11.676   1.411 -0.0842  0.1970  0.0771
14691W        W33545   7.697   0.490   3.758 -0.0748 -0.3052 -0.1142
14692W        W33546   5.668   1.539  14.822 -0.0560  0.0302 -0.0980
14693W        W33547   3.196   8.898  15.119  0.2839 -0.3530  0.0391
14694W        W33548   6.107   4.840  16.804 -0.1462 -0.0917  0.0009
14695W        W33549   4.118   5.297  12.548 -0.4145 -0.0571  0.5166
14696W        W33550  17.251   6.316   6.074 -0.1079 -0.1463 -0.5356
14697W        W33551   2.717   1.619  12.760  0.0205  0.1344  0.0717
14698W        W33552   5.712   7.937   2.072 -0.0687  0.1626  0.1259
14699W        W33553  15.104   5.026  12.215 -0.2997  0.3461  0.1018
14700W        W33554   5.600  15.922   5.148 -0.2140 -0.0411  0.0628
14701W        W33555   1.886  10.941   2.933 -0.1835  0.0924  0.1160
14702W        W33556   8.086  12.803  12.214 -0.0491  0.1806  0.3238
14703W        W33557  15.693  13.612  17.198  0.2006 -0.2443  0.0102
14704W        W33558  13.588  13.127  16.386  0.0910  0.0340 -0.0222
14705W        W33559   2.936  12.301  15.094  0.0317 -0.0502  0.5756
14706W        W33560  15.380  15.019  16.729 -0.1951 -0.0930 -0.3811
14707W        W33561   8.015   4.271   2.730 -0.0844 -0.0616  0.0749
14708W        W33562   6.974   1.612   5.115  0.0391  0.1795  0.0534
14709W        W33563   3.524   7.684  16.866  0.0770  0.1453 -0.0329
14710W        W33564   6.677  16.335   2.594  0.1342  0.0823  0.1180
14711W        W33565   6.615  15.230   5.040  0.0741  0.0165 -0.0437
14712W        W33566  14.822   8.107  12.522  0.0209 -0.0520  0.0654
14713W        W33567   0.203   4.432   0.974 -0.2745 -0.3344 -0.0915
14714W        W33568   3.795   5.530   1.777  0.0711  0.4622  0.0385
14715W        W33569   4.246  14.226   1.165 -0.1887 -0.0486  0.5133
14716W        W33570   0.389   0.566  15.909  0.3295 -0.2021 -0.0597
14717W        W33571  13.854  12.954   0.839  0.0802  0.2381 -0.2949
14718W        W33572  14.968  12.099  13.453  0.0066 -0.0033 -0.0602
14719W        W33573   4.832   3.310   2.691  0.0341 -0.0193 -0.1286
14720W        W33574  15.913   0.619  15.762  0.1863 -0.2968  0.2696
14721W        W33575  16.252  14.354   2.931 -0.4368  0.3223 -0.0986
14722W        W33576  11.098   1.950  16.212  0.0402 -0.1770  0.0446
14723W        W33577  12.577   0.753   1.994 -0.0617 -0.0381 -0.1639
14724W        W33578   8.345   7.264   3.456  0.0783 -0.0353 -0.1593
14725W        W33579  13.222  16.066  17.269 -0.1655  0.0396 -0.0525
14726W        W33580   0.285  10.529   0.586  0.4230  0.1829 -0.1607
14727W        W33581   2.843  10.454  16.600 -0.0116  0.0800  0.1747
14728W        W33582  11.092  17.048  13.143 -0.1034 -0.1519  0.0103
14729W        W33583   3.519   8.080  14.344 -0.3031 -0.0447 -0.0548
14730W        W33584   1.679   1.051  15.806  0.0772 -0.1901 -0.1264
14731W        W33585  12.588   9.541  15.358 -0.0175 -0.3141  0.0599
14732W        W33586   6.734  13.575   5.257  0.0326 -0.0836  0.0834
14733W        W33587   8.157   3.477   1.324 -0.0606 -0.2834  0.1269
14734W        W33588   5.191   3.391  13.231  0.0043  0.3740  0.2518
14735W        W33589  11.849   9.179   1.941 -0.0979 -0.3920 -0.0721
14736W        W33590  12.314   2.323  13.936  0.1052 -0.2646  0.1954
14737W        W33591  12.235   9.784  14.962 -0.4344  0.1496 -0.0088
14738W        W33592  10.318   9.210   2.890  0.1364  0.0593 -0.2686
14739W        W33593   1.670  11.227  15.706 -0.0639  0.1338  0.1650
14740W        W33594   3.433   6.723  15.193  0.2632  0.2625 -0.1476
14741W        W33595   0.207   0.437  13.330  0.0413 -0.4464  0.0779
14742W        W33596  11.021   3.116  13.930 -0.2693  0.3063  0.0986
14743W        W33597   0.589   6.498  16.410  0.1333 -0.3673  0.2482
14744W        W33598   4.522  15.635  13.459  0.0469  0.1223 -0.0721
14745W        W33599   8.482   7.478  13.584  0.1739 -0.0523 -0.1452
14746W        W33600   8.037  11.802   3.313 -0.0415 -0.3408  0.1274
14747W        W33601   7.244  16.187  15.753  0.0417 -0.1708  0.2613
14748W        W33602  11.932  16.842   1.692 -0.0390 -0.1542 -0.0078
14749W        W33603   5.873   5.268  15.380  0.0049  0.0151 -0.0638
14750W        W33604  10.188   6.486   0.085  0.1690 -0.0676 -0.2222
14751W        W33605   5.798   9.885   3.171  0.1556 -0.0912  0.1556
14752W        W33606  14.362  12.820   4.531 -0.0697 -0.1111  0.0408
14753W        W33607  12.727   1.246   4.732 -0.1283 -0.1078 -0.0582
14754W        W33608  11.338   8.793   4.495  0.2747  0.1702 -0.2607
14755W        W33609   2.352  14.605  14.714  0.0682  0.0073 -0.1215
14756W        W33610   5.759   1.771  15.250  0.3601 -0.0422 -0.1570
14757W        W33611  15.044   5.938  14.349 -0.1886  0.2306 -0.0214
14758W        W33612   3.501  13.710   0.615 -0.0325 -0.0987 -0.0958
14759W        W33613   8.759   0.602   1.124  0.0513  0.1801  0.2330
14760W        W33614   5.615  14.282  13.180 -0.0150 -0.0656 -0.0065
14761W        W33615  14.430   7.380   3.051  0.2579 -0.0173 -0.0204
14762W        W33616   3.244   0.804  12.355 -0.0490 -0.1658 -0.1177
14763W        W33617  17.027  10.526   0.645  0.1903  0.1115 -0.1530
14764W        W33618   5.615  11.713   3.667  0.1907  0.1159 -0.2540
14765W        W33619   1.962  14.001   2.709 -0.1304  0.1125 -0.1885
14766W        W33620  13.847  16.794  14.325  0.1881 -0.1459  0.1160
14767W        W33621  10.700   2.306  16.099  0.0170 -0.0821  0.0491
14768W        W33622  13.317  13.349   0.830 -0.1127 -0.4032  0.0519
14769W        W33623   2.652   7.251   3.017 -0.0878  0.0713  0.0323
14770W        W33624  12.765   1.423   4.019  0.2155  0.2989 -0.0414
14771W        W33625   6.797   3.214  14.365 -0.0133  0.2132 -0.0696
14772W        W33626  11.602   4.586   4.021 -0.2408  0.1639 -0.0435
14773W        W33627   6.905  15.824   0.883 -0.1014  0.1198  0.3292
14774W        W33628   9.040  13.263  14.599  0.1561  0.1359 -0.0676
14775W        W33629   9.501   1.360   3.968  0.0427 -0.2846  0.0538
14776W        W33630   5.416   1.382   1.312  0.1396  0.1845 -0.0394
14777W        W33631   1.856   4.403  15.721 -0.0396 -0.1125  0.1001
14778W        W33632   3.253   7.338   3.335 -0.1452  0.1268  0.2070
14779W        W33633   0.473  10.607   2.109  0.1484 -0.1137  0.0598
14780W        W33634   7.162   9.045  16.435  0.0116 -0.1513 -0.2612
14781W        W33635   3.545   5.736   5.538 -0.0900 -0.1296  0.1922
14782W        W33636   3.967   4.641   4.875  0.0773 -0.0172  0.1321
14783W        W33637  10.692   1.501   3.684 -0.0320  0.1319  0.2082
14784W        W33638   5.682  14.582   1.064  0.1089  0.1637  0.1979
14785W        W33639  10.028   4.539   1.974  0.0655 -0.1191  0.2586
14786W        W33640   4.899  10.534  17.218 -0.0863 -0.1176  0.3033
14787W        W33641   9.731   8.291  15.238 -0.0849 -0.0402  0.0688
14788W        W33642  13.425  13.426  13.463 -0.2380 -0.0155  0.1748
14789W        W33643   9.848   4.454   0.203 -0.3136  0.0321  0.1166
14790W        W33644  15.270  15.779  13.066 -0.1787 -0.1350  0.0721
14791W        W33645  14.711   9.109  13.654 -0.3435 -0.0647  0.0289
14792W        W33646  14.474  11.652   1.456  0.0527 -0.0650  0.2615
14793W        W33647  15.371  15.875   5.275  0.1723 -0.1350  0.0665
14794W        W33648   7.715   2.789   3.003  0.1162 -0.1037 -0.0530
14795W        W33649   4.271  14.960   4.028 -0.1304  0.2412  0.0803
14796W        W33650  15.608  15.643   2.442  0.1947 -0.3331 -0.2264
14797W        W33651   9.369   0.045   0.504  0.1467 -0.0085 -0.0109
14798W        W33652   7.431  15.095   1.402 -0.0495 -0.1591  0.0863
14799W        W33653  14.467  12.495   3.207 -0.0961  0.3325 -0.1441
14800W        W33654   6.771  15.812  13.327  0.0568  0.3793 -0.4225
14801W        W33655   8.161  10.810   2.070  0.1614 -0.0006 -0.0198
14802W        W33656   0.837   7.576   3.071 -0.0851  0.4165  0.2304
14803W        W33657  16.697   9.643   4.988 -0.0730  0.2944  0.0786
14804W        W33658   2.531  12.717   1.323  0.1200 -0.0338  0.1825
14805W        W33659  15.355  11.915  15.044 -0.0145 -0.1282  0.3054
14806W        W33660   1.855  14.997  15.224  0.1662 -0.1569  0.1531
14807W        W33661  14.588   0.555   5.699 -0.1430 -0.2312 -0.0796
14808W        W33662  15.524   6.208  17.132 -0.0944 -0.1891 -0.0137
14809W        W33663   8.858   0.877   4.938  0.0437  0.2192 -0.2078
14810W        W33664   3.409   5.074  16.354  0.0112  0.0737  0.0729
14811W        W33665   9.898  15.177  11.962 -0.1585 -0.0170 -0.1432
14812W        W33666   4.010  10.444  12.776  0.2574  0.0541  0.3287
14813W        W33667   3.418  15.445  12.580  0.1726 -0.1431 -0.1183
14814W        W33668  14.839   2.881   1.640 -0.1331  0.2304 -0.3264
14815W        W33669  16.286  13.080   2.619 -0.3556 -0.3630 -0.2385
14816W        W33670  17.207   5.147   3.959  0.0303  0.1475  0.1841
14817W        W33671  16.916   4.631  13.709 -0.0368  0.1295  0.0388
14818W        W33672   4.223   6.144  14.525  0.0131 -0.0317 -0.2523
14819W        W33673  10.844  15.498   0.241 -0.0184  0.0569 -0.0345
14820W        W33674  13.552   2.121  16.531 -0.1792 -0.1645 -0.0456
14821W        W33675  13.454   3.837   2.331 -0.1119 -0.0491 -0.0038
14822W        W33676   4.433  16.358  17.094  0.1545 -0.0771  0.0759
14823W        W33677  13.030  16.319   2.121 -0.1268  0.2616 -0.1390
14824W        W33678   7.986  10.555  12.473  0.0158 -0.2044 -0.3543
14825W        W33679  12.663   9.200   0.763 -0.1322  0.2752 -0.2407
14826W        W33680  13.172  11.395   1.122 -0.0728  0.1279  0.0321
14827W        W33681   8.066   4.525  13.487 -0.0575 -0.1610 -0.2781
14828W        W33682   1.950  11.567  13.394  0.1735 -0.1155  0.1980
14829W        W33683  16.151  11.393   1.638  0.2005  0.1766 -0.2351
14830W        W33684   0.682   4.680  17.058  0.0222  0.2393  0.2091
14831W        W33685  11.685   8.978   4.184 -0.0673  0.0848  0.2281
14832W        W33686  15.245  12.372   4.106  0.1990 -0.1388 -0.2031
14833W        W33687   9.650   4.553  14.783 -0.1507 -0.1512  0.3390
14834W        W33688  14.472   3.608  14.298  0.2354 -0.4006 -0.0417
14835W        W33689   4.361  16.593  15.150 -0.1704  0.3969  0.0642
14836W        W33690   1.332   8.662  14.664  0.0100 -0.1279 -0.4003
14837W        W33691   2.087  14.720   4.015 -0.1636  0.1742  0.1671
14838W        W33692  11.324  11.633   0.798  0.3394  0.2791  0.1855
14839W        W33693  12.737  13.993  13.840  0.2048 -0.0789 -0.3785
14840W        W33694   6.210  16.790   0.859  0.2161  0.0500 -0.1122
14841W        W33695   9.361  14.701  15.464  0.2676 -0.1699  0.1303
14842W        W33696  12.411   9.051   2.341 -0.1731 -0.0516  0.1250
14843W        W33697   7.741   8.709  13.025 -0.1332  0.0025  0.3680
14844W        W33698   9.808  14.022  14.784  0.1987 -0.7087 -0.1260
14845W        W33699   8.450  10.194  13.561  0.1524 -0.4040  0.2127
14846W        W33700  17.361   7.203  16.887 -0.0482  0.1889 -0.0425
14847W        W33701   5.673   1.113  17.070 -0.2621  0.0396 -0.3205
14848W        W33702   8.080   5.619  16.181 -0.1589  0.3239  0.2493
14849W        W33703  10.146   4.536  17.327 -0.1862 -0.0097 -0.0303
14850W        W33704  10.280  16.606   3.574 -0.0571 -0.0582  0.1437
14851W        W33705   8.091   3.658  13.183 -0.1023 -0.1203  0.1374
14852W        W33706   6.354   3.265   4.065  0.0316  0.1018  0.0495
14853W        W33707   1.387   4.918   3.092  0.1332 -0.1359  0.0949
14854W        W33708   7.549  13.096  17.017  0.1962  0.1321  0.3645
14855W        W33709  15.339  11.013   5.427  0.0210 -0.1308 -0.2027
14856W        W33710  15.160   3.792  14.767  0.2637  0.0958  0.3263
14857W        W33711   2.548   3.924  12.444 -0.2709 -0.1232  0.1718
14858W        W33712  14.184   6.701  14.178  0.0241  0.0202 -0.1670
14859W        W33713  16.281   8.353   2.413  0.0253  0.3123  0.1717
14860W        W33714   1.517   4.773  17.015  0.0347  0.0006  0.1523
14861W        W33715   7.684  14.378  16.203  0.0629 -0.1106 -0.0223
14862W        W33716   1.695   9.040   0.139 -0.1078 -0.1570 -0.1114
14863W        W33717  11.763   2.023  16.880  0.1933  0.4804 -0.0137
14864W        W33718   5.941  15.149   3.140 -0.2143  0.0992 -0.0226
14865W        W33719  13.721  13.610   1.582  0.0798 -0.0686 -0.0402
14866W        W33720   0.276  16.250   1.950 -0.1131  0.0758  0.2205
14867W        W33721  15.449  17.107   2.545 -0.2943  0.0565  0.1026
14868W        W33722  12.297  14.740  15.041  0.3391 -0.0794  0.1386
14869W        W33723  10.338   5.350   3.132  0.4108  0.0648  0.0890
14870W        W33724  15.651   3.766  12.564 -0.1662 -0.1092  0.0679
14871W        W33725   8.366   4.141  14.424 -0.0566 -0.0085 -0.1949
14872W        W33726   8.936  13.252  13.132 -0.0821  0.1834  0.0600
14873W        W33727  10.173   4.855   4.397 -0.0157  0.1864 -0.4494
14874W        W33728   5.790  13.705   3.428  0.2791  0.1144 -0.0838
14875W        W33729  17.040  10.479   4.276  0.1478  0.2077 -0.4298
14876W        W33730   0.870   7.909  16.882 -0.2253  0.2246 -0.1082
14877W        W33731   1.393   8.099  16.010  0.0230  0.2339 -0.2349
14878W        W33732  14.129  11.224   0.126  0.1708  0.0046 -0.0428
14879W        W33733   7.532   0.294  17.008  0.0019 -0.0041  0.0461
14880W        W33734   9.363  12.470   5.144 -0.4750  0.0356 -0.3820
14881W        W33735   6.375   7.842   3.358  0.1745 -0.1299 -0.0791
14882W        W33736   4.860   5.915  12.384  0.0536 -0.1257  0.3179
14883W        W33737  14.717   7.244  16.675 -0.1469  0.2734  0.0153
14884W        W33738   6.463   5.524   2.877 -0.2741  0.0010 -0.0523
14885W        W33739   9.829  12.902  14.231 -0.1282 -0.1418 -0.0662
14886W        W33740  10.974  10.745   1.873 -0.2819 -0.1350  0.2407
14887W        W33741   2.669   3.899  15.561  0.2218  0.0517 -0.0990
14888W        W33742  11.199   6.340  14.151 -0.0664 -0.1787  0.1733
14889W        W33743  11.030  10.240  14.339 -0.4143  0.2914  0.1340
14890W        W33744   9.771   5.506  13.078 -0.0435 -0.2990 -0.0947
14891W        W33745  16.721  12.304  14.264  0.0206  0.1174  0.0433
14892W        W33746  13.307   2.642  12.528 -0.1323 -0.0821 -0.0207
14893W        W33747   7.467  16.230  12.690 -0.0149 -0.0634  0.1339
14894W        W33748  10.445   7.982   5.613  0.1359 -0.0283 -0.2816
14895W        W33749   2.170   8.768  13.069 -0.2767 -0.4241 -0.0822
14896W        W33750  11.432  14.327   4.162 -0.2619  0.0890 -0.1152
14897W        W33751   7.880   0.502  16.510  0.1098 -0.0304 -0.1944
14898W        W33752  16.955   7.381  15.979  0.0658 -0.1905  0.0504
14899W        W33753   8.650   6.730   5.621  0.0333 -0.0156 -0.0581
14900W        W33754   3.711   2.976   6.284 -0.4143 -0.0475 -0.1965
14901W        W33755   4.093   8.432  13.163  0.2404  0.2947  0.1620
14902W        W33756   2.979   1.834  14.963  0.1943  0.1162  0.4591
14903W        W33757   9.859   5.442  15.648 -0.3000 -0.0019 -0.0708
14904W        W33758  11.489  15.646  13.787 -0.1409  0.1218 -0.2148
14905W        W33759   6.913   2.416  13.983 -0.0544  0.2592  0.1342
14906W        W33760  16.451   2.163   1.305 -0.3240  0.4516 -0.3221
14907W        W33761  16.842   8.769   0.186 -0.1347  0.0224  0.0654
14908W        W33762   7.875  12.579   5.631  0.0352 -0.1660 -0.1304
14909W        W33763   1.719   7.777   1.478 -0.1246  0.1090  0.0921
14910W        W33764   4.804   4.174  14.228 -0.2682  0.2870  0.1740
14911W        W33765   0.755   9.788   0.634  0.3770 -0.1587 -0.0349
14912W        W33766  11.595  13.809   2.755 -0.0220  0.0299  0.1919
14913W        W33767  15.888  14.384   0.896  0.2472 -0.2196 -0.0181
14914W        W33768  13.282   6.856  12.698 -0.1055  0.1306 -0.0951
14915W        W33769  15.853  11.341   0.029  0.1702 -0.1983  0.1634
14916W        W33770  11.604   0.148   4.889 -0.2194  0.2914 -0.0511
14917W        W33771  10.493   4.411  12.111 -0.0808  0.0694 -0.0065
14918W        W33772  16.335  15.206  13.988  0.1287 -0.2067  0.0274
14919W        W33773  14.313   4.063  15.935  0.0118  0.0150 -0.2025
14920W        W33774   4.432  11.646   1.479  0.0170  0.1950  0.1153
14921W        W33775   5.673   3.851   4.464 -0.0563 -0.0417 -0.2138
14922W        W33776  14.623   0.955   2.426  0.0351 -0.1350 -0.1730
14923W        W33777  15.695   2.319   1.998 -0.1361  0.3857 -0.0826
14924W        W33778  10.487   4.494   1.110 -0.1898 -0.1482  0.0233
14925W        W33779   0.266   7.242  12.477 -0.1347  0.2880  0.3379
14926W        W33780   2.291  12.339  14.728 -0.2037 -0.1338 -0.1378
14927W        W33781  12.963   9.485   1.071 -0.0484 -0.1441 -0.4568
14928W        W33782   6.461  13.294  12.315  0.1573  0.0415  0.1631
14929W        W33783  10.738   4.009  11.673  0.0569 -0.2330 -0.1300
14930W        W33784   0.647   4.691   0.921  0.2567 -0.2752 -0.2139
14931W        W33785   8.686  13.252   1.316 -0.0517  0.0962  0.0047
14932W        W33786  14.094  16.816   1.209  0.1595  0.0005  0.3618
14933W        W33787  12.301   7.981  14.769  0.2273 -0.3603  0.1154
14934W        W33788   3.407  11.762   1.153 -0.0338 -0.0272 -0.0263
14935W        W33789  15.532  12.439   2.277  0.0674 -0.2440  0.0830
14936W        W33790   6.416   8.461  17.186  0.0390 -0.0881  0.0020
14937W        W33791   8.812  15.010  13.673 -0.1844  0.0010 -0.3581
14938W        W33792  10.130   1.681   2.694 -0.1647 -0.2297 -0.0006
14939W        W33793  14.509  10.175   4.683 -0.2441  0.3370 -0.1405
14940W        W33794   5.032   4.006   5.364  0.1160  0.0383 -0.1234
14941W        W33795   4.873   7.951  16.390 -0.0733 -0.1671  0.1676
14942W        W33796  11.011  16.164  15.624 -0.3939  0.1738 -0.1508
14943W        W33797   0.602   2.097  12.846 -0.2235 -0.2476 -0.2760
14944W        W33798   2.235   2.433  12.703  0.2437  0.2108 -0.0996
14945W        W33799   8.192   1.127  13.486  0.0956  0.1056  0.2544
14946W        W33800   5.399   7.577   4.768  0.1905 -0.0158 -0.0390
14947W        W33801  14.070  12.388   1.793  0.0388  0.1967 -0.0970
14948W        W33802   3.622   0.956  15.915 -0.2315  0.2495 -0.0700
14949W        W33803  11.777  15.253   2.282  0.0304 -0.0439  0.3479
14950W        W33804   4.686   0.108   2.113 -0.0360  0.2530  0.1637
14951W        W33805   7.875   7.049   3.619  0.1965 -0.1027  0.1195
14952W        W33806  17.355   0.336   5.088 -0.1203 -0.0006  0.1047
14953W        W33807  16.369   0.627   4.661  0.3828 -0.0507 -0.0717
14954W        W33808   8.379  13.268  13.637 -0.1089 -0.0153  0.1413
14955W        W33809   7.052   8.767   0.394  0.2779 -0.2052 -0.2823
14956W        W33810  10.001   0.825   3.652 -0.0457 -0.0064  0.0776
14957W        W33811   4.876  13.540   3.254 -0.2147  0.0694 -0.1685
14958W        W33812  15.636   8.271  17.147  0.0858 -0.0015  0.0270
14959W        W33813  13.565   7.513  16.292 -0.2153  0.4191 -0.3351
14960W        W33814   5.246  14.413  15.356  0.1329  0.1912  0.1117
14961W        W33815  13.850  10.425  15.837 -0.1310 -0.0687 -0.1588
14962W        W33816  15.904  12.387  12.709 -0.1793 -0.1160 -0.2113
14963W        W33817   3.115  17.266  12.280 -0.0679 -0.1953  0.0573
14964W        W33818   9.556  12.253   2.957 -0.3350  0.3601 -0.1039
14965W        W33819   0.619  11.452   4.711  0.0801  0.3727 -0.0499
14966W        W33820   7.120   9.748  14.026 -0.2996 -0.2291  0.0770
14967W        W33821   2.941   0.289  17.348  0.0163  0.1151 -0.0324
14968W        W33822   2.999   6.750   0.373 -0.0391 -0.0027 -0.1122
14969W        W33823  15.576   2.831  14.390 -0.0444 -0.2994 -0.2258
14970W        W33824   3.498   0.699   3.217  0.0014 -0.0615  0.0400
14971W        W33825  11.103   6.371  16.094 -0.0815  0.3116 -0.0432
14972W        W33826   6.354   7.537   3.788 -0.4655  0.1460  0.5204
14973W        W33827  15.349   1.785   0.602 -0.0895  0.0680  0.0896
14974W        W33828  15.308  15.957  17.411  0.3954 -0.0285  0.0091
14975W        W33829   7.751  14.631   3.882  0.0558 -0.0196 -0.0630
14976W        W33830  13.385   0.833   3.608 -0.4189 -0.3479  0.0353
14977W        W33831   9.107   6.632  12.455 -0.0918 -0.2622 -0.2216
14978W        W33832   7.488  12.172  16.944  0.0885 -0.2319 -0.0408
14979W        W33833   9.710  14.933  17.181  0.2715  0.0347 -0.1276
14980W        W33834   6.393   5.771  16.745  0.0030  0.0846  0.3004
14981W        W33835  14.437   0.661  16.872  0.1759  0.0625 -0.0591
14982W        W33836  13.422   7.104  16.044 -0.2497 -0.1593 -0.0944
14983W        W33837  10.790  13.979  14.934  0.2251  0.2029 -0.2944
14984W        W33838  11.952   2.709   2.983 -0.0200 -0.0344  0.0344
14985W        W33839  10.948   6.710  13.572 -0.1322  0.2010  0.2776
14986W        W33840   5.347   8.386   5.103 -0.0304  0.1948 -0.1012
14987W        W33841  14.402   7.005  16.387 -0.0037 -0.0379  0.0818
14988W        W33842  17.211   7.450  13.561  0.1775  0.0339 -0.0471
14989W        W33843  15.669   5.414   2.341  0.1782 -0.0662  0.1741
14990W        W33844  10.226   4.698   3.490  0.0801 -0.1576  0.1576
14991W        W33845   0.226   4.584  13.090 -0.0981  0.0134 -0.4257
14992W        W33846   6.969   7.585   5.435 -0.2283 -0.0237  0.0543
14993W        W33847  12.786   7.861  17.270  0.1780  0.0910  0.1007
14994W        W33848  11.545   0.141  17.409 -0.0202 -0.1652  0.0172
14995W        W33849  16.788   1.777   4.134 -0.1583  0.1721  0.0632
14996W        W33850  10.864   1.998  17.410 -0.0138  0.0930  0.0574
14997W        W33851  16.050  15.929  15.998 -0.1813 -0.2606 -0.1029
14998W        W33852   8.253   6.642  14.382 -0.0997  0.2371  0.3222
14999W        W33853   4.935   0.303  12.677  0.0805 -0.1570  0.0430
15000W        W33854   5.145  15.112   2.087  0.1685  0.1042  0.4193
15001W        W33855   8.565   6.083  12.740  0.2229 -0.1999  0.1036
15002W        W33856   6.608   1.793   2.834  0.2108 -0.3467  0.0954
15003W        W33857   0.464   0.103  15.713 -0.3396 -0.1454  0.0780
15004W        W33858   9.662  16.733  12.663 -0.0527  0.4478 -0.1594
15005W        W33859   0.522  10.725   3.432  0.0669  0.2117 -0.2925
15006W        W33860   1.160   7.772   0.924  0.2227 -0.1370  0.2262
15007W        W33861   3.189   4.578   2.727  0.2235  0.0005 -0.1314
15008W        W33862  17.160   4.625   1.551  0.1515  0.1883  0.0618
15009W        W33863  16.182  15.140  14.961 -0.2554 -0.2712 -0.0662
15010W        W33864   6.182  10.965   4.016  0.2086 -0.2199  0.0469
15011W        W33865  15.519   2.091  12.855  0.2703  0.5828 -0.5585
15012W        W33866  17.383  16.326   0.517 -0.0869  0.0222 -0.1675
15013W        W33867   3.008  14.305   1.902  0.0154 -0.2270  0.2219
15014W        W33868   2.269   7.954   4.558  0.1263 -0.1157 -0.1327
15015W        W33869   2.529   8.667  13.393 -0.1086  0.0562  0.0292
15016W        W33870   0.203  10.261  16.716  0.0698  0.0820  0.2026
15017W        W33871  12.967   8.302  15.674  0.2726 -0.1926 -0.2368
15018W        W33872  13.414  17.118  16.307  0.2146 -0.0815 -0.1483
15019W        W33873  17.400  12.326  13.627 -0.1451  0.0985  0.2327
15020W        W33874  15.605   1.581   1.588  0.1958  0.2168  0.1275
15021W        W33875  13.008   2.021   3.709  0.1934 -0.1270  0.2729
15022W        W33876   8.460  13.100  12.513 -0.0549 -0.1700 -0.1290
15023W        W33877  10.327   1.197   3.453  0.1074 -0.1821  0.0353
15024W        W33878   2.842   2.098   0.495  0.0673  0.1975  0.0260
15025W        W33879   3.800   3.697   1.416  0.0315  0.0586  0.0331
15026W        W33880  16.982   9.997   1.718  0.1556 -0.0711  0.2646
15027W        W33881   8.325   8.051  14.518 -0.5199  0.0611  0.2242
15028W        W33882   8.754   4.249   3.816  0.2532  0.1225 -0.1339
15029W        W33883   0.466  11.764   4.323  0.1659 -0.1425 -0.0030
15030W        W33884  10.036   6.519   2.949  0.2231 -0.1406 -0.0884
15031W        W33885  10.742   4.950   1.676  0.5776  0.2228  0.0276
15032W        W33886  11.219   9.659   0.989  0.1657  0.1182  0.0024
15033W        W33887   8.841   5.560   3.824 -0.1428  0.2497 -0.4679
15034W        W33888  13.955   3.313   1.542  0.1125 -0.0496 -0.2242
15035W        W33889   5.050   1.598  14.465  0.0952  0.0433 -0.0208
15036W        W33890   7.617   0.428  13.093  0.2600 -0.0672 -0.0519
15037W        W33891   3.788  11.662  12.934 -0.1832 -0.4877  0.0282
15038W        W33892   1.876  12.517  17.133 -0.0236 -0.0109  0.2834
15039W        W33893  13.983   4.838  17.230 -0.1828  0.2034 -0.0279
15040W        W33894   0.164   7.197   4.252 -0.2350 -0.2128  0.2628
15041W        W33895  12.387   5.988  13.075  0.1975 -0.1308 -0.0082
15042W        W33896   0.202   1.031   4.661  0.0304  0.0967 -0.0030
15043W        W33897  13.453   0.676   1.698  0.1418 -0.1841  0.0244
15044W        W33898   5.540   5.367  12.932  0.3471 -0.0917 -0.2977
15045W        W33899   7.232  15.360   0.789  0.0003 -0.0468  0.0512
15046W        W33900   6.882   5.711  16.731 -0.0489  0.5406 -0.1738
15047W        W33901   8.347  10.261  12.221 -0.2205 -0.2826 -0.0525
15048W        W33902  14.550   7.115  14.503 -0.0299 -0.1149 -0.1064
15049W        W33903  12.524  13.038   4.454 -0.0512  0.3377  0.2580
15050W        W33904   8.005   0.934   3.588  0.0185  0.1935  0.1410
15051W        W33905  13.901   5.272  14.637 -0.0984 -0.1531  0.2483
15052W        W33906   4.789  10.984  11.845  0.2778 -0.1000 -0.2304
15053W        W33907  11.733  11.378  14.477  0.3207  0.0361  0.0241
15054W        W33908   5.613   7.242  16.451  0.2336 -0.0969 -0.1594
15055W        W33909  16.921  10.993   4.278 -0.3172  0.0802 -0.5728
15056W        W33910   0.525   4.892  14.215  0.1798 -0.0968  0.3087
15057W        W33911  14.420  10.005  17.047 -0.4338  0.0930 -0.1385
15058W        W33912  16.898   4.106   4.418  0.1212 -0.2391 -0.0002
15059W        W33913  11.391   7.588  17.347 -0.0526 -0.2010 -0.0701
15060W        W33914  14.712  13.031   5.773 -0.1887  0.2909 -0.0571
15061W        W33915   9.229  17.396  15.479 -0.1398  0.2549  0.2365
15062W        W33916  15.748  10.813   5.192  0.0381  0.0279 -0.0318
15063W        W33917  10.114   9.039  16.374  0.2994 -0.1417 -0.2023
15064W        W33918   2.774   6.112   2.309  0.0803 -0.0848  0.2335
15065W        W33919  15.071   6.414   2.797 -0.0489 -0.0783 -0.0718
15066W        W33920   9.154  15.423   1.420 -0.2108 -0.2041 -0.0094
15067W        W33921   8.086   8.785   2.757 -0.3422  0.0463 -0.0085
15068W        W33922   7.428  10.481   0.014  0.1164 -0.1974  0.2422
15069W        W33923  12.201  16.879  17.209  0.3609  0.1597 -0.0031
15070W        W33924   5.910   8.339   1.792  0.0116  0.1080 -0.1481
15071W        W33925   1.101   6.859   4.153 -0.0453  0.2450  0.1171
15072W        W33926   3.661   6.331   0.072  0.0026 -0.1701 -0.2496
15073W        W33927   2.059   2.596  14.613  0.0687  0.0504 -0.0445
15074W        W33928   7.897   2.471  13.971  0.0605 -0.2446  0.0093
15075W        W33929  14.835   7.757   2.935 -0.0476 -0.0399 -0.0611
15076W        W33930   8.909   1.618  13.705 -0.5553  0.0407  0.0011
15077W        W33931  17.056   4.731   3.234  0.0834 -0.0825  0.2757
15078W        W33932  16.623   8.824   0.658 -0.0694  0.1338 -0.0314
15079W        W33933   0.343  10.363  15.805  0.1245  0.3253  0.0995
15080W        W33934   7.749   8.079  13.448 -0.3143 -0.0707  0.0953
15081W        W33935   6.449   6.041   3.520  0.1590 -0.2936 -0.0492
15082W        W33936   5.080   3.684  14.222 -0.0415 -0.0502  0.2577
15083W        W33937  16.476   7.439  15.767  0.0486  0.0322  0.0904
15084W        W33938   4.018  13.529   1.538 -0.1388 -0.0371  0.1598
15085W        W33939  10.773  13.428  12.802 -0.0565 -0.1682 -0.2864
15086W        W33940  10.043   5.340   0.371  0.0873 -0.1572  0.0329
15087W        W33941   8.810   3.205  15.557  0.0980  0.1127  0.2638
15088W        W33942  13.508  16.296   2.308 -0.0998 -0.2894 -0.1217
15089W        W33943   8.898   0.941  17.475 -0.0962  0.0982  0.1140
15090W        W33944  10.491  15.305   2.260  0.2293 -0.1353  0.1722
15091W        W33945   8.555   1.938  13.906 -0.0216 -0.0261  0.0894
15092W        W33946  12.018  12.342  14.392  0.0875 -0.0039 -0.0774
15093W        W33947  14.436   7.982   1.704 -0.0117  0.2459  0.0982
15094W        W33948  10.824   4.531  12.494  0.2349  0.0658 -0.0416
15095W        W33949   4.215  12.763   4.559 -0.0655  0.0210  0.2014
15096W        W33950  14.248   9.615   5.454 -0.1210 -0.3084  0.1058
15097W        W33951   9.961   0.618  12.836  0.3480 -0.0751  0.0448
15098W        W33952  14.406   1.408   4.643  0.0108  0.0707  0.0916
15099W        W33953  13.159   1.104   2.638 -0.3577  0.1451 -0.1012
15100W        W33954  12.036   9.378  15.340  0.2160  0.0806  0.0181
15101W        W33955   3.543   6.169   4.271  0.0613 -0.1208  0.2837
15102W        W33956   6.153   8.035   3.793 -0.2853  0.1588  0.0123
15103W        W33957  16.814  14.040  15.965 -0.1577  0.0138 -0.2087
15104W        W33958   9.947  10.940   1.644 -0.2251 -0.4246  0.0174
15105W        W33959   4.045   6.891  15.933  0.1329  0.0840 -0.0061
15106W        W33960  13.707  12.966  17.240  0.0689  0.1073 -0.1521
15107W        W33961  12.224   9.300   4.485 -0.0053  0.0038  0.0595
15108W        W33962   4.990   5.577  15.669 -0.3927 -0.0965  0.0729
15109W        W33963   7.330   8.323   2.536 -0.2676 -0.1630 -0.3091
15110W        W33964  14.584  12.423  13.623  0.0666  0.2899 -0.1053
15111W        W33965   2.492  16.826   1.653  0.1106  0.2761 -0.1200
15112W        W33966  10.954   0.406   3.953 -0.0677  0.0083  0.0541
15113W        W33967   0.809   9.483   0.237  0.2971  0.0466  0.3273
15114W        W33968  10.334  16.159   2.733 -0.0936  0.2613 -0.0912
15115W        W33969  11.763   9.905  15.225  0.2484 -0.2461 -0.2871
15116W        W33970  12.396  11.063   0.846  0.2222  0.0244  0.3094
15117W        W33971  14.782  12.753   4.922 -0.1322 -0.0890  0.1083
15118W        W33972   4.068   8.560   2.508  0.0824  0.0130  0.0993
15119W        W33973   9.201   6.891  16.618  0.0460 -0.1850 -0.0181
15120W        W33974   8.771  16.961   3.890 -0.4147 -0.0820 -0.2604
15121W        W33975   6.317   6.879  12.354  0.0123  0.1253 -0.0545
15122W        W33976   0.690  15.869   1.889 -0.4169 -0.3915  0.0836
15123W        W33977   8.584  11.764  14.202 -0.0764 -0.0256 -0.0751
15124W        W33978   9.528  13.277  14.448  0.0342 -0.0356  0.1793
15125W        W33979  13.691   5.616  13.232  0.2934 -0.0856  0.0835
15126W        W33980   4.141   9.682  14.576 -0.1806 -0.1248  0.0394
15127W        W33981   0.060   3.498   2.963 -0.3688 -0.2838  0.3231
15128W        W33982   7.789   7.346  11.578  0.0055 -0.0246 -0.0875
15129W        W33983  15.805  17.100   1.917  0.0904 -0.0376 -0.1015
15130W        W33984   3.348   4.103   2.641 -0.0954  0.1571 -0.1172
15131W        W33985   9.864   3.649   4.324 -0.1156  0.1716  0.0661
15132W        W33986   8.127  12.249   0.989 -0.2777  0.2581 -0.0782
15133W        W33987  15.312   0.965  14.137  0.1898  0.0166  0.0849
15134W        W33988  11.693  11.214  13.017 -0.0818  0.0439 -0.0115
15135W        W33989   2.573   9.601   2.492 -0.1102 -0.1881 -0.0038
15136W        W33990   1.486   0.645  12.805  0.2258  0.1397 -0.0480
15137W        W33991   3.064   5.751   4.775  0.1434  0.0854 -0.1054
15138W        W33992  11.234   3.376  13.533  0.0332  0.0361  0.2127
15139W        W33993   6.174  16.298   0.611 -0.2721  0.0992 -0.3312
15140W        W33994   0.548   8.374   1.466 -0.0696  0.0231 -0.2880
15141W        W33995  13.948  11.672   0.042  0.0771  0.2952  0.1134
15142W        W33996   2.679  12.148  16.499 -0.1779 -0.1713  0.0580
15143W        W33997  17.348  11.199  12.720 -0.2172  0.0448  0.1746
15144W        W33998  10.264  12.217   4.104  0.1122 -0.0705 -0.0312
15145W        W33999   7.125  10.333  14.054 -0.1719  0.1980 -0.0360
15146W        W34000  11.178   1.488  13.716  0.0683 -0.0205 -0.1324
15147W        W34001   4.664   0.187  17.358 -0.1244 -0.1089 -0.2162
15148W        W34002   3.725   4.892  14.576 -0.1356  0.2074  0.1651
15149W        W34003   6.870  16.462   4.385 -0.2365 -0.0182  0.1931
15150W        W34004   4.176  13.881  12.848  0.1499 -0.1126 -0.0164
15151W        W34005  15.248   8.021  17.250 -0.3866  0.1697 -0.1583
15152W        W34006  12.398   5.033   4.449  0.0206 -0.0560  0.0797
15153W        W34007  11.740  11.615   1.182  0.2202  0.0352  0.0975
15154W        W34008  14.120  10.209  13.473  0.0458  0.1608  0.1319
15155W        W34009   7.767  11.917   0.757  0.0830 -0.2464  0.0446
15156W        W34010   7.441   7.462  14.782 -0.0841  0.3485 -0.1009
15157W        W34011   0.584   6.897   0.989  0.1039  0.0397  0.2614
15158W        W34012   0.928   5.532   5.085  0.2195  0.0691 -0.3476
15159W        W34013   4.793   6.951   1.571 -0.2003  0.1739 -0.2726
15160W        W34014   7.829   1.040  16.574  0.1077  0.3588  0.0930
15161W        W34015   5.860   3.048  12.034  0.1189  0.0284 -0.0088
15162W        W34016  15.812   5.224  16.245 -0.2238 -0.1183 -0.0577
15163W        W34017   3.584   3.869  13.185  0.1242 -0.3607  0.2655
15164W        W34018  11.377   3.449   5.267  0.0451 -0.1002 -0.2287
15165W        W34019   0.300   6.912  16.555  0.2139  0.2563  0.0784
15166W        W34020   7.128  13.006   1.623  0.1623  0.2720 -0.1733
15167W        W34021  14.645  11.098  16.966 -0.1337 -0.4013 -0.1390
15168W        W34022   4.587   6.658   5.172  0.4014  0.1468  0.0534
15169W        W34023   3.345  12.344   5.071  0.1252  0.0197 -0.1441
15170W        W34024   3.454  13.293   2.236  0.1020  0.3100 -0.3136
15171W        W34025  14.730  10.803  13.439 -0.1858  0.1971 -0.1424
15172W        W34026   5.346  14.842   3.746  0.0456  0.1829 -0.1729
15173W        W34027  17.006   2.762  15.161 -0.5541  0.1617  0.1103
15174W        W34028   7.079   1.117  14.551 -0.1221  0.0574  0.2674
15175W        W34029   6.915   5.934   1.490 -0.1228  0.0658  0.2454
15176W        W34030   9.975   8.050  15.590  0.0199 -0.0962 -0.0640
15177W        W34031   8.037  14.431   1.048  0.0321 -0.4284  0.1161
15178W        W34032  15.694  11.554  13.741  0.3258  0.0019 -0.0431
15179W        W34033   3.297   0.241   5.291  0.0649 -0.3575  0.3030
15180W        W34034   0.174   7.028   0.122 -0.0176  0.2053  0.1487
15181W        W34035   7.034   8.660  14.575 -0.0216  0.3411 -0.1582
15182W        W34036  13.120   9.986   0.895 -0.0649 -0.0294  0.1331
15183W        W34037   9.655   0.808  16.829 -0.0286 -0.4415  0.5595
15184W        W34038   0.913   0.994  14.370 -0.1295 -0.1327 -0.1124
15185W        W34039   4.883   2.020  14.757  0.2627  0.0615  0.0521
15186W        W34040  13.847   7.657   2.569  0.3182  0.2181  0.2993
15187W        W34041   4.980  15.110  16.353  0.1537  0.0168 -0.0963
15188W        W34042  11.578  13.351   0.857 -0.2624  0.0016  0.1808
15189W        W34043   4.806  10.578   3.865 -0.1272  0.4437  0.0358
15190W        W34044   9.800  10.709   4.209  0.0689 -0.0172 -0.0502
15191W        W34045   1.556   5.118   3.540  0.0440 -0.1400 -0.0263
15192W        W34046  10.125   6.263   4.279  0.2873 -0.1596  0.1010
15193W        W34047   4.324   7.207  14.456 -0.1902 -0.4066 -0.1212
15194W        W34048  12.953   7.536  14.049  0.1096  0.0757 -0.1312
15195W        W34049  15.141  13.550  14.146 -0.0652 -0.2575 -0.1442
15196W        W34050   5.460  12.973   3.513  0.1455 -0.0367 -0.0408
15197W        W34051  12.742  16.197  17.232  0.1831 -0.0882  0.2566
15198W        W34052  11.876  13.650  12.917  0.1162  0.0852 -0.0644
15199W        W34053   6.360  16.761   3.151 -0.1224 -0.2484 -0.0301
15200W        W34054   9.968   9.928   0.053 -0.1752 -0.3471  0.0466
15201W        W34055   4.372  17.382   0.927 -0.0690 -0.4703  0.0485
15202W        W34056   6.456   4.708  14.918  0.0098  0.1619 -0.0982
15203W        W34057   2.772  11.069  15.533  0.1600  0.1404  0.3462
15204W        W34058   0.270   6.711   1.928 -0.2280  0.1035  0.0000
15205W        W34059  13.955   4.113   3.240  0.1764 -0.3068 -0.0038
15206W        W34060   4.364   6.941   1.350 -0.1540  0.3019  0.0020
15207W        W34061   5.672   4.364   5.012 -0.2057  0.1939 -0.1222
15208W        W34062   7.729  14.204   0.005  0.0598  0.2975 -0.1894
15209W        W34063  10.817  16.018  13.616  0.0021  0.0586  0.0944
15210W        W34064   4.544   4.531  14.014  0.1378  0.0498 -0.0673
15211W        W34065  15.641  14.853   0.683  0.5962  0.5052  0.0852
15212W        W34066  13.023  12.616  16.776 -0.1324 -0.1386 -0.1751
15213W        W34067   9.705  14.067  16.323 -0.0175  0.0302 -0.1269
15214W        W34068   9.312   4.873   3.550  0.0040  0.1460 -0.0906
15215W        W34069   2.833  13.735   3.606  0.1156 -0.0987 -0.0679
15216W        W34070  17.024   0.920   5.389 -0.0614 -0.2175  0.2262
15217W        W34071   6.894  16.444   5.261 -0.2512 -0.2162 -0.0650
15218W        W34072  14.556   0.993   5.413  0.0478 -0.1126 -0.2887
15219W        W34073   8.209  10.995  16.157 -0.2969  0.0394 -0.0276
15220W        W34074  13.492   6.668  14.965  0.0577 -0.4597 -0.2621
15221W        W34075   1.856   4.888   2.666 -0.1186  0.2636 -0.0950
15222W        W34076   8.096   5.583   0.449 -0.0002 -0.0852  0.4132
15223W        W34077  11.597  12.366  16.300 -0.0776 -0.3848 -0.0956
15224W        W34078  14.149   5.948  12.740  0.0216  0.0706 -0.0185
15225W        W34079   5.364   9.797   0.078  0.0308 -0.0996 -0.0085
15226W        W34080   6.895  14.496   3.791 -0.0584 -0.0047  0.3588
15227W        W34081  10.759   9.958   1.424  0.1817 -0.0663  0.0557
15228W        W34082  10.089  14.848   2.705 -0.1618  0.0741 -0.1584
15229W        W34083  16.345   4.411   1.942  0.4519 -0.1987 -0.1915
15230W        W34084  16.842   3.209   1.736  0.0198  0.0874 -0.0211
15231W        W34085   2.795  11.104  13.084 -0.1877  0.3269  0.0547
15232W        W34086  12.881   9.278  15.036  0.1184 -0.0502 -0.0498
15233W        W34087  14.747   9.840   2.199 -0.0822  0.3514 -0.1873
15234W        W34088  11.500   6.621   0.678 -0.0986 -0.0687 -0.1748
15235W        W34089  11.550  13.630  15.481  0.3277 -0.0750  0.3068
15236W        W34090  17.236   1.498   0.221 -0.1219 -0.1694  0.0655
15237W        W34091  14.710   3.541   4.690 -0.1383 -0.2098  0.2862
15238W        W34092  13.689   4.331   4.228 -0.1666  0.4414  0.3028
15239W        W34093  13.662  10.923   1.700  0.0132  0.0533  0.0756
15240W        W34094  16.964   3.964  14.412 -0.0623  0.0609  0.1172
15241W        W34095   6.876  14.938   4.597  0.1193 -0.0162  0.0876
15242W        W34096  16.151   3.368  15.925 -0.2758  0.2133 -0.2898
15243W        W34097  11.432  14.458   0.521 -0.0921 -0.0990  0.2942
15244W        W34098  14.523   7.084   2.108 -0.0331  0.1654  0.0812
15245W        W34099   3.590  11.667   2.818  0.2472  0.0119 -0.2674
15246W        W34100  10.109  10.012  17.042  0.0557  0.1882  0.0571
15247W        W34101  10.690   8.540  13.779 -0.0822  0.1591 -0.0146
15248W        W34102   0.178   8.222  12.338  0.0471  0.0851  0.1135
15249W        W34103   3.728   5.798   3.101 -0.2372  0.1346  0.1277
15250W        W34104  11.174  15.944  14.558 -0.0738 -0.0757 -0.2098
15251W        W34105   0.133  11.636   5.356 -0.0526  0.2075  0.0081
15252W        W34106  10.431   5.201   3.628 -0.0687  0.1042 -0.1880
15253W        W34107   8.758   0.327  13.476  0.0537  0.0278 -0.0987
15254W        W34108   5.184   9.839   5.034  0.0146  0.1195  0.0977
15255W        W34109  17.098   5.102  12.942 -0.2017 -0.0820 -0.0155
15256W        W34110   1.657   6.927   2.854 -0.1530  0.2064  0.0886
15257W        W34111   3.425   9.073  12.660 -0.3305  0.1036 -0.0701
15258W        W34112  16.387  16.536  15.405  0.0259  0.2691  0.1883
15259W        W34113  16.560   0.653   3.207  0.0850 -0.1907  0.0187
15260W        W34114  11.488   5.070   4.157  0.0368 -0.0218  0.1097
15261W        W34115  11.672  10.239   4.977  0.1693 -0.1892 -0.0553
15262W        W34116   6.053  14.115  13.429  0.0761  0.0553 -0.0646
15263W        W34117   1.692   7.563   4.238 -0.0752 -0.3549 -0.0986
15264W        W34118  11.240   1.363  12.837 -0.3005  0.1490  0.0647
15265W        W34119  12.073   5.831  13.953 -0.1555 -0.1270  0.2056
15266W        W34120   4.218   5.003  14.367 -0.0447 -0.1703 -0.0381
15267W        W34121  12.368  12.544  12.364  0.0750  0.3668 -0.1046
15268W        W34122   1.972   6.494  16.680 -0.0634 -0.4761  0.1950
15269W        W34123   7.683   6.115  14.103 -0.1725  0.2283  0.3673
15270W        W34124  10.947   6.697   5.126  0.0413 -0.0238  0.0878
15271W        W34125  10.178   3.944  16.564  0.1945  0.0058  0.1687
15272W        W34126  16.105  15.899   0.514  0.2221  0.3355  0.4084
15273W        W34127   7.377  12.191   3.999  0.1522  0.1582 -0.1478
15274W        W34128  14.676   5.666   4.369  0.1349 -0.3311 -0.2011
15275W        W34129  15.373   7.944   4.284 -0.0612 -0.0740  0.0202
15276W        W34130   0.124  17.219   0.505 -0.2403  0.2839 -0.0695
15277W        W34131  10.885  14.413   4.114 -0.0763 -0.0196  0.1558
15278W        W34132   5.008   9.025   3.419 -0.1196  0.0138  0.0304
15279W        W34133  14.126   0.919   2.883  0.0861  0.2278  0.2312
15280W        W34134  15.093   1.446   1.717 -0.2659 -0.5155 -0.1737
15281W        W34135   0.960   3.774  16.278 -0.0663  0.0337  0.5193
15282W        W34136  13.508  16.209   3.479  0.1059 -0.3335 -0.0333
15283W        W34137   4.866   1.625   5.093  0.1680 -0.0128 -0.3137
15284W        W34138  10.087  15.319   2.553  0.1743 -0.0826 -0.0201
15285W        W34139   4.649   2.492   3.345 -0.1263 -0.0180 -0.1144
15286W        W34140  11.183  13.022   4.572 -0.2815  0.0009  0.1853
15287W        W34141  17.288  16.587  12.991 -0.0635  0.3030 -0.0924
15288W        W34142  16.825  17.069  16.147 -0.0554 -0.0626  0.3160
15289W        W34143   3.848   9.706  15.015  0.0520 -0.0615 -0.2753
15290W        W34144  15.025   8.999  14.814 -0.1170  0.0234 -0.1554
15291W        W34145   1.525   1.316  14.394  0.0175 -0.0572  0.0683
15292W        W34146   5.262   6.110   0.078 -0.2567  0.0603  0.3305
15293W        W34147   4.693   2.760   5.590 -0.0809  0.0090  0.3371
15294W        W34148   4.702  16.358  14.297 -0.1376  0.2633 -0.3600
15295W        W34149   7.181  16.745  17.042 -0.0316 -0.2148 -0.0721
15296W        W34150  16.823   1.351   4.479  0.0937  0.2325  0.0923
15297W        W34151  11.870  13.755  16.158  0.1459 -0.1625 -0.4575
15298W        W34152   3.093   7.265   3.826 -0.0709  0.0174  0.3279
15299W        W34153   1.448  13.358   3.326 -0.0196 -0.1464 -0.3635
15300W        W34154   9.015  13.076  16.955 -0.2437 -0.0181  0.1241
15301W        W34155   6.842  13.760  12.615 -0.0865 -0.1635 -0.1656
15302W        W34156   0.238  14.934  13.484 -0.1994 -0.0012  0.2065
15303W        W34157   2.871  16.975   0.470 -0.2778 -0.0733 -0.4238
15304W        W34158  13.605   6.865   1.662 -0.3736  0.3644  0.2665
15305W        W34159  16.226   4.471  13.939 -0.0656  0.1173 -0.1790
15306W        W34160  11.954   5.274  12.758  0.4039  0.3080  0.0509
15307W        W34161   6.890  12.540   1.776 -0.2498  0.4283  0.2572
15308W        W34162   0.149   8.937  16.673 -0.0409 -0.1726 -0.0677
15309W        W34163   8.025   4.398  12.527 -0.0266  0.1743  0.0768
15310W        W34164   0.057   2.852  17.297  0.0486 -0.0176  0.0296
15311W        W34165  12.289   5.586   1.596 -0.2831 -0.1136  0.0769
15312W        W34166   1.287  15.571  16.428 -0.0193 -0.0120  0.0301
15313W        W34167   3.531   7.349   1.879 -0.1937  0.0322 -0.3128
15314W        W34168   0.627  13.418   2.455 -0.1598 -0.1353  0.0836
15315W        W34169   1.613  12.522  15.328 -0.0468 -0.2030 -0.3428
15316W        W34170   3.697   3.191   1.490  0.0147  0.0288  0.2132
15317W        W34171   7.641   8.859  12.594 -0.1517  0.1881 -0.0369
15318W        W34172  14.616   1.965   5.221 -0.3415  0.4526  0.0560
15319W        W34173   0.872  12.106   2.743  0.0758 -0.1395 -0.2698
15320W        W34174  12.543   9.390  16.223  0.0978 -0.3628  0.1150
15321W        W34175   7.618  15.228  15.830  0.0019  0.0131 -0.0343
15322W        W34176   1.930   7.156   1.982  0.0363  0.1477  0.1227
15323W        W34177  13.765   8.656   2.711  0.4298  0.1743 -0.0365
15324W        W34178  15.880   7.614   0.560 -0.1168  0.1681  0.2378
15325W        W34179   7.882   9.245   1.686 -0.4112  0.2639  0.3078
15326W        W34180  16.017   4.100  12.465 -0.0143 -0.0564 -0.0172
15327W        W34181  16.037  10.532   0.740  0.2349  0.0390  0.2219
15328W        W34182   6.409  12.817   4.699 -0.0218 -0.0462  0.0818
15329W        W34183  10.719  16.112  14.716  0.1013 -0.0051 -0.1853
15330W        W34184   5.548   7.638  12.206 -0.2090 -0.1041  0.0726
15331W        W34185  13.011   9.692  13.715  0.1397 -0.1714  0.0740
15332W        W34186   2.756  11.377  12.336 -0.1231  0.0782 -0.1905
15333W        W34187  13.577  16.440  17.215 -0.1705  0.1475 -0.1505
15334W        W34188  11.464  11.210   3.154  0.1607 -0.0236 -0.0595
15335W        W34189  14.012   6.175   3.512  0.0821 -0.0196 -0.3412
15336W        W34190   2.949   0.559   4.021 -0.0198 -0.0602  0.0489
15337W        W34191   0.380   0.563  14.796 -0.0855  0.0342 -0.2466
15338W        W34192   9.542  12.212   1.843  0.2488  0.1396  0.0626
15339W        W34193  12.721  11.107  16.175  0.2847 -0.0184  0.0722
15340W        W34194   3.316   3.198   4.824  0.1143  0.0340  0.2317
15341W        W34195   9.906  14.499  17.098  0.1348  0.0375  0.1226
15342W        W34196  13.116   1.902  16.958 -0.1123 -0.0707 -0.0006
15343W        W34197   7.152   7.272  13.252 -0.0188  0.0686 -0.1660
15344W        W34198   9.887  14.488  16.252 -0.1404 -0.2627 -0.0974
15345W        W34199   6.447  15.574  17.178  0.2152  0.4113  0.3524
15346W        W34200  10.015   5.356   2.717 -0.2496 -0.0404 -0.1899
15347W        W34201   6.309   8.686   0.627 -0.1503  0.0537 -0.1981
15348W        W34202  16.810  11.056   5.353 -0.1393 -0.1968  0.0356
15349W        W34203   6.838   6.566   0.520 -0.1882  0.2165 -0.0701
15350W        W34204   5.232   6.891   2.925 -0.0669 -0.2334 -0.2771
15351W        W34205  11.085   5.913   2.432 -0.1433 -0.2329 -0.2013
15352W        W34206  11.539   4.279  13.691 -0.0695  0.1302  0.0294
15353W        W34207   2.647  16.294  14.033 -0.1456  0.0204  0.1979
15354W        W34208   4.191   8.063  15.028 -0.1196 -0.1043 -0.0843
15355W        W34209   3.252   0.652   5.646 -0.1776 -0.1589  0.3332
15356W        W34210   2.486   4.528  12.521  0.2493  0.1254 -0.3363
15357W        W34211   5.616  12.478   0.026 -0.0635  0.0698 -0.0557
15358W        W34212  15.837   9.273   3.851 -0.1592  0.2711 -0.0406
15359W        W34213   2.287  15.895   1.767 -0.2249 -0.2731  0.2622
15360W        W34214  10.261  15.926  13.565  0.1546 -0.1085 -0.0836
15361W        W34215   8.216   1.553  13.913  0.1755 -0.0537  0.0377
15362W        W34216   5.087   2.114  14.197 -0.1245  0.1494 -0.0041
15363W        W34217  11.874   0.298   2.874  0.2393 -0.1766 -0.1949
15364W        W34218   6.874   6.225   3.721 -0.3065  0.1485 -0.3595
15365W        W34219  11.970   6.172  13.283  0.2407 -0.1207 -0.0792
15366W        W34220   3.654   5.997   1.977  0.2933  0.0450  0.3616
15367W        W34221  11.435  17.192   3.949  0.1731  0.1189 -0.0315
15368W        W34222  13.325   2.253   2.035 -0.0121  0.1393  0.1806
15369W        W34223  14.437   0.481   2.759 -0.3062 -0.1346  0.1197
15370W        W34224   0.811  10.490   1.721 -0.2531 -0.0564 -0.0133
15371W        W34225   1.047   8.524   2.395  0.0723 -0.3496  0.0143
15372W        W34226   0.685   7.815  14.774  0.4617  0.1372 -0.0016
15373W        W34227  14.291   2.890   2.516  0.2181 -0.1507  0.1996
15374W        W34228  16.291   2.262  15.453  0.1227  0.0538  0.2064
15375W        W34229   0.774   5.726  13.480  0.0204 -0.3210  0.0455
15376W        W34230   3.541   5.308   4.509 -0.0777 -0.0170  0.0540
15377W        W34231  15.600  13.537   1.207 -0.2516 -0.0880 -0.0539
15378W        W34232  11.880   6.916   0.760 -0.1173 -0.0917 -0.0428
15379W        W34233   0.074  15.246  14.627 -0.0063 -0.0498 -0.2071
15380W        W34234   9.830   3.885   4.830  0.2558  0.2122  0.1405
15381W        W34235   1.183  16.196   0.209 -0.1154  0.1013 -0.1894
15382W        W34236  15.570  14.464  14.941  0.1753 -0.0703  0.1764
15383W        W34237  16.765   5.632  14.696  0.2780  0.0719 -0.1524
15384W        W34238  15.058   5.220   0.482 -0.2194  0.1490 -0.1448
15385W        W34239   0.273  16.293   5.233  0.1502  0.0042 -0.1108
15386W        W34240   9.244  12.626   3.093  0.2170 -0.1814 -0.1384
15387W        W34241  11.392  14.181   1.889 -0.0089  0.2532 -0.0163
15388W        W34242  16.347   9.051   1.577  0.0432 -0.2826 -0.0134
15389W        W34243   1.176  12.020  12.817  0.1056 -0.0898  0.1087
15390W        W34244   1.643   2.063   1.091  0.0105  0.0223 -0.1515
15391W        W34245   1.583   0.629   2.915 -0.1444  0.0687  0.0465
15392W        W34246   5.429  17.229  15.919  0.2044 -0.0144 -0.0941
15393W        W34247  11.697   3.209   5.005  0.0626  0.0747  0.1947
15394W        W34248  14.683  11.535   4.082  0.2467 -0.1973 -0.0333
15395W        W34249  15.598  11.810   5.810  0.1731 -0.0705  0.1921
15396W        W34250   4.143  13.274   4.443 -0.1212 -0.0098  0.1648
15397W        W34251   0.663   4.855   1.982 -0.1378 -0.1140  0.0538
15398W        W34252  13.952  15.930  16.613  0.0008 -0.1011 -0.1446
15399W        W34253  16.872   1.297   1.330 -0.0462  0.0903  0.1212
15400W        W34254  10.083  10.148  14.133  0.1061 -0.1071 -0.0198
15401W        W34255   6.354   7.352   1.733 -0.2482  0.0520 -0.0000
15402W        W34256   7.123   5.546  13.654 -0.1384 -0.1524 -0.0941
15403W        W34257   4.098  12.402   0.622 -0.1342 -0.0311 -0.2127
15404W        W34258   3.907   0.457   0.685 -0.3825 -0.0511  0.3337
15405W        W34259   2.071   6.463   0.112  0.5071 -0.1840  0.0683
15406W        W34260   7.903   0.443  14.856 -0.4094  0.2413 -0.1597
15407W        W34261  15.399  16.850  14.699  0.1076  0.2790  0.1255
15408W        W34262  12.076  13.308   3.738 -0.0722  0.1185 -0.0756
15409W        W34263   0.146   6.111   2.661  0.0064  0.0228 -0.0160
15410W        W34264   9.628   7.722  16.995  0.2591  0.0144  0.1588
15411W        W34265  11.023   4.104  14.661 -0.0816 -0.0323  0.0636
15412W        W34266   1.386   5.544   0.671  0.0683 -0.1014 -0.1287
15413W        W34267  13.281   3.913   1.566  0.1151 -0.1288 -0.1621
15414W        W34268  15.118   1.230   5.302 -0.1068  0.0105 -0.3305
15415W        W34269   1.977  10.780   1.622  0.0892 -0.1232 -0.0366
15416W        W34270   8.916   8.195  12.072 -0.3124 -0.1537 -0.0628
15417W        W34271   0.919   7.677  11.566  0.0350  0.1312  0.3127
15418W        W34272   7.487   3.742   3.301  0.0902  0.0695  0.0864
15419W        W34273  15.156  13.657   3.345 -0.3155  0.1124  0.3271
15420W        W34274   2.367   2.239  13.445 -0.0697  0.2763  0.0502
15421W        W34275   1.387   6.948  15.493  0.2041 -0.0473 -0.1255
15422W        W34276  16.462   5.274   4.619 -0.3977  0.1511 -0.1755
15423W        W34277  13.691   0.336  13.690 -0.1241  0.2259  0.3904
15424W        W34278   0.969   0.630  17.119 -0.4150 -0.3500 -0.2539
15425W        W34279   8.759   8.991   0.160  0.3246 -0.0509 -0.0651
15426W        W34280   3.264   5.691   1.790  0.0844  0.0521 -0.0141
15427W        W34281  10.852   8.124  13.994  0.2872  0.1707 -0.0578
15428W        W34282   9.578  17.398  13.821 -0.1332  0.0579  0.1397
15429W        W34283   3.413   8.167   1.285 -0.0549 -0.2270  0.0101
15430W        W34284   1.231  15.289  14.949 -0.0526  0.1094 -0.0073
15431W        W34285   4.449  15.582   1.777 -0.1867 -0.0037 -0.0640
15432W        W34286  13.474  14.326   4.719  0.2108  0.3130  0.1029
15433W        W34287  10.751  15.947   2.850 -0.1397  0.0954  0.0399
15434W        W34288   6.150   7.263   3.425  0.0604 -0.2303  0.0730
15435W        W34289   9.167   4.115   0.930 -0.0659 -0.1592  0.1483
15436W        W34290   6.164   5.309  16.640 -0.1485 -0.1083  0.0400
15437W        W34291   2.651   0.095   4.395  0.1000  0.0341  0.3747
15438W        W34292   4.210  14.721   0.067  0.1365  0.0168  0.0145
15439W        W34293   1.327  17.102  13.134  0.2074 -0.1102  0.0407
15440W        W34294   1.307  15.071   5.338  0.0688  0.0225 -0.1963
15441W        W34295  12.819   8.289   0.273 -0.0779 -0.3175  0.0788
15442W        W34296   5.256   3.690  12.779 -0.1934  0.0250  0.2341
15443W        W34297   3.896   9.198  12.385 -0.0532  0.0472 -0.2227
15444W        W34298   3.458  13.144  14.962 -0.3150  0.1649  0.2256
15445W        W34299   0.851   2.229  16.139 -0.0040 -0.1594 -0.1859
15446W        W34300   3.011   1.632   2.995 -0.3858 -0.1459  0.3460
15447W        W34301   8.158   2.142  13.189  0.1037 -0.0345 -0.1070
15448W        W34302  10.389   8.265   2.492 -0.0222 -0.2036 -0.1687
15449W        W34303   6.181   8.228  16.843  0.1211 -0.0302  0.0350
15450W        W34304  15.725   5.210  13.789 -0.0088 -0.1234 -0.1261
15451W        W34305  14.594   4.391   1.510 -0.0610 -0.0625  0.3141
15452W        W34306  15.090   4.313   1.468 -0.1289  0.0578 -0.2520
15453W        W34307  12.634  10.853  13.308  0.0381 -0.0289 -0.0171
15454W        W34308   5.273   9.272   0.283  0.0166 -0.0390 -0.1899
15455W        W34309   1.223  10.156  15.033 -0.5323  0.1347 -0.3458
15456W        W34310   8.493   8.702  13.944 -0.2333 -0.1166  0.1720
15457W        W34311   8.534   2.856  12.745 -0.0393  0.1973  0.0131
15458W        W34312   6.605  11.530  13.577 -0.0229 -0.0281  0.2205
15459W        W34313  14.871   5.531  15.387  0.0839 -0.2247 -0.1310
15460W        W34314  16.315   3.921  17.155  0.1515 -0.1494 -0.0377
15461W        W34315  13.205   0.377  17.364 -0.2565  0.2620  0.1314
15462W        W34316   3.698  11.314  12.506  0.0310  0.3412 -0.3200
15463W        W34317   1.355  10.405   4.457  0.3175 -0.0658  0.3917
15464W        W34318  12.509   2.305  16.047  0.2340  0.2132 -0.1790
15465W        W34319   2.611   9.960  14.415  0.2166 -0.1779 -0.2260
15466W        W34320   7.550   3.110  12.552  0.1807 -0.3272 -0.1449
15467W        W34321   7.890  10.949   2.929  0.1703 -0.1290 -0.0084
15468W        W34322   7.480  12.348  12.882  0.0216 -0.1241  0.0439
15469W        W34323  13.448   8.155   4.323 -0.2996 -0.1186 -0.1919
15470W        W34324   0.151  10.621   5.577 -0.0038  0.1662 -0.3108
15471W        W34325   2.555   5.861  12.411  0.1160  0.1172 -0.0712
15472W        W34326  17.241  14.532  15.906  0.3390  0.0079  0.0587
15473W        W34327  14.919  16.213  16.539 -0.1267  0.1746  0.0683
15474W        W34328   8.340   2.694   1.314  0.2060  0.0185  0.3720
15475W        W34329  12.065   8.661   2.142  0.3885  0.2800  0.1605
15476W        W34330   2.088   2.795  16.627 -0.0256 -0.3253  0.0165
15477W        W34331   8.761  10.490  14.115  0.3933  0.0321  0.1886
15478W        W34332  15.725   5.167   1.793 -0.1044 -0.1930 -0.0948
15479W        W34333  12.918  13.480  16.004 -0.0297  0.1848  0.1932
15480W        W34334   8.393  15.343  13.480  0.0969 -0.2058  0.0901
15481W        W34335  10.265  13.159  14.971  0.0530 -0.1787  0.2140
15482W        W34336  15.624   3.992  15.631 -0.2440  0.1419  0.0623
15483W        W34337   5.063   5.252  12.784  0.2377 -0.1739 -0.1100
15484W        W34338   2.881   4.659   2.336 -0.2124  0.0321  0.4143
15485W        W34339  14.165  17.150  14.252  0.2737 -0.1686  0.0126
15486W        W34340   1.018  17.316   5.514 -0.3681 -0.2691  0.0584
15487W        W34341   0.449  10.824  15.815  0.2294 -0.1994 -0.0713
15488W        W34342   3.142   6.197  12.280 -0.0583  0.4293  0.0274
15489W        W34343  13.279  12.113  12.139 -0.0906  0.3406  0.2903
15490W        W34344   5.092  14.764   0.293 -0.2694  0.0182  0.0987
15491W        W34345  14.974  16.756   4.803 -0.2848 -0.2016 -0.1509
15492W        W34346   1.978   3.886  17.117  0.2293 -0.0963  0.2310
15493W        W34347  15.282  16.817   1.976 -0.1167 -0.2918  0.2411
15494W        W34348   9.846  15.745   1.702  0.1650 -0.0446  0.0597
15495W        W34349   3.783  16.193  13.578  0.4712  0.0577  0.1409
15496W        W34350   5.451  15.845  13.897  0.1072  0.1488 -0.1339
15497W        W34351   1.012   0.099  14.835 -0.0856  0.5227  0.0509
15498W        W34352   2.387   3.488  12.692 -0.3579  0.0906 -0.2189
15499W        W34353   5.518   0.608  17.476  0.1488  0.0295 -0.1042
15500W        W34354  17.357   0.789  14.520 -0.1314  0.0276  0.1724
15501W        W34355  15.156   9.446   5.166 -0.0071 -0.3065 -0.2086
15502W        W34356   3.664   6.983  16.241 -0.1804 -0.1141 -0.2754
15503W        W34357   8.539   5.816  13.199 -0.3504 -0.1552  0.1523
15504W        W34358  11.004   4.514   2.984  0.0780 -0.1663 -0.2553
15505W        W34359  14.571   4.254  15.061  0.2499  0.0064 -0.0888
15506W        W34360   6.540   0.831  14.688  0.0572 -0.3649  0.0883
15507W        W34361   5.250   6.512  13.427  0.0378  0.2626 -0.0698
15508W        W34362  13.552  11.025   2.619 -0.0978 -0.5790  0.0546
15509W        W34363  13.501   5.234   4.079  0.1993 -0.0968 -0.0751
15510W        W34364  12.001   0.937  15.595 -0.0055 -0.0892 -0.0821
15511W        W34365   5.789  16.717   2.188 -0.1124 -0.2015  0.0856
15512W        W34366  11.774   2.165   4.827 -0.0179 -0.0366  0.1442
15513W        W34367   5.492   6.676  14.423 -0.0560 -0.1158 -0.0106
15514W        W34368   5.819  13.240   1.171 -0.1127 -0.2112 -0.2517
15515W        W34369   7.275  16.581  13.050  0.0052  0.0389  0.2252
15516W        W34370  11.720  11.030  14.879  0.0806 -0.2189  0.1732
15517W        W34371  16.307  15.655   2.970  0.2448  0.3346 -0.1992
15518W        W34372   1.084  15.128  13.258 -0.1193 -0.0122  0.3025
15519W        W34373   1.095   1.725  16.172  0.0689 -0.0760  0.2067
15520W        W34374   0.986  10.904   2.508 -0.4176 -0.0261  0.2101
15521W        W34375  14.876   6.086   5.467  0.0100 -0.1055 -0.2851
15522W        W34376   6.130  16.595  12.405  0.3255 -0.0061 -0.1141
15523W        W34377   9.732   7.644   0.864 -0.0024  0.1415 -0.1837
15524W        W34378  11.823  11.213   6.044 -0.1801 -0.3162  0.2103
15525W        W34379   7.881   6.804  17.090  0.1424 -0.1926  0.2897
15526W        W34380  12.584  17.303  12.791  0.1965  0.0020  0.0810
15527W        W34381  10.696   0.193  14.794 -0.1507  0.1399 -0.4253
15528W        W34382  16.004  16.713  14.174 -0.0589 -0.1053  0.0624
15529W        W34383   0.290  14.576  16.507  0.0720  0.0338 -0.1467
15530W        W34384  12.428  15.059  15.894  0.0878 -0.0115  0.0109
15531W        W34385   3.802  12.386  12.458  0.2889  0.2046 -0.0819
15532W        W34386   7.166  15.839  12.456 -0.0685 -0.0466 -0.0949
15533W        W34387   0.765  10.276   0.543 -0.1757 -0.0637 -0.4527
15534W        W34388  13.683  12.002  15.536 -0.2493  0.1088  0.2324
15535W        W34389   4.332   3.139   5.280  0.1365  0.0222  0.1433
15536W        W34390   6.518   2.965   4.788  0.3626  0.0327 -0.0210
15537W        W34391  13.615   9.143   4.166 -0.1626  0.4060  0.2558
15538W        W34392   0.306  12.519   5.229  0.4010  0.1603 -0.0653
15539W        W34393   4.844  12.092   4.238  0.1784 -0.1561 -0.1305
15540W        W34394  10.464  14.441  13.722  0.0461 -0.0007 -0.0464
15541W        W34395   9.159  15.477   2.884  0.1870  0.1550 -0.1913
15542W        W34396   2.476   4.091   3.249  0.0967  0.2969 -0.1376
15543W        W34397   2.830  11.156  14.699 -0.0081  0.0390 -0.0849
15544W        W34398   0.292   5.003   0.780  0.0087  0.0420  0.2804
15545W        W34399   6.860  10.583   0.843 -0.0808 -0.0043 -0.3144
15546W        W34400  15.577   9.117   2.084  0.3006  0.0587 -0.2277
15547W        W34401   8.775  11.624  17.226  0.1358 -0.0710 -0.1728
15548W        W34402  13.052   6.388   3.693 -0.1208  0.2358 -0.2474
15549W        W34403   0.411   2.317   3.146  0.0986 -0.2054  0.1877
15550W        W34404   8.398   9.839  12.607  0.0535  0.1319  0.1075
15551W        W34405   0.834   5.869  15.186 -0.1706 -0.1661 -0.0614
15552W        W34406   7.233   7.347   2.492  0.1919 -0.0701  0.2161
15553W        W34407  10.524   9.830  14.392  0.1230 -0.1032  0.1663
15554W        W34408   9.383   9.400   1.096 -0.0460 -0.0174 -0.1172
15555W        W34409   3.869   2.324   1.082  0.1129 -0.0248 -0.0392
15556W        W34410   1.218  13.901   1.920  0.3535  0.1909  0.0966
15557W        W34411  11.414   8.023  15.755  0.1752  0.0649 -0.2090
15558W        W34412   3.223   2.734  13.639  0.1097 -0.2271 -0.0385
15559W        W34413   1.216  10.953  12.937 -0.0169  0.2485 -0.1087
15560W        W34414   9.002   7.771  16.210  0.1199 -0.0406  0.1259
15561W        W34415   0.437  10.272   6.031 -0.0277  0.1180 -0.1517
15562W        W34416   1.366   6.148  14.189  0.1964  0.3182  0.1110
15563W        W34417  16.841   7.262  13.227  0.1377 -0.0121 -0.0894
15564W        W34418  16.514   8.558  13.913  0.1280 -0.3442 -0.0279
15565W        W34419  10.700   3.876  13.474  0.2569 -0.2461  0.0543
15566W        W34420   9.646   3.212   2.854  0.1396  0.0675 -0.1079
15567W        W34421  13.201  17.355   3.577  0.0528  0.1355 -0.4285
15568W        W34422  11.919   9.862  14.477  0.3386  0.2373  0.5155
15569W        W34423  10.448  13.685  12.431 -0.0899  0.0141 -0.4519
15570W        W34424   3.689  14.890   2.086 -0.2968 -0.2363  0.0343
15571W        W34425   3.295  16.598   0.519 -0.2663 -0.1142  0.0971
15572W        W34426  13.169   6.658  16.026  0.0463  0.1144  0.0569
15573W        W34427  16.340  14.812   2.791 -0.1901  0.1905 -0.2360
15574W        W34428   9.027   1.857  15.538  0.1207  0.1067  0.2284
15575W        W34429   0.122  15.841  14.397 -0.0872 -0.1090  0.0140
15576W        W34430   1.966  15.544   3.455  0.0589  0.2612 -0.0160
15577W        W34431   0.996   6.993  13.835 -0.0527 -0.0808  0.2556
15578W        W34432   7.375  11.895   5.247  0.0662  0.0123 -0.1946
15579W        W34433  11.954   5.150  14.495  0.3791  0.0865 -0.0000
15580W        W34434  10.911  14.682   2.839 -0.1557  0.1756  0.1375
15581W        W34435   3.840   4.789   0.211  0.1795  0.1906 -0.1732
15582W        W34436   7.961   2.848  17.296 -0.0906 -0.0107 -0.0867
15583W        W34437   5.825   4.684   0.686  0.0034  0.1063 -0.0140
15584W        W34438  13.456   1.696  12.737 -0.1141 -0.1437  0.0233
15585W        W34439  13.124   2.391  16.794  0.0044 -0.0105  0.0244
15586W        W34440   8.220  11.106   3.755  0.1515  0.0007  0.3259
15587W        W34441  14.787   6.733   0.860  0.0426  0.3927 -0.1316
15588W        W34442   1.553   6.261  17.091 -0.2838  0.3029 -0.0739
15589W        W34443   9.979   5.816  13.946 -0.0976 -0.1416 -0.0102
15590W        W34444  14.498  12.789  13.961  0.2442  0.1904 -0.1360
15591W        W34445  13.107   3.078   1.577 -0.0995 -0.3835 -0.0333
15592W        W34446   7.707   9.547  11.991 -0.0421  0.0761  0.1206
15593W        W34447   0.602   2.073  16.850  0.0607 -0.0622  0.0115
15594W        W34448  14.457  11.518  16.181  0.1369 -0.0495 -0.3547
15595W        W34449   9.145   2.723  13.544  0.4522  0.2015 -0.0491
15596W        W34450  11.912   7.188   2.464  0.3385 -0.3281  0.1375
15597W        W34451   0.741   1.229   4.034 -0.2395 -0.1731 -0.1017
15598W        W34452  11.639   3.989  13.208 -0.2735  0.0604 -0.0227
15599W        W34453  12.566  16.571   2.435 -0.0166 -0.1406  0.1538
15600W        W34454   8.388   3.275  13.027 -0.1176  0.0151 -0.0198
15601W        W34455  10.445  16.563  14.660  0.2037  0.0044 -0.0651
15602W        W34456   0.459   9.012  17.141  0.0747  0.0710 -0.2022
15603W        W34457  14.612  13.826   0.629 -0.3304 -0.0611  0.2569
15604W        W34458   1.332  14.558  12.654  0.0736 -0.0714  0.4114
15605W        W34459   9.636   7.785  15.881 -0.0977 -0.2547  0.0116
15606W        W34460  11.576   7.068  17.206 -0.1575  0.2720  0.0035
15607W        W34461   5.897   9.992   0.700  0.2310 -0.1954 -0.1528
15608W        W34462   2.394   3.801   4.105 -0.0565 -0.2406 -0.0253
15609W        W34463  17.305  17.111   3.739 -0.1118  0.2198 -0.1651
15610W        W34464  13.864  15.576   1.874 -0.1544  0.0920  0.2266
15611W        W34465  13.780   2.232   4.954  0.2355  0.1062 -0.0880
15612W        W34466  16.980   0.679  15.290  0.0071 -0.1718 -0.3018
15613W        W34467   8.609   5.764   0.476 -0.0706 -0.0795 -0.1419
15614W        W34468   2.731   6.751   5.319 -0.2487  0.0233  0.1799
15615W        W34469   9.564   5.000  15.031  0.2072 -0.1940 -0.3583
15616W        W34470  12.538  16.317  13.361  0.1243  0.0631 -0.1782
15617W        W34471  12.358  17.391  15.863 -0.0574  0.5825  0.1379
15618W        W34472  13.211   9.330   2.830 -0.1950 -0.2281 -0.2902
15619W        W34473  12.471   3.629   4.024 -0.0958 -0.0267 -0.1178
15620W        W34474   0.554  11.333   5.249  0.0519 -0.1432 -0.0234
15621W        W34475  17.122  17.302  15.791  0.2442 -0.2351 -0.3796
15622W        W34476  10.358   9.315  15.853  0.3400  0.0076  0.0127
15623W        W34477   3.955  14.969  15.882  0.1628 -0.0529  0.0078
15624W        W34478   2.007  14.188   2.270 -0.2389 -0.0352 -0.0917
15625W        W34479   1.524  11.838   3.167  0.2937  0.2862  0.0109
15626W        W34480   0.505  15.799  17.351 -0.4069 -0.1422  0.1882
15627W        W34481   8.659   8.877   2.073  0.2173  0.0565 -0.1493
15628W        W34482   9.161   5.618  16.076 -0.2211  0.0573  0.0939
15629W        W34483  15.197   3.204  13.921 -0.1615  0.0543  0.2518
15630W        W34484   1.414   8.267  12.649  0.1635  0.1446  0.2191
15631W        W34485  12.948   9.491   5.108  0.1087 -0.0915  0.1139
15632W        W34486   4.518   7.426   5.071 -0.2733  0.0141 -0.1393
15633W        W34487   1.993   3.389   5.203 -0.0673  0.0063  0.2836
15634W        W34488   8.370  15.922   1.602  0.3265 -0.0636 -0.1857
15635W        W34489  12.593   2.557   1.528 -0.1729 -0.1354 -0.2012
15636W        W34490   7.485  15.688  14.933  0.2427 -0.0384  0.0180
15637W        W34491   2.951   7.976   3.488  0.0762 -0.0133  0.2008
15638W        W34492  15.722   9.529   1.191 -0.3694  0.0022 -0.0772
15639W        W34493   0.395   7.872   1.387  0.2699 -0.2161 -0.1146
15640W        W34494   9.758   6.899  16.805  0.2547  0.0171  0.0496
15641W        W34495  16.824   0.315  15.674  0.2869 -0.2599 -0.1891
15642W        W34496   7.640  11.687  16.880  0.2733 -0.0204 -0.3207
15643W        W34497   3.666   9.997  13.365  0.1419  0.1788  0.1023
15644W        W34498   0.019   7.638  17.103  0.0828  0.1914 -0.3253
15645W        W34499   9.000   6.087   4.933 -0.0194  0.0160 -0.0216
15646W        W34500  13.936  15.072   2.531  0.4125  0.2032 -0.0292
15647W        W34501  11.509  11.697   2.200  0.2025  0.1597  0.2662
15648W        W34502  11.253  17.094  15.506 -0.1587  0.0569 -0.1510
15649W        W34503   0.830  11.776  16.203  0.4012 -0.0331 -0.2147
15650W        W34504  12.565   7.670  15.148 -0.1533 -0.2357 -0.2753
15651W        W34505  13.576   7.231   3.814  0.0189 -0.1914  0.0441
15652W        W34506   6.820  13.194   2.606 -0.1213 -0.1716  0.1824
15653W        W34507   8.885   2.285  13.825 -0.0774  0.1431  0.1508
15654W        W34508   3.504  15.944   1.168 -0.0117 -0.1736  0.0005
15655W        W34509   3.703  16.815   2.495  0.1914  0.1519 -0.0545
15656W        W34510  14.301  13.058  14.541  0.0659  0.1509  0.2435
15657W        W34511   0.017   9.362  17.315  0.0903  0.0939 -0.3748
15658W        W34512   9.446  12.557  12.029  0.2168 -0.2555  0.2115
15659W        W34513  14.034   0.699   5.358  0.2038 -0.0640 -0.1346
15660W        W34514   6.566   3.539  14.035  0.1542  0.3022 -0.1531
15661W        W34515   9.397  10.983  12.384  0.1690  0.0053 -0.0715
15662W        W34516  15.930  12.681  15.267 -0.1012 -0.0102  0.1824
15663W        W34517   9.918   1.679  16.936  0.0523 -0.2168  0.1609
15664W        W34518  10.405  11.030  14.213 -0.1485 -0.0758  0.0863
15665W        W34519  11.986  13.226   4.672  0.0419 -0.1210 -0.0930
15666W        W34520   9.754   9.807  16.694  0.0956  0.1697 -0.1147
15667W        W34521   4.288  16.313  16.186 -0.0900  0.0460  0.0730
15668W        W34522  13.450   2.240   4.084  0.1601  0.1124 -0.1762
15669W        W34523  11.609   8.075  12.310  0.0634 -0.0743  0.0927
15670W        W34524   3.877  15.769  15.644 -0.0248  0.0078 -0.1740
15671W        W34525   3.426  16.343  16.192  0.2394  0.1057  0.1583
15672W        W34526   0.569  10.165  15.389 -0.1475  0.0223 -0.1384
15673W        W34527  13.333  16.073   1.142  0.0748  0.1008 -0.1627
15674W        W34528   4.833  12.472   1.283 -0.2923 -0.3174  0.2679
15675W        W34529  16.788  11.192   4.857  0.3002  0.1773  0.1740
15676W        W34530   4.508   8.766  13.233 -0.0323  0.1236  0.2013
15677W        W34531  10.010  12.795  12.659  0.3010 -0.0535  0.2096
15678W        W34532   1.941   0.915  16.274  0.0057 -0.2278  0.2360
15679W        W34533   2.755   6.973   2.515 -0.1766  0.2460 -0.1116
15680W        W34534  15.697   9.416  16.431  0.2531  0.3559 -0.0674
15681W        W34535   0.060  14.283  12.805 -0.4616  0.3059  0.0539
15682W        W34536   8.839  16.250  16.456 -0.3533 -0.1107 -0.2009
15683W        W34537   1.062  17.272  13.601 -0.1047  0.0407  0.1409
15684W        W34538   2.173  12.910   3.833  0.0338  0.0963 -0.0144
15685W        W34539  12.927  10.498   4.364  0.1172 -0.0698  0.3063
15686W        W34540   0.999   9.587   4.927 -0.1677  0.0773  0.0212
15687W        W34541   1.213  16.904   1.142  0.0144  0.4420  0.1125
15688W        W34542   7.305   9.499   5.875  0.2052 -0.1043 -0.0315
15689W        W34543   1.477   9.752   0.633  0.1422  0.2780  0.3522
15690W        W34544   3.702  11.565   4.620  0.0495 -0.0505  0.4566
15691W        W34545  14.694   3.454  14.746 -0.0914  0.0265 -0.0500
15692W        W34546   0.401   0.844  15.233  0.2396 -0.0292 -0.0803
15693W        W34547  12.363  13.752  16.429  0.2930 -0.0766  0.0263
15694W        W34548   7.691   3.814  15.739  0.0175 -0.0944  0.0451
15695W        W34549   2.587  15.884  12.187  0.1565 -0.0044  0.1156
15696W        W34550  17.081   2.128   4.396 -0.0548  0.2120  0.1239
15697W        W34551   5.503   1.516   2.537  0.1660  0.0478  0.0592
15698W        W34552   5.165   1.585  12.607  0.2054  0.0643  0.2443
15699W        W34553   1.839  16.701   1.882  0.0259 -0.1307 -0.0406
15700W        W34554  11.422   5.504   3.906  0.1500 -0.0303 -0.0657
15701W        W34555  12.336  10.321   1.321  0.0402 -0.2060  0.2542
15702W        W34556   5.111   9.530  13.450 -0.0592  0.0441  0.0060
15703W        W34557  10.002   4.498  13.429  0.0562  0.2541 -0.0529
15704W        W34558   7.142   4.364  17.431 -0.0603 -0.1043  0.1112
15705W        W34559  10.472   1.846   1.905  0.0037  0.2303 -0.2897
15706W        W34560  13.791  14.927  12.794  0.1451 -0.0581  0.0989
15707W        W34561  12.702   3.301   0.715 -0.0817  0.1129  0.3305
15708W        W34562  13.675   3.917   1.871  0.1937  0.0034 -0.2950
15709W        W34563  16.274   7.557  15.010 -0.0992  0.1101 -0.1242
15710W        W34564   9.380   9.308   5.301 -0.0220  0.0351  0.0571
15711W        W34565   1.492  14.164   1.480 -0.3803  0.2363  0.0100
15712W        W34566   3.023  11.058   5.107 -0.1075  0.1195  0.1096
15713W        W34567   2.052  13.177   0.588 -0.0483 -0.1423  0.2658
15714W        W34568  17.280   9.385   2.778  0.1215  0.1414  0.0911
15715W        W34569   1.394  11.461  16.795 -0.0387 -0.3011 -0.0103
15716W        W34570   2.767  14.568  12.439 -0.1632  0.2255  0.1737
15717W        W34571  13.683   8.996  15.433 -0.1369  0.2649  0.1705
15718W        W34572   1.942  16.111  15.108 -0.0796  0.0287 -0.2675
15719W        W34573  15.498  12.639   1.290 -0.0928 -0.1180 -0.0459
15720W        W34574   9.746   5.533   3.209  0.0387  0.1044  0.0436
15721W        W34575  12.106   3.245   4.625  0.2513 -0.0415 -0.2125
15722W        W34576  14.627  15.467   0.215 -0.1190 -0.2160 -0.1882
15723W        W34577  11.992  13.399  13.371 -0.0016  0.1729 -0.2431
15724W        W34578   3.686  13.697  15.014 -0.2865  0.3727  0.0664
15725W        W34579  11.377   5.621  13.486 -0.0107 -0.3148  0.0520
15726W        W34580   4.103  16.287   0.887  0.0524  0.1006 -0.2792
15727W        W34581   1.545   6.336   5.456 -0.1799  0.0884  0.3597
15728W        W34582   1.912   3.916  16.622 -0.1788 -0.0955  0.1257
15729W        W34583  12.569  10.672   1.080  0.2193 -0.1935 -0.5488
15730W        W34584   4.084   3.951  14.704 -0.0313 -0.0767  0.1299
15731W        W34585   0.074  12.623  16.277  0.0425 -0.0911  0.0459
15732W        W34586   7.293  11.392  12.807 -0.0960 -0.1369 -0.4358
15733W        W34587  16.027  10.669  13.808  0.0835  0.1452 -0.2020
15734W        W34588   6.323   8.844   2.307  0.0322 -0.2748 -0.0709
15735W        W34589  17.166   6.272  12.736 -0.1145  0.0579 -0.0796
15736W        W34590  13.322   4.596  15.436  0.2011  0.1006 -0.1046
15737W        W34591  10.729  13.730   1.718 -0.0133  0.1400  0.0279
15738W        W34592   3.462  12.065  17.057  0.0612  0.0210  0.3568
15739W        W34593   4.449   2.653  13.149 -0.2332 -0.2101  0.1273
15740W        W34594   7.732   5.367  16.521 -0.2233 -0.1374 -0.0934
15741W        W34595  16.442   6.346  14.729  0.0371  0.2406 -0.1269
15742W        W34596   7.543   6.394   1.273  0.0786 -0.2293 -0.1416
15743W        W34597   1.668  10.290  14.741 -0.0150  0.1995 -0.4478
15744W        W34598  11.327   6.704  16.994  0.1707 -0.1052  0.0940
15745W        W34599  14.915  11.757  14.839  0.1039  0.2901  0.0753
15746W        W34600  16.100   7.977   0.257  0.1385  0.2749  0.0882
15747W        W34601  13.303  16.960   3.242 -0.2253 -0.1328 -0.3418
15748W        W34602  16.227  16.323  13.495  0.1524 -0.0045  0.1656
15749W        W34603  14.353  15.936   5.053 -0.1528  0.1004 -0.0202
15750W        W34604   6.105  14.908   1.586 -0.0585  0.0003 -0.3620
15751W        W34605   7.858  13.425  13.694 -0.1603  0.2930  0.1345
15752W        W34606  11.330  12.919   3.005  0.1659  0.1469  0.1596
15753W        W34607   5.953   9.832  15.755 -0.2057 -0.0402  0.2462
15754W        W34608   9.389   8.669  16.026  0.4544  0.0496 -0.2051
15755W        W34609   5.638   0.644   3.143  0.0984  0.1038 -0.1238
15756W        W34610  14.044  16.430  16.890  0.0825  0.2681 -0.2246
15757W        W34611   1.369   9.401   5.258  0.1600  0.0290  0.0495
15758W        W34612  13.763  14.969   5.249  0.3615  0.0842 -0.1052
15759W        W34613  10.349   5.408  13.067  0.2294 -0.0616 -0.0507
15760W        W34614  11.384  14.717  13.282  0.2318 -0.0142  0.0764
15761W        W34615   6.217   3.847  13.848 -0.3281  0.0020 -0.0011
15762W        W34616  11.459   3.851   1.332  0.1120  0.1813  0.0660
15763W        W34617  11.300   1.778   0.386  0.0304  0.0049 -0.0178
15764W        W34618   1.575   3.371  13.798  0.0295 -0.0960  0.1597
15765W        W34619  12.120   6.953  14.549  0.0386 -0.2903 -0.1065
15766W        W34620   3.077  12.807   4.898 -0.2074  0.2312 -0.2525
15767W        W34621  15.324   6.261  16.372 -0.0474 -0.1758  0.0030
15768W        W34622  13.071   5.013  14.543  0.0376 -0.0732  0.0129
15769W        W34623   0.671   4.388   2.240  0.2571 -0.1087 -0.0159
15770W        W34624   4.588  14.684   0.530  0.1851 -0.1968  0.1039
15771W        W34625  15.286  15.793  12.181  0.1900  0.0408  0.2157
15772W        W34626   2.874   7.772   3.961  0.0869  0.0797 -0.0153
15773W        W34627   6.283  14.831  15.279 -0.1934  0.0037 -0.1330
15774W        W34628  14.336   5.812  16.500  0.2842 -0.1901  0.1309
15775W        W34629   2.160  14.751   5.189 -0.0836 -0.4229  0.0436
15776W        W34630   5.996  12.992  15.769 -0.0481 -0.1756  0.1177
15777W        W34631  10.437   2.022   0.579  0.3284  0.0829  0.1971
15778W        W34632   2.287  15.028  12.760  0.0529  0.2685  0.2220
15779W        W34633   6.805   8.604   0.825  0.0441  0.0148 -0.0508
15780W        W34634   9.238   0.195  13.402  0.2077 -0.2503  0.1726
15781W        W34635   9.384   3.043   0.609 -0.3565  0.1983 -0.4297
15782W        W34636  16.505   3.165  13.979  0.0784  0.3553 -0.1214
15783W        W34637   1.025  10.353   5.266 -0.0009 -0.1335 -0.0145
15784W        W34638   8.364   1.234  16.510 -0.2295 -0.2833  0.2863
15785W        W34639   2.552   1.130  14.349 -0.2774 -0.0577  0.0772
15786W        W34640   9.943  11.115   5.244 -0.0178  0.1019 -0.1327
15787W        W34641   0.268  13.731  12.101 -0.1806  0.0661 -0.0676
15788W        W34642  14.827  16.645  12.721  0.2225  0.2530 -0.2437
15789W        W34643   7.153   1.391  13.060 -0.1026  0.0571 -0.0184
15790W        W34644  10.526   3.335   5.681 -0.1552 -0.0965  0.0149
15791W        W34645   0.057  14.593   4.144  0.2033 -0.0758  0.0265
15792W        W34646  11.139   0.096   0.244 -0.0420 -0.0491  0.2454
15793W        W34647   5.766   6.348  13.966 -0.0509  0.0190 -0.0462
15794W        W34648   1.547   2.491   3.969  0.4336 -0.0889  0.0529
15795W        W34649   0.480  12.928  12.745 -0.2127  0.1448  0.1123
15796W        W34650  12.309  13.133  13.854  0.2710  0.0149 -0.1771
15797W        W34651   1.968  15.936   0.570 -0.1980  0.0370  0.0473
15798W        W34652   2.632   2.460  15.811 -0.2125 -0.1244  0.4014
15799W        W34653   4.271   9.528   2.579  0.2131  0.1128 -0.2828
15800W        W34654  13.734   6.095   4.503 -0.1566 -0.0430  0.0261
15801W        W34655  15.071   4.523   4.012 -0.1528  0.0375 -0.3348
15802W        W34656  14.019  12.833  12.998 -0.0264 -0.0853 -0.1519
15803W        W34657   9.559  11.129   4.268  0.0356  0.1558 -0.0414
15804W        W34658  12.406   8.111  15.581  0.0349  0.2695 -0.0983
15805W        W34659   4.913   3.600   3.672 -0.0950  0.0467  0.3482
15806W        W34660   1.674  12.594   2.355  0.1325 -0.0187  0.1068
15807W        W34661   6.973   3.237   4.756 -0.0180 -0.2033  0.2602
15808W        W34662   0.072   1.906   3.374  0.1452 -0.1014  0.1803
15809W        W34663   0.405  16.007   4.529 -0.0581 -0.0801  0.0272
15810W        W34664   6.015  11.838  14.473 -0.1884  0.3721 -0.0527
15811W        W34665  15.644  15.116   1.134 -0.1809 -0.1061  0.4740
15812W        W34666  12.407   2.487  14.906 -0.6292 -0.2128 -0.3162
15813W        W34667   3.803  12.365   1.123 -0.0222  0.2436  0.2210
15814W        W34668   7.446  16.072   0.219 -0.0563  0.1742  0.0722
15815W        W34669   4.681  11.295   1.142  0.0251 -0.1726  0.2686
15816W        W34670  14.190  13.763  13.008  0.1597  0.1175 -0.0995
15817W        W34671  10.186   2.158   4.715 -0.4512  0.2108 -0.0824
15818W        W34672  10.782   0.334   3.429 -0.0964  0.0652  0.0961
15819W        W34673   2.186   5.285  15.556  0.1560 -0.0219  0.0716
15820W        W34674  15.591  11.545   5.368 -0.0862  0.0708  0.0292
15821W        W34675   6.266  13.015   1.380  0.1727  0.1322  0.0955
15822W        W34676   1.501   8.332   2.147 -0.0990 -0.0643 -0.0557
15823W        W34677   4.790   6.977   1.046 -0.0205  0.0927 -0.2019
15824W        W34678   0.542   6.718   0.253 -0.1526  0.3991 -0.2244
15825W        W34679   2.103   2.489  15.697  0.2404 -0.1821  0.0216
15826W        W34680  13.784   1.693  14.372  0.1586  0.0888  0.0927
15827W        W34681  13.662   7.717   3.752  0.0725 -0.1371  0.0532
15828W        W34682   7.676   9.860   3.510 -0.3235  0.1032  0.2337
15829W        W34683   8.181   8.911  15.792  0.0222  0.0799  0.0683
15830W        W34684   4.632   5.647  12.825  0.1419  0.1102  0.0339
15831W        W34685  15.943   8.151   3.546 -0.1434 -0.0304  0.0282
15832W        W34686  11.312   7.972  13.306 -0.3012 -0.0894 -0.1928
15833W        W34687  15.902  14.592   4.556 -0.2943 -0.0152 -0.0157
15834W        W34688  12.894  16.465  16.470  0.0589 -0.4146 -0.0056
15835W        W34689   8.367   1.841   2.602  0.0205  0.1424 -0.0462
15836W        W34690   9.140   4.722   4.303 -0.4272 -0.3758  0.0210
15837W        W34691   0.140   4.701  17.139 -0.0646 -0.1478  0.0278
15838W        W34692   4.639   2.203   4.987  0.0716  0.0205  0.2242
15839W        W34693  14.964   0.678  16.086 -0.0392 -0.0538  0.2760
15840W        W34694   0.533   5.269  13.502  0.0818 -0.1731  0.2329
15841W        W34695  12.589  12.604   2.447  0.0304  0.0416 -0.3791
15842W        W34696   3.725  10.976  16.742 -0.3401  0.1736 -0.1094
15843W        W34697  12.903  12.749   2.008 -0.1267 -0.0465  0.2418
15844W        W34698   8.744  17.235   3.057 -0.0845 -0.1884  0.2834
15845W        W34699  11.647   0.201  16.533 -0.0926 -0.3039 -0.5833
15846W        W34700   1.809   6.544  12.346 -0.0919 -0.2655 -0.0127
15847W        W34701   4.497  16.766  16.140 -0.0528  0.1143 -0.1721
15848W        W34702   3.698  12.633   3.736 -0.1838 -0.1553  0.1722
15849W        W34703   8.510   8.813   3.690 -0.1674  0.0764 -0.3771
15850W        W34704  11.480   2.843  12.043  0.0715 -0.1100  0.1225
15851W        W34705   9.851   9.868   4.684 -0.0347  0.0762  0.3092
15852W        W34706   8.762   8.467  15.087  0.0027 -0.0540 -0.0106
15853W        W34707   5.877   9.582   2.078  0.0809 -0.1200 -0.1140
15854W        W34708   6.028   8.717   2.764 -0.1958 -0.2196  0.2115
15855W        W34709   8.494   2.357  16.823 -0.1496 -0.2408  0.1537
15856W        W34710   4.009   1.330  12.995 -0.0534  0.1927  0.2653
15857W        W34711  11.527  16.113  17.314 -0.2196  0.0497  0.1501
15858W        W34712   4.734   8.765  15.761 -0.1431 -0.1205 -0.2083
15859W        W34713   6.654   1.789   4.775 -0.2851 -0.0558  0.0571
15860W        W34714   6.697   4.089   0.561 -0.3970  0.0164 -0.0975
15861W        W34715   9.257  15.877   0.601 -0.1281 -0.0776  0.2956
15862W        W34716   9.760  16.979  13.627  0.2819  0.1613 -0.0838
15863W        W34717  10.837   4.763   0.794 -0.0002 -0.1900 -0.0417
15864W        W34718   8.201   6.202   1.095  0.0262 -0.1029  0.0591
15865W        W34719  12.085   9.914   2.472 -0.1708 -0.0833  0.0371
15866W        W34720   3.135  13.834  12.852  0.0038 -0.0107  0.0357
15867W        W34721   8.771  14.537  12.346  0.1721 -0.1875  0.1197
15868W        W34722   7.849   6.899  14.233 -0.1658 -0.1492 -0.1656
15869W        W34723   1.971  15.947   4.987 -0.1993 -0.1831  0.0472
15870W        W34724   6.470  10.346  12.929 -0.2668 -0.1519 -0.2422
15871W        W34725   5.025  16.997  12.715 -0.4914 -0.0824 -0.0986
15872W        W34726  12.901   2.865   2.335 -0.1942  0.0060  0.0292
15873W        W34727  12.006  11.109   2.827 -0.0775  0.3498  0.0212
15874W        W34728   3.552   4.082   5.013  0.1010 -0.0487  0.1374
15875W        W34729  14.127   5.054   4.927 -0.0988 -0.0863 -0.3807
15876W        W34730  10.854   7.103  14.916 -0.1967  0.2226 -0.1305
15877W        W34731  15.078   5.459  15.848  0.0283  0.3613 -0.1372
15878W        W34732  13.121  15.327  15.074  0.2098  0.1673 -0.2402
15879W        W34733   0.438   1.623  15.796  0.1836  0.0902  0.1237
15880W        W34734  15.526   0.949  13.400 -0.2710  0.2039  0.1529
15881W        W34735   4.328   9.176  14.745 -0.2088 -0.2192  0.2221
15882W        W34736   4.158  12.010  13.697 -0.0967  0.0683 -0.1197
15883W        W34737  14.223  15.449   0.560 -0.0303 -0.0691  0.1514
15884W        W34738   4.639   4.973   5.371  0.1146 -0.1445  0.0980
15885W        W34739   6.154  15.385  16.337 -0.1662  0.1532 -0.1149
15886W        W34740   8.630   0.775  14.375 -0.2727  0.0465  0.2056
15887W        W34741   4.167   1.696   0.042 -0.0041  0.3309 -0.1561
15888W        W34742  16.566   7.563   3.133 -0.1116  0.1825 -0.4355
15889W        W34743   5.655  10.748   3.630  0.0148  0.2440 -0.1866
15890W        W34744   5.436  13.730  12.160 -0.1150  0.0752 -0.0247
15891W        W34745   8.192   2.127  12.211  0.0967 -0.0076 -0.3113
15892W        W34746  10.823  12.952   4.249  0.0273 -0.3847  0.1037
15893W        W34747  12.137   3.690   4.928 -0.4072 -0.1156 -0.3079
15894W        W34748   2.125  10.032  14.722  0.0524 -0.1732 -0.0465
15895W        W34749   4.348  15.762  15.458 -0.0253  0.1757 -0.2811
15896W        W34750  11.093   7.780  15.310 -0.1237  0.0785  0.1992
15897W        W34751   8.886   9.772  15.666 -0.0382  0.0659 -0.2291
15898W        W34752   7.451   4.550  15.406  0.0624 -0.1446 -0.2329
15899W        W34753  16.655  13.436  13.871  0.0080  0.1472 -0.0688
15900W        W34754   1.031   3.059   1.111  0.3985 -0.2510  0.2679
15901W        W34755   2.339  15.509  13.511  0.0734  0.2014 -0.0521
15902W        W34756   9.181  10.874  13.351 -0.0137  0.0388  0.0285
15903W        W34757   6.458   2.449   0.851 -0.0327  0.0962 -0.2081
15904W        W34758  10.591   1.615   3.145 -0.1348  0.1668  0.2508
15905W        W34759  13.589   8.570  13.487  0.1375  0.3163  0.1660
15906W        W34760   5.607  14.767   2.183  0.0571 -0.0341 -0.1596
15907W        W34761   1.260  14.906   0.789 -0.1639 -0.0959 -0.0457
15908W        W34762   1.022  15.695   4.581  0.1446  0.1279 -0.0000
15909W        W34763   2.403   2.237  16.187 -0.0109 -0.1800  0.2365
15910W        W34764   8.168  14.185   5.196 -0.1005 -0.1300 -0.0464
15911W        W34765   2.786  16.587   4.989 -0.1726  0.0797 -0.0163
15912W        W34766  11.577   9.783  13.231 -0.0275 -0.0229 -0.2517
15913W        W34767  14.157   5.631  15.950 -0.1643  0.0166  0.3235
15914W        W34768  16.184   7.227  16.637 -0.0563  0.1139 -0.0072
15915W        W34769   4.820   1.401   1.472  0.1251 -0.2522 -0.2653
15916W        W34770  14.255  17.035  16.890  0.1984  0.4462 -0.0065
15917W        W34771   6.600   0.997  16.081  0.1407  0.0965  0.3884
15918W        W34772   9.793  16.315   2.606 -0.1256  0.0475 -0.0068
15919W        W34773   7.580   9.916  14.348  0.1355 -0.1855  0.1266
15920W        W34774  11.075   6.849   0.525 -0.0868  0.0992  0.1777
15921W        W34775   4.111  16.862   4.071 -0.1999 -0.0351  0.1421
15922W        W34776  12.924  15.187  17.363 -0.1296  0.3404  0.2019
15923W        W34777   5.271   0.963   2.843  0.2320 -0.0309 -0.1591
15924W        W34778  16.271  11.336   4.787  0.2087  0.1119  0.2837
15925W        W34779   3.889   1.361  15.506  0.2152 -0.2046 -0.1067
15926W        W34780  17.348  13.861   2.373  0.0742  0.1159  0.3230
15927W        W34781   6.525  14.969   3.595  0.3139 -0.1402  0.2080
15928W        W34782   2.007   8.787   2.271  0.0575 -0.1897 -0.2002
15929W        W34783   3.638   7.482  12.828  0.0526  0.0984 -0.0180
15930W        W34784   5.165   6.309   3.557  0.0021  0.1304  0.2424
15931W        W34785   3.256   8.502  15.410  0.1320 -0.1072 -0.1186
15932W        W34786  14.629  10.223   2.683  0.0053 -0.2844  0.0278
15933W        W34787  14.197   2.219   1.570 -0.0489 -0.3934 -0.0858
15934W        W34788   1.935  11.042  13.583  0.0526  0.2802  0.0652
15935W        W34789   4.375  12.663   5.421 -0.3251  0.2415  0.1661
15936W        W34790   7.415   0.976   0.190 -0.2370  0.0183 -0.0109
15937W        W34791   6.308   0.074   3.439  0.0841 -0.2465 -0.1157
15938W        W34792  14.856   4.937  16.653 -0.1282 -0.2543 -0.1931
15939W        W34793  15.103  13.814  16.567 -0.0104 -0.1748  0.1899
15940W        W34794   2.096  11.654   2.305  0.1119  0.1642 -0.1462
15941W        W34795  16.758   5.174   3.220  0.0146 -0.0920  0.4367
15942W        W34796   0.763   3.732   4.790  0.0630  0.0532  0.1512
15943W        W34797  14.333  17.389   2.384 -0.0888 -0.4092 -0.1144
15944W        W34798  16.569   1.152   2.163  0.0980  0.3597  0.0590
15945W        W34799   6.173  10.653  13.191  0.1537 -0.0669 -0.1298
15946W        W34800  12.774  12.209   3.298  0.0527  0.1839 -0.3107
15947W        W34801  12.485   0.384   0.229  0.3697  0.0294 -0.0755
15948W        W34802  15.634  16.420   3.922 -0.0157  0.3346  0.3443
15949W        W34803   0.836   3.763  12.765  0.2212  0.1073  0.1959
15950W        W34804   6.190   0.298   1.372  0.1006  0.2004  0.0980
15951W        W34805   2.646   0.075   0.531 -0.2474  0.1583 -0.0910
15952W        W34806   2.527   1.353   1.764  0.1265 -0.1248 -0.0696
15953W        W34807   3.487   6.475   1.843  0.0710 -0.0328  0.1416
15954W        W34808  16.270  12.435  14.942  0.1203 -0.2739  0.0436
15955W        W34809   5.247   4.642   1.836 -0.0156  0.1876  0.0079
15956W        W34810   9.993  11.054  16.609  0.0908  0.0794 -0.1068
15957W        W34811  15.113   8.557   2.212 -0.1317 -0.0563 -0.0285
15958W        W34812  15.281  12.977  12.736 -0.1598 -0.0202 -0.0064
15959W        W34813  15.593   7.692   0.997 -0.2932  0.0748 -0.0783
15960W        W34814   4.844   1.543   1.960 -0.0142 -0.0010 -0.0317
15961W        W34815   2.619   9.854   4.767 -0.1836  0.3321 -0.0107
15962W        W34816   2.425  13.738  16.847 -0.2077 -0.1228 -0.2112
15963W        W34817   6.937   3.096  13.046  0.2389 -0.0805  0.1370
15964W        W34818  12.642   5.585  15.309 -0.1192  0.0186 -0.2565
15965W        W34819   6.601  14.204   1.324  0.1965 -0.0175  0.0275
15966W        W34820   6.981  10.029   1.876 -0.3207  0.2037 -0.3102
15967W        W34821   7.438   7.285   2.020  0.0976  0.1164 -0.1030
15968W        W34822   4.013  14.766  13.607  0.0630  0.0083 -0.0881
15969W        W34823   0.509   6.544  13.921 -0.2541 -0.0705 -0.0459
15970W        W34824   5.755  13.945   4.161 -0.0647  0.0628 -0.0712
15971W        W34825   3.576  14.486  16.498 -0.0840 -0.0818  0.0285
15972W        W34826   7.261   6.209  14.368 -0.0284 -0.4016 -0.1264
15973W        W34827  12.941   1.524  15.739 -0.1427  0.0773 -0.1073
15974W        W34828  12.069   0.796  13.278  0.1603 -0.1828 -0.1018
15975W        W34829   5.051   4.618   0.053 -0.1169 -0.0849 -0.1621
15976W        W34830  14.999   1.472  12.763  0.2986  0.2366 -0.0898
15977W        W34831   9.182  10.743   2.065  0.0685 -0.0689  0.2896
15978W        W34832   8.693   5.201   4.110 -0.1644  0.1076 -0.1476
15979W        W34833   3.144   2.019  12.845  0.1071 -0.2594  0.0607
15980W        W34834   2.305   8.276  17.331 -0.0370 -0.2408 -0.0051
15981W        W34835  12.687   4.017  12.836  0.1350 -0.1383  0.3318
15982W        W34836   0.447   9.484  13.551 -0.1671 -0.3206  0.5607
15983W        W34837   2.003  17.070  15.780 -0.0349 -0.2426  0.0768
15984W        W34838  14.556   9.279   5.160  0.2956  0.3168 -0.2126
15985W        W34839  11.990  13.557  15.672 -0.2968  0.2428 -0.1789
15986W        W34840   1.566   1.008   4.953 -0.1471  0.1371  0.0637
15987W        W34841  14.011  10.246   2.780  0.0542  0.1320  0.1084
15988W        W34842   6.654   3.634   1.817  0.3476 -0.1455  0.1188
15989W        W34843   4.461  13.544  17.108  0.1782 -0.0323  0.0920
15990W        W34844   3.144   8.570  13.763 -0.1342 -0.4754  0.0408
15991W        W34845   5.835   5.662  16.781 -0.3258 -0.0339  0.1289
15992W        W34846  14.164   6.166  17.331 -0.0696 -0.0174  0.3083
15993W        W34847  17.149   2.347  13.328 -0.1203  0.2788  0.0244
15994W        W34848  12.672   8.155   5.521  0.0276 -0.0686  0.2992
15995W        W34849  14.152   7.107   0.081 -0.0349  0.2263  0.4270
15996W        W34850  11.769   2.399  13.848 -0.0533 -0.0643  0.0681
15997W        W34851   2.643   8.806   3.069 -0.3885 -0.2214  0.1679
15998W        W34852  13.235   6.251   0.370 -0.0393  0.1191  0.1238
15999W        W34853   6.473   6.466  14.626 -0.1088  0.0538  0.1785
16000W        W34854   3.789   6.163   0.549  0.0966  0.0745 -0.2890
16001W        W34855   7.824   6.918  12.804 -0.0894 -0.1251 -0.2581
16002W        W34856   2.087   4.329   1.099 -0.0283  0.0348  0.1507
16003W        W34857   5.902   9.451  12.926 -0.5347  0.0060  0.0105
16004W        W34858  10.292  12.639   0.949 -0.0516 -0.1829  0.0447
16005W        W34859   6.938   5.730   2.978 -0.0528 -0.0279  0.0085
16006W        W34860  14.658  15.635   4.561 -0.2194  0.1275 -0.2532
16007W        W34861   3.112   1.458   0.066 -0.0830  0.3457  0.1628
16008W        W34862   5.051  14.840   1.712  0.2145 -0.0519 -0.0863
16009W        W34863  13.757   0.865  12.647 -0.1709 -0.1428 -0.2893
16010W        W34864   3.098   0.005  15.505  0.1032  0.3066 -0.2494
16011W        W34865   2.015   2.000   1.790 -0.0465  0.0877 -0.0337
16012W        W34866  14.873  13.694   3.737  0.3749 -0.2619 -0.0246
16013W        W34867   6.438  11.118   2.990 -0.3043  0.2137 -0.2141
16014W        W34868   4.207   7.168  13.930  0.3637  0.5241  0.3337
16015W        W34869   5.293   7.424  12.904  0.0078 -0.3888 -0.0849
16016W        W34870   6.098  15.297   5.017 -0.0478  0.2791 -0.3019
16017W        W34871   0.354   4.831  15.399  0.2893  0.1611  0.1411
16018W        W34872  13.067  14.570   4.483  0.3366  0.0026 -0.3037
16019W        W34873  13.005   8.241   2.492 -0.2189  0.2025 -0.0969
16020W        W34874   0.441  12.576   4.611  0.0172  0.0280 -0.0936
16021W        W34875   2.920  13.188   0.275  0.0207  0.2399  0.0881
16022W        W34876   4.603  12.384   1.958  0.2566 -0.2599  0.0150
16023W        W34877   5.181   8.905   5.601  0.1920  0.0276  0.0657
16024W        W34878  14.228  10.335  14.442 -0.1562  0.2597 -0.0196
16025W        W34879  12.561  17.230   0.990  0.0658  0.0176 -0.1306
16026W        W34880  14.989   5.326   4.526 -0.0320  0.0237  0.0693
16027W        W34881  16.065  16.378   1.962  0.1533 -0.2641 -0.3672
16028W        W34882   2.256   3.738   2.343 -0.1796 -0.1100 -0.2523
16029W        W34883   9.469   2.152   1.721  0.2359 -0.0296 -0.0497
16030W        W34884  10.946   9.591   3.076 -0.1211 -0.1318 -0.0236
16031W        W34885  16.088   7.870   1.012 -0.2333  0.1132  0.4001
16032W        W34886   2.935  12.593   1.699  0.0052  0.0266 -0.0238
16033W        W34887  14.979   8.224   3.174 -0.1882 -0.2763  0.0710
16034W        W34888   6.576  10.551  15.795 -0.2439  0.0412 -0.3339
16035W        W34889   1.575   8.211   3.089  0.0700  0.0413  0.2709
16036W        W34890  10.946  16.577  16.896  0.1794 -0.0666 -0.0822
16037W        W34891   1.445  13.298   2.749 -0.1523  0.1344 -0.2035
16038W        W34892  13.965   0.211   1.139  0.0802 -0.0021  0.1292
16039W        W34893   1.292   0.157   2.814  0.0725  0.0295  0.0664
16040W        W34894   5.467  15.350  12.411 -0.2894 -0.1717  0.1041
16041W        W34895   0.518  14.067  13.584 -0.1837 -0.0069 -0.0781
16042W        W34896   0.295   2.148   2.634 -0.2292  0.0859  0.2276
16043W        W34897   8.865  13.642   1.722 -0.0863  0.0504 -0.0096
16044W        W34898   9.704   9.261   3.184  0.5820 -0.2621  0.2355
16045W        W34899  10.462   0.329  13.676 -0.1627 -0.2052 -0.1879
16046W        W34900  11.471   3.921  16.068 -0.0968  0.0776  0.0502
16047W        W34901  11.399  10.807  16.074  0.1630 -0.1040 -0.0584
16048W        W34902  15.171  15.295   3.047 -0.1616  0.1565 -0.1133
16049W        W34903  14.187  15.133   3.083  0.4976 -0.1698 -0.0860
16050W        W34904   9.481   3.898  12.677 -0.1629  0.0741 -0.3579
16051W        W34905  12.845  14.191   1.949 -0.1102  0.1669 -0.1538
16052W        W34906   6.076   3.456  14.233 -0.1075 -0.1088  0.0946
16053W        W34907   8.449   1.913   4.062  0.1585 -0.2146 -0.2140
16054W        W34908  15.234  10.472   5.125 -0.0415 -0.1139  0.0141
16055W        W34909   7.042   3.539  12.783 -0.0470 -0.0885 -0.1243
16056W        W34910   2.666   9.447  12.426  0.0257  0.0416  0.2077
16057W        W34911   5.491  17.369   0.505 -0.1265 -0.1264 -0.0173
16058W        W34912  16.575   3.184  16.094 -0.2010  0.1523  0.1445
16059W        W34913   7.601   9.199  17.210 -0.1175  0.0870 -0.3944
16060W        W34914   8.099  10.085  14.893  0.0812  0.0666  0.0187
16061W        W34915  12.649   2.582  16.883  0.0815  0.1555 -0.0382
16062W        W34916  13.439   1.331  14.366 -0.1442 -0.0144 -0.2403
16063W        W34917   9.643  10.223   4.201 -0.0110 -0.1940  0.1075
16064W        W34918   8.704   9.302   4.096  0.1471  0.2871 -0.1199
16065W        W34919  12.442   8.311   5.113 -0.0644  0.0027 -0.0082
16066W        W34920  11.855  17.112   4.778 -0.1994  0.2368 -0.1098
16067W        W34921   9.500   8.973   2.811  0.1331  0.2227 -0.2859
16068W        W34922   2.860  11.317   5.745 -0.2305 -0.1743  0.1004
16069W        W34923   6.035   0.799  15.846  0.1597  0.0556  0.0766
16070W        W34924   0.324  11.445  12.940 -0.0158  0.0744 -0.1601
16071W        W34925   2.116   8.857  13.613  0.1114  0.0716  0.1389
16072W        W34926  10.733  12.626  13.103 -0.1457  0.0986  0.0886
16073W        W34927  12.262   8.501  14.916 -0.2436  0.1230  0.0416
16074W        W34928   4.709   5.170  14.766  0.2307  0.1365 -0.0963
16075W        W34929   0.099   2.691  16.052 -0.1271 -0.3027  0.1026
16076W        W34930   3.914   4.830  16.126 -0.4903 -0.0657 -0.1300
16077W        W34931  13.132   2.931   3.145  0.1522 -0.1241  0.5545
16078W        W34932   4.106   5.448   3.784  0.2212  0.1713  0.1754
16079W        W34933   1.863   8.528  16.540 -0.1887  0.0771 -0.3217
16080W        W34934  17.298   6.375   0.542 -0.1295  0.1206 -0.0046
16081W        W34935  13.481   1.635   1.267 -0.2368  0.1433  0.1983
16082W        W34936   9.304  17.092   1.452 -0.0397 -0.1202 -0.1271
16083W        W34937   2.090   3.945  14.212  0.2696  0.5351  0.1111
16084W        W34938   9.684  14.960   2.300  0.0996  0.2510 -0.3836
16085W        W34939  11.394  14.395  16.173  0.2134  0.0687 -0.2335
16086W        W34940   7.634   8.354   1.810  0.0161  0.1221  0.1591
16087W        W34941  15.516   8.509  16.406  0.3124 -0.1381 -0.0982
16088W        W34942   1.095   5.895   3.455  0.0317 -0.1428 -0.0239
16089W        W34943  15.794  14.138  15.460 -0.1757  0.0923 -0.2389
16090W        W34944   8.817  10.707  15.634 -0.1392 -0.0337  0.1158
16091W        W34945  14.573   7.582   3.973 -0.0331  0.0417  0.1313
16092W        W34946  12.020   8.465   1.604 -0.0390  0.1978 -0.2690
16093W        W34947   2.740   3.873   2.219  0.0149 -0.0257  0.1516
16094W        W34948  16.413   5.862   3.874  0.1624  0.3533  0.0197
16095W        W34949  12.737   3.357   5.378  0.0943  0.3370  0.1474
16096W        W34950   3.513   9.781  12.345 -0.0943 -0.0880 -0.0882
16097W        W34951   0.169   2.258   2.075  0.0355  0.0800 -0.3661
16098W        W34952   1.855   7.293   4.621  0.1203 -0.1366 -0.0748
16099W        W34953  10.025   5.455   3.686  0.3000  0.2436  0.0413
16100W        W34954  12.477   3.708  16.630  0.1415 -0.0882  0.0423
16101W        W34955  12.118  12.798   2.480  0.2347 -0.1010  0.1474
16102W        W34956  10.242   0.274   0.292 -0.1734  0.0291  0.0715
16103W        W34957   6.016   1.070   4.924 -0.0225 -0.2572 -0.1213
16104W        W34958  13.551   6.179  14.254  0.1860  0.0601  0.2493
16105W        W34959  11.458   6.315   2.222  0.0154 -0.2652  0.0272
16106W        W34960   8.289   0.119  16.061 -0.0352  0.0089  0.0515
16107W        W34961   5.724  14.151   0.205 -0.2376  0.1040  0.0243
16108W        W34962   1.106   2.304   3.825  0.2549 -0.0553  0.2798
16109W        W34963   0.093   8.884  13.695 -0.3493 -0.0826  0.3602
16110W        W34964  11.608   6.169  12.897  0.2349 -0.2321 -0.2473
16111W        W34965   9.640   1.855  13.914 -0.0169 -0.1560 -0.0263
16112W        W34966  14.113   7.843   3.948 -0.1420  0.1191 -0.1112
16113W        W34967  11.637   1.748  12.766 -0.0110  0.1050 -0.2220
16114W        W34968   0.082  13.237  13.692  0.0041 -0.0590  0.0225
16115W        W34969   9.831  16.176  16.044  0.1431 -0.3556 -0.2972
16116W        W34970   0.546   7.534   5.127  0.1185  0.1393 -0.0098
16117W        W34971   7.777   4.115   3.272 -0.3207 -0.0328  0.0622
16118W        W34972  12.641   5.177  13.397  0.2449 -0.2991 -0.0347
16119W        W34973   5.308   3.766   3.233 -0.0145  0.2087  0.1355
16120W        W34974   0.927   0.370   4.560 -0.1813  0.1041 -0.0878
16121W        W34975   2.703   5.278   0.644 -0.0534  0.0284  0.0477
16122W        W34976  10.831   9.282  12.958 -0.1092  0.1820  0.0769
16123W        W34977   7.544  17.371   0.761 -0.1129 -0.2608  0.1423
16124W        W34978   1.289  13.513   3.849  0.1851  0.2138 -0.0138
16125W        W34979   8.366  13.302  16.088 -0.0916 -0.1747 -0.1878
16126W        W34980   0.398  12.231  16.236  0.1749  0.0243 -0.2871
16127W        W34981  15.077   6.102  13.358 -0.3514 -0.2960  0.0997
16128W        W34982   1.502   1.789  13.008  0.2948 -0.2186 -0.2215
16129W        W34983   1.230   2.365   2.315  0.1041 -0.0382 -0.1210
16130W        W34984  16.516   3.613   2.547  0.2494 -0.2727  0.1016
16131W        W34985   4.101   0.787   1.515 -0.2094 -0.1130  0.2447
16132W        W34986  11.088   4.972   2.207  0.1685  0.0411 -0.0872
16133W        W34987  14.840   0.869  16.613 -0.0556  0.0938  0.1639
16134W        W34988   7.627  14.317   0.573  0.0299 -0.0847  0.1032
16135W        W34989   7.844  13.809   3.855 -0.1069 -0.0640  0.0986
16136W        W34990   9.476   0.217   4.161  0.0043 -0.0216  0.3002
16137W        W34991  15.322  10.168   1.450  0.0651  0.2586 -0.1065
16138W        W34992  12.131  16.986   0.235 -0.0948  0.1979  0.1806
16139W        W34993   0.508  16.175  16.594 -0.0642 -0.0096 -0.0759
16140W        W34994   9.604  16.670   1.943  0.2298 -0.0098  0.2771
16141W        W34995   3.884  13.120   0.125 -0.0633  0.2147  0.0275
16142W        W34996   1.574  16.934  14.949  0.1832  0.1458 -0.0603
16143W        W34997   1.972   4.440   3.985 -0.2513  0.0340  0.0953
16144W        W34998   1.636   5.928   0.895  0.2188 -0.1968 -0.2845
16145W        W34999   8.376   8.629   0.846 -0.0596  0.0749 -0.1702
16146W        W35000   2.367  11.094   3.831 -0.1783 -0.2253  0.1822
16147W        W35001   9.853   1.783   4.593 -0.1438 -0.1976 -0.0677
16148W        W35002   4.226   9.860  16.978  0.2379  0.1432 -0.3183
16149W        W35003   2.963  14.642  16.170 -0.3485 -0.2641  0.0910
16150W        W35004   2.604  10.893  14.332 -0.0159 -0.1548 -0.3607
16151W        W35005  15.247   4.529  14.017 -0.1380  0.0514 -0.0482
16152W        W35006   2.263  13.232   1.543  0.0396  0.1295 -0.0336
16153W        W35007  16.991   3.084   4.399 -0.1147  0.0602  0.3948
16154W        W35008  10.764  17.012  15.360 -0.0548 -0.0104 -0.0892
16155W        W35009   7.515  11.519   4.586  0.2851  0.0679 -0.2309
16156W        W35010  17.392   5.676   4.105  0.1077  0.1940 -0.1569
16157W        W35011   3.715   7.815   1.819 -0.0491  0.0024 -0.2280
16158W        W35012   3.684   3.977  17.378 -0.2340  0.3678  0.2351
16159W        W35013   1.362   3.717   4.053  0.0622  0.3887  0.0707
16160W        W35014   6.218   8.758  14.711 -0.2422  0.2780 -0.0032
16161W        W35015   4.552   8.054  13.972 -0.1901  0.1028 -0.1009
16162W        W35016  13.424   5.941  15.231  0.2408 -0.1177 -0.1160
16163W        W35017   1.054   9.955  12.876 -0.3316 -0.0303 -0.1181
16164W        W35018  15.309  13.240   3.814 -0.1349 -0.1058  0.1112
16165W        W35019  16.547   8.825  12.938  0.0555  0.1517  0.1054
16166W        W35020  16.992   5.369   5.229 -0.1062 -0.0072  0.0377
16167W        W35021  11.159  11.938  16.557  0.1627  0.0239  0.1464
16168W        W35022   4.302   1.907  17.020  0.0730  0.1083 -0.2811
16169W        W35023  13.564  13.079  14.323 -0.0844  0.3446 -0.0307
16170W        W35024  14.638  13.218  14.804  0.1660 -0.1285  0.1215
16171W        W35025   7.946  15.347   3.427 -0.0274 -0.1545  0.0805
16172W        W35026   0.028  17.154  14.500 -0.0225 -0.2078 -0.0201
16173W        W35027   6.665   1.823   1.577 -0.1460  0.1466 -0.1081
16174W        W35028   0.752   6.868  14.216  0.0657 -0.2462  0.0450
16175W        W35029   2.993  10.561  14.313  0.1072  0.2390  0.0531
16176W        W35030   0.425   3.554  13.005  0.0329 -0.0468  0.2753
16177W        W35031  15.315  15.846  16.497 -0.1538 -0.1868 -0.2469
16178W        W35032  12.038  11.289  14.104  0.2434  0.0182 -0.1412
16179W        W35033   1.103  10.496   3.809 -0.0246 -0.1114  0.2577
16180W        W35034   0.356  15.035  13.980 -0.1094 -0.1128  0.0911
16181W        W35035   9.495   4.328  15.266  0.1307 -0.1105  0.1128
16182W        W35036   3.106   5.188  16.698 -0.1525  0.1091 -0.0800
16183W        W35037  10.863   7.385  17.273 -0.1566 -0.0729 -0.0062
16184W        W35038   9.227  10.306  14.280  0.0683  0.0491 -0.0705
16185W        W35039   8.493  17.100   0.302  0.1732 -0.1433  0.0662
16186W        W35040  17.356   4.736  12.678  0.2498  0.0587  0.2714
16187W        W35041   8.964  15.056   4.314 -0.2119  0.2753 -0.1508
16188W        W35042   8.675  13.736   3.870 -0.2113  0.0784  0.2712
16189W        W35043  12.693   1.103   2.462  0.3934 -0.0037 -0.1304
16190W        W35044  16.131   1.609  16.836 -0.1520  0.1434 -0.2738
16191W        W35045   8.886  17.015  13.726  0.2453  0.2042 -0.0471
16192W        W35046   5.007  14.724  17.220  0.1299 -0.1058  0.0959
16193W        W35047  14.269  10.314  15.440  0.0203 -0.0586 -0.0946
16194W        W35048   2.942   3.250  14.851 -0.3193 -0.0836 -0.3575
16195W        W35049   1.905   2.911   5.017 -0.4049 -0.1217 -0.1247
16196W        W35050   9.673  10.280  14.436  0.0378  0.4685  0.2083
16197W        W35051  15.841  15.604  15.576 -0.0654 -0.1131  0.1081
16198W        W35052  14.058   3.756  13.390 -0.1250  0.1704  0.1183
16199W        W35053   7.434  12.904  13.323  0.0243  0.1953 -0.3072
16200W        W35054  17.211   4.224   0.236 -0.2321 -0.1385  0.1558
16201W        W35055   6.378  14.285   2.376 -0.0246  0.0275  0.0631
16202W        W35056  14.416  16.008  16.759  0.1865 -0.0664  0.0535
16203W        W35057   7.754  12.847   2.869  0.2364  0.4456 -0.1112
16204W        W35058  12.282   8.871   1.495  0.0590 -0.0994 -0.1820
16205W        W35059   7.302   8.315   1.462  0.1067 -0.1803 -0.0999
16206W        W35060  13.458   5.773  16.221  0.2477 -0.1875 -0.0675
16207W        W35061  12.283  13.459   2.313 -0.0357 -0.0712  0.0179
16208W        W35062   9.465   5.392  11.831 -0.1474  0.1549 -0.1777
16209W        W35063  15.799   9.912   0.205  0.1017  0.1964 -0.1798
16210W        W35064   6.122   5.822  12.777 -0.1387  0.3753  0.1001
16211W        W35065  11.116   0.318   5.178  0.0857  0.0292  0.2004
16212W        W35066  11.574  15.967  12.410 -0.1306  0.0160 -0.2774
16213W        W35067   8.008  12.972   3.780 -0.1590 -0.0074  0.0370
16214W        W35068   0.170  16.576  16.667  0.0344  0.2564 -0.0561
16215W        W35069  11.883   9.754  15.737 -0.0473 -0.1076  0.0801
16216W        W35070  14.970   7.284   2.286 -0.2470  0.1219 -0.0706
16217W        W35071   2.859   7.351   4.770  0.0643  0.1866  0.0104
16218W        W35072   6.579   5.644   4.960 -0.0741  0.2679 -0.2309
16219W        W35073   2.838   5.724   3.175 -0.0747  0.0376 -0.0541
16220W        W35074  11.781   2.797  13.415 -0.1723 -0.0682  0.1481
16221W        W35075  10.802   5.714  17.308  0.3439 -0.3831 -0.1000
16222W        W35076  15.595   4.481  12.805  0.0931  0.0195 -0.1590
16223W        W35077  10.291   9.849  13.661  0.0770 -0.1574 -0.0330
16224W        W35078   3.206  12.918   3.727 -0.0852 -0.1013  0.0510
16225W        W35079  12.987   8.883  16.622 -0.0066 -0.3580  0.2550
16226W        W35080  16.710   6.828  14.460 -0.1391  0.0149  0.2980
16227W        W35081   2.079   8.389   1.916 -0.0983  0.0073  0.2295
16228W        W35082   5.087   4.440  13.157  0.2088 -0.1760 -0.1955
16229W        W35083  16.927  11.847   2.876  0.0172  0.0466  0.0245
16230W        W35084  15.491   8.316   2.476  0.0401 -0.0659  0.0494
16231W        W35085  15.841   0.492  16.719  0.2254  0.0902  0.0395
16232W        W35086   3.132   1.218  16.746  0.0393 -0.0271 -0.2598
16233W        W35087   2.954   7.505  13.623  0.3286 -0.0132  0.0883
16234W        W35088  15.780   8.106   1.574  0.1385 -0.0843 -0.3281
16235W        W35089  12.940  16.026   3.988  0.0959  0.0147 -0.0283
16236W        W35090  15.766   0.643  14.838  0.0117 -0.1631 -0.0101
16237W        W35091   4.775   2.619  13.532  0.0917 -0.0204 -0.2698
16238W        W35092   0.801   4.727  16.604  0.1155 -0.4483 -0.0821
16239W        W35093   6.830   2.486  12.168 -0.0500  0.2483 -0.0117
16240W        W35094   2.767   0.733  12.288  0.1316 -0.0391 -0.1943
16241W        W35095   8.219  12.928  15.189  0.0519  0.1901  0.1252
16242W        W35096   2.724  12.682   4.505  0.0150 -0.2051 -0.1120
16243W        W35097   7.403  13.933  16.112  0.1797 -0.2356  0.2409
16244W        W35098  16.070   5.534  14.687  0.1882  0.0475 -0.1806
16245W        W35099   9.141  16.916   2.898 -0.1227 -0.0723 -0.2781
16246W        W35100   3.446   1.363  17.094  0.2495 -0.0501  0.5667
16247W        W35101  16.813   8.133  13.963  0.1257 -0.0583 -0.0601
16248W        W35102   0.422   0.895  14.402  0.1906 -0.2224  0.1178
16249W        W35103  15.206   5.783   3.704 -0.2066 -0.3245 -0.3170
16250W        W35104   2.093   7.102  15.529  0.0851  0.0939  0.4099
16251W        W35105  15.442   4.132  13.764  0.0719  0.2136 -0.0034
16252W        W35106  13.475   5.539   4.814  0.1417 -0.0780 -0.2583
16253W        W35107   7.548   0.507   2.415  0.0660  0.1174  0.3293
16254W        W35108  16.440   4.342  12.740 -0.2782 -0.0195  0.3298
16255W        W35109   8.363   3.502   2.904  0.0803 -0.0321 -0.0104
16256W        W35110  13.902  16.662   2.236 -0.1192 -0.0446  0.1345
16257W        W35111   6.468  11.577  16.826  0.0882 -0.2151 -0.0459
16258W        W35112  14.900   8.207   2.603  0.0904  0.0037 -0.0067
16259W        W35113  13.493   7.106   2.909  0.2634 -0.0247  0.2356
16260W        W35114  13.277   2.953   2.639  0.1775 -0.0706 -0.1907
16261W        W35115   1.007   8.222  14.600  0.0290 -0.0893  0.2021
16262W        W35116  12.517   1.347   3.421 -0.0131  0.0431  0.0934
16263W        W35117  14.195  12.480   3.736 -0.1861 -0.2242  0.0846
16264W        W35118   2.039   5.421   1.519  0.1327  0.0942  0.2113
16265W        W35119   9.832  11.860   3.322 -0.1976  0.1589  0.4210
16266W        W35120  13.954   9.598  13.266  0.2899  0.2214 -0.1774
16267W        W35121  11.306   3.825   4.366  0.0932 -0.2384 -0.2732
16268W        W35122   5.164  13.299   0.654  0.0909  0.2574 -0.3289
16269W        W35123   4.802   8.405   3.188  0.2369  0.1157 -0.1894
16270W        W35124  11.253   2.945  17.037 -0.1605 -0.0846 -0.0806
16271W        W35125  13.222   7.561  16.899  0.2104 -0.1176  0.1245
16272W        W35126   5.095   7.399   5.229 -0.1465 -0.0925  0.1426
16273W        W35127   3.762   7.956   4.043  0.1292  0.0739 -0.0963
16274W        W35128  13.709  15.961  13.807 -0.0520 -0.4441  0.0868
16275W        W35129  13.846   0.645   1.318  0.0553  0.0755 -0.3417
16276W        W35130   9.853  11.376  16.946  0.2672  0.0431 -0.1870
16277W        W35131  16.396   5.312  14.972 -0.0869  0.1671  0.0933
16278W        W35132  13.240   3.365  12.387 -0.2055  0.0380  0.0875
16279W        W35133  17.059  16.876   2.203  0.2408 -0.0565 -0.1464
16280W        W35134   5.601   7.283   5.500 -0.2327 -0.0663  0.0525
16281W        W35135   9.497  16.754  16.904  0.0480  0.1327  0.2329
16282W        W35136  11.637   3.567   3.290 -0.3466  0.2656 -0.1875
16283W        W35137   9.660  10.538  12.513 -0.1292  0.0584  0.0489
16284W        W35138  13.721   2.990  16.519 -0.1090  0.0582 -0.0975
16285W        W35139  13.607   2.489   2.966 -0.3111 -0.2041 -0.0595
16286W        W35140  15.684  15.645  12.415 -0.2092 -0.0577 -0.1631
16287W        W35141  13.693   0.094  12.482  0.1966 -0.2568 -0.0213
16288W        W35142  14.655  15.223  12.653 -0.1548 -0.2325  0.0495
16289W        W35143   5.344   3.429   0.893 -0.3133  0.1962  0.1842
16290W        W35144  17.370   0.975  15.041 -0.1126  0.3839 -0.3228
16291W        W35145   1.196   1.571  13.419  0.0237 -0.0838 -0.1172
16292W        W35146   7.442  14.677  17.051 -0.0776  0.1223  0.0458
16293W        W35147  15.153  11.186   3.561  0.1383  0.1947 -0.0869
16294W        W35148  11.765   9.854  17.213 -0.1268 -0.0860 -0.0076
16295W        W35149  14.042   5.120   0.178  0.0644 -0.0940 -0.2454
16296W        W35150  11.634  15.159  17.252 -0.1459 -0.1333  0.0259
16297W        W35151   7.361  17.388  13.229  0.1694  0.0393  0.1524
16298W        W35152   8.121  16.823  17.382  0.1179  0.0945 -0.0276
16299W        W35153  16.255   6.695  12.347 -0.0257 -0.0298  0.0699
16300W        W35154   2.328  14.798  16.917  0.1404  0.4166  0.0870
16301W        W35155   4.930   7.490  12.128  0.2312 -0.2468 -0.1067
16302W        W35156  14.055   7.387   4.062  0.2984 -0.0960 -0.5344
16303W        W35157   0.207   9.422   0.284  0.0966  0.1610  0.0313
16304W        W35158   2.857   0.082   4.896 -0.0280 -0.2506  0.0353
16305W        W35159   1.456   6.287   2.227 -0.0483  0.2535  0.0053
16306W        W35160  15.241  12.687  14.327 -0.2432 -0.0120  0.1502
16307W        W35161   0.329   7.960  15.733 -0.0774 -0.0217  0.1702
16308W        W35162   0.217   0.460   3.826  0.0101  0.0776 -0.0524
16309W        W35163  11.825   1.995  14.858 -0.4027  0.0636  0.2652
16310W        W35164   2.466   9.163  17.244  0.0320 -0.0588  0.1318
16311W        W35165  13.724  17.378  14.090  0.1640 -0.1932  0.0792
16312W        W35166  12.745   8.699   2.562  0.1008  0.1347  0.0581
16313W        W35167   4.490  14.137  16.993  0.2181  0.0486  0.0584
16314W        W35168   9.816  14.659  15.741 -0.1035 -0.0470  0.0556
16315W        W35169   6.742   8.713  14.955 -0.1307  0.1291  0.1822
16316W        W35170  16.329   0.462  15.832  0.1615  0.0751  0.1784
16317W        W35171   7.979   5.477   2.694 -0.1924  0.0589  0.1940
16318W        W35172  16.649   6.770   4.187  0.3189  0.1469 -0.0195
16319W        W35173   1.197  13.608  15.895 -0.2539 -0.0585  0.0263
16320W        W35174   0.884   5.706  12.723 -0.0154 -0.1029 -0.1223
16321W        W35175   0.352   1.916  14.137 -0.0377 -0.2357 -0.3834
16322W        W35176   3.034  13.046   3.241 -0.0593  0.1703  0.1304
16323W        W35177   0.199   3.151   2.129 -0.0713 -0.1325  0.2032
16324W        W35178  12.451   0.486   1.184 -0.2432 -0.2342 -0.0426
16325W        W35179   3.028   0.304   2.416  0.1682 -0.2453 -0.1445
16326W        W35180   8.261   5.328   5.069  0.0196 -0.2289  0.2930
16327W        W35181  17.135   0.139   4.343 -0.1721 -0.1656  0.0835
16328W        W35182   6.180   1.737   4.105  0.2572  0.0316 -0.3201
16329W        W35183  17.326   2.230   3.651  0.0684 -0.1541 -0.0381
16330W        W35184   7.104  14.532   0.548  0.0635  0.2029 -0.0357
16331W        W35185  12.121  14.732   2.611  0.3029 -0.0116  0.0693
16332W        W35186  14.119   8.711  14.830 -0.0674  0.0626 -0.0848
16333W        W35187  14.295  12.538  14.408 -0.1656  0.2470 -0.2708
16334W        W35188  14.300  12.441  13.186 -0.1993  0.1999 -0.2344
16335W        W35189   9.994   8.502   3.888  0.0522  0.0687 -0.2306
16336W        W35190   0.165   4.701  14.912  0.3076 -0.4164 -0.2278
16337W        W35191   6.075   5.358   4.830 -0.2395 -0.1576  0.2877
16338W        W35192  16.349   4.692   0.925 -0.1942  0.1358 -0.1645
16339W        W35193  10.082  14.282  13.158  0.1027  0.1251  0.0344
16340W        W35194  13.465  11.790  13.446  0.0270 -0.1463 -0.0284
16341W        W35195   0.974   8.478   3.833  0.1304 -0.0556  0.1371
16342W        W35196  17.237   4.834  13.353  0.0073 -0.1006 -0.0269
16343W        W35197  12.684   7.198   3.318 -0.2499 -0.0001  0.3714
16344W        W35198  14.096   1.757  14.732  0.2581  0.0414  0.3780
16345W        W35199  14.744   5.761  13.436  0.3998  0.1564 -0.0116
16346W        W35200   6.809   4.069   1.483 -0.0052 -0.0480 -0.0794
16347W        W35201   8.444  14.403  12.668  0.0580  0.0283 -0.0023
16348W        W35202   2.422   5.893  16.770  0.0168  0.0650  0.4379
16349W        W35203  14.652  11.861  17.107  0.1393 -0.0263 -0.0519
16350W        W35204  13.800  10.357   4.391 -0.1314 -0.0332  0.0227
16351W        W35205   9.905  15.343   4.636  0.5233 -0.3265 -0.1998
16352W        W35206  16.937   2.606   2.690  0.0590 -0.0647 -0.0571
16353W        W35207  11.448   3.212  12.633 -0.2611  0.0701  0.2653
16354W        W35208   8.374  10.487   1.782  0.0540 -0.0761 -0.0060
16355W        W35209   7.655  11.818  12.817 -0.0852  0.0532  0.3331
16356W        W35210   4.985  11.153  17.104 -0.1912  0.1985  0.0504
16357W        W35211   2.188   8.361  15.157  0.0020  0.1586  0.0154
16358W        W35212   4.739   2.411   0.733  0.2148  0.1276  0.0802
16359W        W35213   4.827   4.274  15.390 -0.0695  0.0365 -0.1067
16360W        W35214  12.748   9.238   2.705  0.0950  0.1636  0.2614
16361W        W35215   1.412   3.551   3.068  0.0054  0.0307  0.1634
16362W        W35216   9.898  12.882   2.612  0.0544 -0.0213  0.0805
16363W        W35217  14.292  16.513   1.941  0.0176 -0.1869 -0.2819
16364W        W35218   5.247   1.666  13.953  0.1683 -0.2874 -0.1613
16365W        W35219   9.790   3.962   0.244 -0.0332  0.2493  0.0207
16366W        W35220   3.204   7.196  12.189  0.1891 -0.2702 -0.0440
16367W        W35221  12.166   0.772  14.158  0.1418  0.0405 -0.2877
16368W        W35222  15.957  15.202  15.907  0.2327 -0.0277  0.0319
16369W        W35223  10.105  15.246  17.153 -0.2580  0.2399  0.1681
16370W        W35224   4.241  11.851   3.738  0.0697  0.0686  0.0201
16371W        W35225   9.293   1.237   2.158  0.2828 -0.4357  0.0603
16372W        W35226   8.780   8.313  14.605  0.0832 -0.0574 -0.0847
16373W        W35227  16.678   2.064  16.540 -0.0399  0.1793 -0.1609
16374W        W35228  12.158  13.282  12.675  0.1534  0.1910 -0.1262
16375W        W35229   7.732  10.799  16.382  0.1734  0.1410  0.0481
16376W        W35230  12.094  16.070   4.555 -0.0515  0.2122  0.0201
16377W        W35231  10.014   8.179   0.758  0.1990  0.0801  0.1061
16378W        W35232   9.511  10.777  17.406  0.2216  0.0739 -0.3245
16379W        W35233  14.664  14.151  16.715  0.2662  0.0067  0.1209
16380W        W35234   9.061   3.862   1.663  0.1807 -0.0018 -0.0064
16381W        W35235  10.376   5.443  15.369  0.3162  0.0908 -0.0296
16382W        W35236   7.827  16.844   4.343 -0.0421 -0.0464  0.0016
16383W        W35237   0.801  16.617   2.592  0.0965 -0.1750 -0.2042
16384W        W35238   6.126  16.545  13.311 -0.4480  0.1017 -0.0629
16385W        W35239  10.297  13.117   3.763 -0.0701 -0.0740  0.0211
16386W        W35240   2.514   5.348  14.073  0.1427  0.1033 -0.1185
16387W        W35241  14.519   2.141   2.536  0.1354  0.1809  0.4038
16388W        W35242   5.000  10.292   3.012 -0.1163  0.2693 -0.1513
16389W        W35243   9.850  16.872  15.299  0.0476  0.2979  0.0044
16390W        W35244   5.484  10.109  14.722 -0.0608 -0.0500  0.1934
16391W        W35245   5.265  11.986  14.169  0.0924 -0.0026  0.0640
16392W        W35246   5.267   9.401   1.577 -0.3296  0.0094  0.1724
16393W        W35247   1.099  11.644   4.908 -0.2351 -0.3239 -0.1020
16394W        W35248   2.585   9.105  16.743  0.0130 -0.0239 -0.2203
16395W        W35249   4.782  13.330   1.064  0.2212  0.2677  0.3230
16396W        W35250  17.045  13.497   4.862 -0.2845 -0.3840 -0.2810
16397W        W35251   0.508   3.329   3.125  0.2694 -0.0403 -0.2525
16398W        W35252   8.688   7.441  15.889  0.1812 -0.1199  0.1167
16399W        W35253   3.118  14.952  14.865  0.0708 -0.0309 -0.3946
16400W        W35254  15.684   3.479   2.699  0.0177 -0.0607  0.1499
16401W        W35255   3.164  15.504  15.545  0.2631  0.0142  0.0276
16402W        W35256   6.180   0.858  16.842 -0.0774 -0.0620  0.0221
16403W        W35257   6.819  16.645  17.389  0.0169  0.0527  0.0125
16404W        W35258   8.697   2.680   1.762 -0.0482  0.0610 -0.0253
16405W        W35259   6.349   5.910  13.231 -0.0889  0.3027  0.1028
16406W        W35260  14.793   8.457  12.138 -0.1724 -0.1458  0.2945
16407W        W35261   5.541   1.975   2.339  0.2701  0.1840 -0.1916
16408W        W35262  13.983   6.454  14.972  0.0971 -0.3403 -0.1272
16409W        W35263   6.764  14.687  15.456 -0.0291 -0.1466  0.4571
16410W        W35264   8.354   0.087   0.688  0.2977  0.2588  0.4308
16411W        W35265  13.573   4.481  13.781 -0.0262  0.1330 -0.1543
16412W        W35266   5.870   4.854  17.285  0.3637  0.0192  0.2797
16413W        W35267  14.362   0.248   4.122 -0.0187  0.3056 -0.1229
16414W        W35268   3.580  16.464   4.608 -0.0402 -0.1750  0.0333
16415W        W35269  14.969   3.623  14.284  0.0359  0.0464  0.0677
16416W        W35270   9.046   4.070  15.214  0.1735 -0.2974 -0.0363
16417W        W35271  16.886  13.065   1.962 -0.1714 -0.3279 -0.2722
16418W        W35272  14.556  16.550  16.759  0.0315  0.0820 -0.0202
16419W        W35273   2.856   2.107   4.384 -0.0965 -0.0029  0.1028
16420W        W35274  13.454   9.121  16.319 -0.2438 -0.0674 -0.0067
16421W        W35275   2.955   9.527  13.252 -0.0326  0.1475 -0.4658
16422W        W35276   1.888   3.870   0.214  0.1229 -0.0166 -0.2991
16423W        W35277  10.291   8.618  14.078 -0.4477  0.4232  0.1557
16424W        W35278   7.871   1.549  15.125  0.1149  0.0988 -0.2896
16425W        W35279   2.947   6.153  17.208  0.0300 -0.0242 -0.1465
16426W        W35280  15.319   9.679  15.367  0.4140 -0.1579  0.0247
16427W        W35281  10.188   0.920  16.310 -0.0273 -0.1847 -0.1436
16428W        W35282   4.413  13.810   1.384 -0.1532  0.0628 -0.2245
16429W        W35283  16.579   9.632   1.019 -0.1329 -0.1721  0.2143
16430W        W35284   5.578   5.689  13.298  0.0984 -0.1136 -0.4147
16431W        W35285   2.825  10.130   4.278  0.0442 -0.1148 -0.1394
16432W        W35286   9.875   7.254  15.066 -0.1291  0.0221 -0.1057
16433W        W35287   0.701  14.356  12.973 -0.0057 -0.3661 -0.1491
16434W        W35288  10.754   8.766  14.285 -0.0742  0.1375  0.0256
16435W        W35289   1.439   9.288  14.101  0.1330 -0.0555  0.0318
16436W        W35290   2.732   8.709  17.370 -0.0955 -0.0617  0.0647
16437W        W35291  12.728   0.618  17.341 -0.1094  0.1210  0.1856
16438W        W35292   2.191  16.179  17.101  0.1959  0.0432 -0.3122
16439W        W35293  10.231   2.579  15.253 -0.0051  0.5015 -0.4214
16440W        W35294  13.911  13.549  17.156 -0.1169 -0.0251  0.1104
16441W        W35295   7.465   2.435   2.761 -0.1517 -0.1106  0.1268
16442W        W35296  12.535   7.683   5.760  0.0996  0.1060 -0.0726
16443W        W35297   0.898  11.329  16.494 -0.0241 -0.3717 -0.0189
16444W        W35298   8.281  14.417   3.182 -0.4603 -0.2499  0.4544
16445W        W35299   7.278   6.587  16.461 -0.3190  0.3927 -0.1426
16446W        W35300  14.106  13.396   0.152  0.1820  0.1969  0.1181
16447W        W35301   1.035   0.774  12.277  0.2582 -0.0654 -0.1728
16448W        W35302   9.827  14.246   4.668  0.2718 -0.2818 -0.5157
16449W        W35303  11.466  12.595  13.742  0.1713 -0.2483 -0.3661
16450W        W35304   4.795  15.703   2.931  0.1274  0.1733  0.0700
16451W        W35305   8.284  12.746   4.182 -0.0505 -0.0686 -0.1672
16452W        W35306  11.168   6.188  13.542 -0.1003  0.1021  0.0796
16453W        W35307   7.095  12.214   1.434  0.1893 -0.1957  0.2473
16454W        W35308  11.701  11.284   2.038 -0.1548 -0.1844 -0.2358
16455W        W35309   2.152  15.432  15.867 -0.5473 -0.2095  0.1471
16456W        W35310   1.380  13.500   2.199  0.1059 -0.1792  0.3008
16457W        W35311   9.083   3.368   1.580  0.4373  0.0551 -0.2366
16458W        W35312  14.127   9.965   1.439 -0.1461 -0.1789  0.1740
16459W        W35313   8.599   9.996  16.720 -0.2510  0.1857 -0.1174
16460W        W35314  15.279   0.963   4.705  0.0752 -0.0201  0.2732
16461W        W35315  16.678   6.529  11.234  0.2803  0.1547  0.0059
16462W        W35316   4.568  17.397  14.086  0.0914 -0.4438  0.2167
16463W        W35317  15.392   3.113  14.826 -0.4689 -0.0936 -0.0450
16464W        W35318  10.873   3.437   5.032  0.3216  0.0588 -0.0754
16465W        W35319   9.610   8.080  13.718  0.3430 -0.1521  0.1442
16466W        W35320   1.191  13.106   1.555  0.2303  0.3753  0.0236
16467W        W35321   9.371  11.274   2.046  0.0478 -0.0681  0.1869
16468W        W35322  10.656   3.065   4.257 -0.5849 -0.1050 -0.1129
16469W        W35323   6.607  11.967   3.311 -0.1213  0.0253  0.0449
16470W        W35324   4.046  11.041   3.406 -0.0363  0.2766 -0.1508
16471W        W35325  10.933   4.987  14.187 -0.2102 -0.0166  0.0574
16472W        W35326  16.325  10.880   5.353 -0.0134  0.2157 -0.2945
16473W        W35327   7.688   8.321  14.360  0.1713 -0.0838  0.2903
16474W        W35328   1.874   0.051  13.125 -0.0054  0.0113  0.2286
16475W        W35329   4.873   5.977   4.971 -0.3002 -0.0949  0.1525
16476W        W35330  10.162  11.804  15.054  0.3178  0.1770 -0.0338
16477W        W35331   8.733  13.444  15.664 -0.2250 -0.1160  0.1839
16478W        W35332   9.222  11.673   2.494 -0.3811 -0.1679  0.2827
16479W        W35333  13.532   4.333   3.184 -0.1893  0.0257 -0.0706
16480W        W35334  14.090  12.968  16.471  0.4946  0.1362  0.2680
16481W        W35335   3.872   7.064  13.000  0.0580  0.2258  0.1040
16482W        W35336  14.910   6.050   4.040 -0.4911 -0.0084 -0.1434
16483W        W35337   0.267  10.784  17.178 -0.2383 -0.1301 -0.2325
16484W        W35338   1.830   8.588  14.690  0.1648  0.0073 -0.1796
16485W        W35339   7.924   5.263   0.859  0.4032 -0.0112 -0.0977
16486W        W35340  14.803  15.734  12.327  0.0877  0.0863 -0.3688
16487W        W35341   9.496   4.268   0.561  0.0843  0.1701 -0.0554
16488W        W35342  14.775  12.858  14.466  0.1401 -0.0943 -0.2066
16489W        W35343  12.619  12.286   2.070  0.0819  0.3350  0.1273
16490W        W35344   1.036  16.189  14.814 -0.0851 -0.2111  0.2548
16491W        W35345  13.272  13.916  13.485 -0.0493 -0.0394 -0.1071
16492W        W35346  10.255   5.948  13.241  0.0990  0.1125  0.2470
16493W        W35347  11.109   6.412  16.664 -0.0640  0.1540 -0.1636
16494W        W35348  15.095   1.739  14.845 -0.1484  0.1429 -0.5439
16495W        W35349   8.852   6.615   4.796  0.1838 -0.0770  0.2900
16496W        W35350  11.612  16.752   0.194 -0.0520 -0.1849 -0.2967
16497W        W35351   2.420   6.911   2.128 -0.0924 -0.0741  0.1172
16498W        W35352   1.783  10.567   5.560 -0.0288 -0.4598 -0.0757
16499W        W35353   4.042   7.804  16.234  0.0966  0.0806 -0.0312
16500W        W35354   7.030  12.452  14.367 -0.2172  0.1825  0.0436
16501W        W35355  11.655  11.829  15.569  0.1493 -0.0573 -0.2043
16502W        W35356  14.224   8.447   1.928  0.1760 -0.4536  0.3078
16503W        W35357  11.603  12.268  14.117 -0.2187 -0.1709 -0.0935
16504W        W35358   2.922  16.209  13.152  0.1885 -0.4328 -0.1561
16505W        W35359   5.957   1.088  14.854 -0.0758 -0.4393  0.4120
16506W        W35360   0.440   7.855   0.462  0.2034  0.2453  0.0293
16507W        W35361  16.851  12.490  13.705 -0.2513 -0.3376  0.0981
16508W        W35362   8.838  10.305  17.090  0.1376 -0.2862 -0.0383
16509W        W35363  14.010   4.003  16.669 -0.0165 -0.0024 -0.0452
16510W        W35364   0.467  15.028   1.786 -0.1417  0.0829  0.0543
16511W        W35365  15.278  14.929  14.214 -0.0047 -0.2531  0.1724
16512W        W35366  11.612  15.938   4.541 -0.1839 -0.0387  0.1175
16513W        W35367   1.278  10.799  12.360 -0.1272 -0.3182  0.0038
16514W        W35368  14.999   2.198   4.952 -0.0154  0.0715  0.0360
16515W        W35369   2.309  10.867  13.290 -0.3131  0.2575  0.2250
16516W        W35370  12.191  12.612  16.922  0.0393 -0.1295 -0.1911
16517W        W35371   8.187   7.117  12.453  0.1706  0.3776 -0.2164
16518W        W35372  13.952   2.507  16.414 -0.1305 -0.1754 -0.0532
16519W        W35373   7.570   7.825   1.812  0.2630  0.1437  0.1415
16520W        W35374   6.076  10.613   1.859  0.1991  0.2337  0.0975
16521W        W35375   6.945   6.838  13.226 -0.1447  0.2675  0.0856
16522W        W35376  11.102   4.908  15.732 -0.0851 -0.0294 -0.0801
16523W        W35377   6.564  11.219  13.983 -0.3599  0.3937  0.1256
16524W        W35378  12.135   3.794  14.121  0.1314 -0.2521 -0.1918
16525W        W35379  14.544   3.609  13.469  0.1124  0.2173  0.1992
16526W        W35380   7.183  14.273  16.917 -0.0250  0.5045 -0.3576
16527W        W35381  10.213  13.644   2.312  0.2105  0.1059  0.0148
16528W        W35382  14.780   7.716  16.424 -0.0929  0.0874 -0.2314
16529W        W35383   1.805  15.621   0.899  0.1665 -0.2932  0.1396
16530W        W35384  17.003  14.655   4.230 -0.1716  0.3637  0.0715
16531W        W35385   3.491  11.062  14.837 -0.0727  0.0035 -0.1142
16532W        W35386   3.511  12.697  16.329 -0.0983 -0.0499  0.0739
16533W        W35387   1.505  15.467  17.206  0.0757  0.2277 -0.1017
16534W        W35388  15.197   2.997   4.810  0.2528 -0.4248  0.1734
16535W        W35389   0.197   8.293   1.847 -0.4267  0.1771 -0.0974
16536W        W35390  10.926   2.582   3.802 -0.1703  0.0375  0.1344
16537W        W35391   4.957  11.042   3.571 -0.2337  0.1603  0.3566
16538W        W35392  16.510   2.568  15.126 -0.0068  0.0872 -0.0477
16539W        W35393   6.751  15.156  13.246  0.0875 -0.2342  0.1858
16540W        W35394   6.628   5.995  17.144 -0.0381 -0.4003  0.1437
16541W        W35395  10.368   8.165  16.402  0.1184  0.0381 -0.0626
16542W        W35396  15.829  13.828   2.084  0.2158 -0.1701 -0.2834
16543W        W35397  15.678   3.506  15.741  0.0751 -0.1665  0.0600
16544W        W35398  15.916  13.696  13.374 -0.1263 -0.0075  0.2094
16545W        W35399   0.556  15.333   3.642 -0.0558  0.1111 -0.1120
16546W        W35400  14.245   5.185   1.231  0.4182 -0.1916  0.1823
16547W        W35401   1.011  12.232  16.370  0.0293  0.3616  0.0505
16548W        W35402   0.192  14.651  17.004  0.0529  0.0542 -0.0912
16549W        W35403   7.249  11.926   1.025 -0.1133  0.2029 -0.2682
16550W        W35404   4.224   4.773  12.588  0.3398 -0.3091 -0.1579
16551W        W35405  15.562   6.802   2.200 -0.0743  0.1214  0.2425
16552W        W35406  15.325   0.143   5.235 -0.1725 -0.0082 -0.0497
16553W        W35407  17.037   3.478  16.279  0.3616  0.0065 -0.0818
16554W        W35408   0.733  13.464   0.115  0.0643 -0.0136  0.2521
16555W        W35409  10.467  17.267  16.338  0.2559 -0.1071  0.2620
16556W        W35410  13.809   6.177  12.314 -0.1156 -0.0990 -0.1481
16557W        W35411   2.548  11.214  15.981  0.2486 -0.0722 -0.3693
16558W        W35412   8.238   6.283   3.448 -0.0244 -0.2092 -0.0591
16559W        W35413  11.685   8.992  12.311 -0.0982 -0.0203  0.0375
16560W        W35414   3.859   8.529   4.370  0.0664 -0.0856 -0.0033
16561W        W35415   0.693  11.406  14.167  0.0600  0.0758 -0.3364
16562W        W35416   9.763  13.496   3.017  0.1228  0.1138 -0.0767
16563W        W35417   9.577  14.155   4.149 -0.2137  0.0052  0.1302
16564W        W35418  14.997  15.193   1.083  0.0828  0.0698 -0.0531
16565W        W35419   3.542   9.082  14.286 -0.1051  0.1354  0.1173
16566W        W35420  15.621   9.844  16.747  0.0111 -0.2141  0.0355
16567W        W35421  14.346   6.150  14.837  0.0193  0.1768  0.1621
16568W        W35422   8.745   9.811  13.540  0.1985  0.1467 -0.1467
16569W        W35423  12.213  15.481   5.078 -0.3970  0.0379 -0.0289
16570W        W35424  10.522   8.937   4.650 -0.1529 -0.1527  0.1044
16571W        W35425  14.466   1.759  16.558 -0.0951 -0.4604 -0.1813
16572W        W35426   4.294  16.071   2.130  0.0741 -0.1437  0.2189
16573W        W35427   6.375  14.226  12.613 -0.2606 -0.0800  0.1812
16574W        W35428   2.310   6.751  13.653 -0.0632 -0.1701  0.0922
16575W        W35429   2.181   5.101   5.025 -0.0134  0.1182 -0.1190
16576W        W35430  15.350   9.998   0.471 -0.2806 -0.1151  0.1799
16577W        W35431   8.541  15.465   2.659  0.0501  0.1298 -0.1807
16578W        W35432   6.943   2.261   2.782  0.1189  0.4026  0.2070
16579W        W35433  13.420   9.074  14.342  0.4009 -0.0838  0.1534
16580W        W35434  13.279  12.355   1.281 -0.3463  0.1708 -0.2011
16581W        W35435   7.889   2.604   0.966  0.0435 -0.0792 -0.1346
16582W        W35436   8.317   9.981   1.582 -0.1052  0.1055 -0.1137
16583W        W35437   4.034   5.123   4.550  0.2848  0.1641 -0.3919
16584W        W35438  15.357   1.180   2.962 -0.2954 -0.3029 -0.0198
16585W        W35439  16.375   3.514  13.100 -0.0927  0.0681 -0.1092
16586W        W35440   4.263  14.283   1.783 -0.3433  0.0372  0.2383
16587W        W35441   4.412   7.797  17.066 -0.1105 -0.0532 -0.2045
16588W        W35442  12.028   1.240  14.648 -0.1546  0.1307 -0.0257
16589W        W35443   3.578   3.188  17.162 -0.0009 -0.2193 -0.1442
16590W        W35444   5.776   8.497   1.311 -0.0762  0.0086  0.2136
16591W        W35445  16.513  10.418  13.801 -0.0397 -0.0961 -0.3627
16592W        W35446  15.664  14.469   0.243  0.3443 -0.0843 -0.1472
16593W        W35447   5.504   2.251  12.363 -0.1855 -0.0025 -0.0537
16594W        W35448  11.822  12.781  14.085 -0.2148  0.3450  0.1839
16595W        W35449   7.275  15.017   4.322  0.0562  0.0814  0.5377
16596W        W35450   5.126   6.330  15.294 -0.0554 -0.2934  0.0401
16597W        W35451   3.882  10.778   5.656 -0.1691 -0.0605 -0.0698
16598W        W35452   1.491  13.222  14.263  0.1612 -0.1625 -0.0554
16599W        W35453  12.382   6.283   0.572  0.1784 -0.1623  0.1665
16600W        W35454   0.390   6.155  13.388  0.0302 -0.0031  0.2072
16601W        W35455   5.785  15.000   2.723 -0.1812 -0.3304  0.4208
16602W        W35456   6.216   8.962   5.164  0.0008  0.0451  0.0834
16603W        W35457   8.904   5.264   1.910 -0.2173  0.1792 -0.1230
16604W        W35458  16.626  15.484  13.220 -0.1170  0.1446  0.0342
16605W        W35459   1.587   4.326  12.322  0.1052  0.1502  0.3309
16606W        W35460  14.663  17.108   2.738 -0.2545  0.1688  0.0164
16607W        W35461   2.268   7.938  12.407 -0.0725 -0.1901  0.3368
16608W        W35462   4.138   6.202  15.651  0.1853 -0.0604  0.0488
16609W        W35463   5.401   2.432   1.682  0.2583 -0.1943  0.2767
16610W        W35464  15.923   3.145  15.112 -0.0721  0.1033 -0.0904
16611W        W35465  16.931   0.773   4.059 -0.2548 -0.3040  0.2398
16612W        W35466   8.310   2.809  14.897  0.1774  0.0593 -0.0943
16613W        W35467   6.680   1.223   1.746  0.3166  0.2782  0.1863
16614W        W35468   3.366  16.479   1.145 -0.0506  0.2999  0.0857
16615W        W35469  11.492   4.304   0.265  0.1932  0.1077  0.0245
16616W        W35470   8.413  14.620  13.729 -0.0112 -0.0381  0.0115
16617W        W35471  12.244   7.548  14.568 -0.0967 -0.0049 -0.2523
16618W        W35472  12.448   0.853  15.402  0.3321 -0.1467  0.2002
16619W        W35473   3.763   0.634  15.601 -0.1324  0.0410 -0.2275
16620W        W35474  11.286   7.323   3.173  0.1595  0.1717 -0.0414
16621W        W35475   4.626   4.998  16.000  0.2864 -0.0454  0.2607
16622W        W35476   2.473   9.454   5.709  0.1408 -0.1428  0.0480
16623W        W35477   2.790   8.289  13.565 -0.0667 -0.1050  0.0598
16624W        W35478  12.922  15.538   1.497  0.2671  0.1786 -0.0763
16625W        W35479   2.359   7.315   2.540  0.2405 -0.1531 -0.2002
16626W        W35480  12.190  14.923  15.524 -0.1714  0.2499 -0.1687
16627W        W35481   7.713   8.084   1.277  0.0876  0.0126  0.1365
16628W        W35482  14.931   0.503   1.435  0.0433  0.1992 -0.0850
16629W        W35483  14.141   0.627  15.611  0.3081  0.0159  0.0028
16630W        W35484  12.889  14.949  16.089 -0.0813  0.0427  0.0803
16631W        W35485  13.347   4.265   3.628  0.3999  0.0641  0.1251
16632W        W35486  10.691  16.727   5.321 -0.2334 -0.1842 -0.0650
16633W        W35487  15.202   4.047  17.114  0.1498  0.2552  0.0052
16634W        W35488   4.925  11.244  15.278 -0.3557 -0.0858  0.0489
16635W        W35489  11.063  16.523   0.801 -0.1151  0.1510  0.0305
16636W        W35490   4.209  14.828   5.093  0.0025 -0.1399  0.3091
16637W        W35491   7.807  16.947   0.721 -0.1908 -0.3884 -0.0674
16638W        W35492   0.307   8.907  15.852  0.3175 -0.1553 -0.0422
16639W        W35493   1.042  13.864   0.237  0.1431  0.1562 -0.1775
16640W        W35494  11.368   3.598   4.807 -0.0458 -0.1181 -0.1530
16641W        W35495   3.146  14.954   1.330  0.0105 -0.0666 -0.1255
16642W        W35496   6.643   6.617   3.954  0.0158 -0.2001 -0.0813
16643W        W35497  16.193   3.710   3.429  0.1045  0.0392  0.0981
16644W        W35498   0.382  12.324   2.891 -0.0589 -0.0018 -0.0818
16645W        W35499   7.976  14.060   1.367  0.1230  0.1127 -0.2208
16646W        W35500  15.093   1.876   4.528  0.0028  0.0934 -0.1160
16647W        W35501   0.810   6.922  13.356 -0.0408 -0.1824 -0.1020
16648W        W35502  14.739  17.246   2.028  0.0488  0.2018  0.1526
16649W        W35503  15.105  11.032   2.934 -0.0298  0.1029 -0.1795
16650W        W35504   8.747  16.244   1.856  0.0017 -0.1264 -0.0182
16651W        W35505   6.270  16.502  14.394 -0.1990 -0.0708 -0.1717
16652W        W35506  13.935   9.965  16.383 -0.0172 -0.0245 -0.0999
16653W        W35507  10.476   0.769  15.301 -0.1824 -0.0119 -0.0368
16654W        W35508  15.635  14.615   2.263 -0.2012 -0.0520  0.0149
16655W        W35509  15.970   3.430  13.395  0.1799 -0.2537  0.3630
16656W        W35510   0.200   2.543  16.877 -0.0899 -0.3757  0.1505
16657W        W35511   5.333   6.385   1.249  0.1787  0.1157  0.1472
16658W        W35512  16.009   8.970   4.878  0.2065 -0.0818  0.0814
16659W        W35513   1.096   6.230   3.899 -0.2150 -0.1395  0.0947
16660W        W35514  16.603  12.901   4.608 -0.2336 -0.0692  0.0825
16661W        W35515   1.970   4.175   3.445 -0.1518 -0.1752 -0.1283
16662W        W35516   7.431  10.953   0.834 -0.2916 -0.0354 -0.1108
16663W        W35517  16.631  15.832   0.350  0.0778 -0.0353  0.4526
16664W        W35518  11.902   5.867  11.814 -0.0346 -0.3925 -0.2102
16665W        W35519  12.076  14.465  13.455 -0.1065  0.2063  0.2114
16666W        W35520  15.378  15.136   3.862 -0.1816 -0.2515 -0.0528
16667W        W35521   2.754   7.913  15.315 -0.3067  0.1058  0.1680
16668W        W35522   0.386   2.800  16.457 -0.2753 -0.2195  0.1465
16669W        W35523  15.564   4.344   3.766  0.0241  0.0051 -0.0386
16670W        W35524  15.334   0.777   2.532 -0.1517  0.2397  0.3858
16671W        W35525   7.180   0.134   3.239 -0.5434  0.0942  0.1191
16672W        W35526   8.105  16.251  15.549 -0.2261 -0.3893  0.0459
16673W        W35527   7.971   4.940  16.952 -0.0615 -0.0123 -0.0823
16674W        W35528   4.709   0.472   0.330  0.0386 -0.2359 -0.0522
16675W        W35529   7.865  15.484  14.635 -0.0538 -0.0696  0.1556
16676W        W35530   6.910   8.345   2.786  0.3520  0.0918  0.0773
16677W        W35531   4.651   5.921   4.488  0.2137  0.0338 -0.1683
16678W        W35532   9.174   6.606   1.861 -0.0925 -0.1525  0.1758
16679W        W35533  16.405   9.329   2.687 -0.1175 -0.1833  0.0299
16680W        W35534  14.036   1.057   4.325 -0.2816 -0.1333  0.1134
16681W        W35535   1.897  12.113  13.349  0.3091  0.2196 -0.0187
16682W        W35536  14.500  16.085   3.085  0.0054  0.1286 -0.0035
16683W        W35537   4.319  13.681  16.570 -0.1297 -0.0601 -0.3342
16684W        W35538   3.199   2.560   5.127 -0.1499 -0.3433 -0.0766
16685W        W35539   4.501   2.241   1.873  0.3026 -0.0549  0.0463
16686W        W35540  12.624  13.859   0.747 -0.0186 -0.1792 -0.0695
16687W        W35541  10.727   8.524  15.445  0.0156 -0.2541 -0.0409
16688W        W35542   4.532  11.001  14.919  0.1466  0.1461 -0.2921
16689W        W35543   2.585   1.354   5.137 -0.0094  0.1909  0.2649
16690W        W35544   5.682   1.035   1.562  0.1844 -0.0672 -0.0469
16691W        W35545   6.929   9.727   5.646 -0.0345 -0.1624  0.0984
16692W        W35546   6.783   8.542   2.234  0.0427  0.0700 -0.2711
16693W        W35547  14.206   8.766   2.833  0.0093 -0.3125  0.0728
16694W        W35548  11.495   6.054   3.983  0.0127  0.0621 -0.1586
16695W        W35549  13.433   9.403  12.379 -0.1249 -0.0093  0.0982
16696W        W35550   1.067   6.771   0.984  0.0354 -0.0372 -0.1092
16697W        W35551   3.049   9.128   2.830 -0.1341 -0.0204 -0.0786
16698W        W35552   9.858   6.235  13.430  0.0133  0.3327 -0.0722
16699W        W35553  14.593   9.877   3.945  0.0707 -0.1099 -0.1575
16700W        W35554   2.963  11.898  15.400  0.2875  0.0816  0.1805
16701W        W35555   8.985  10.355  13.368 -0.3213 -0.1865  0.0858
16702W        W35556   4.776   9.841  14.257  0.1474 -0.0431 -0.1771
16703W        W35557   0.521  14.930   3.374  0.0741 -0.2456  0.0952
16704W        W35558   3.191  15.979   5.727 -0.1057  0.1622  0.1193
16705W        W35559   5.056  16.102   3.223 -0.0591 -0.2474  0.3041
16706W        W35560   1.537   9.674  16.484  0.2792  0.0544 -0.3308
16707W        W35561   1.698  10.773  13.161  0.1528 -0.0159 -0.0947
16708W        W35562   2.402   0.822  12.789 -0.3148 -0.1262 -0.2624
16709W        W35563   3.271   9.915   1.714  0.0080  0.1256 -0.3006
16710W        W35564   9.685   7.314   4.924 -0.0272 -0.0732  0.0513
16711W        W35565   4.955  12.961  16.228 -0.1540  0.1812  0.1387
16712W        W35566   0.587   7.314  13.898  0.0331  0.1119 -0.0422
16713W        W35567   3.043  11.060  12.623 -0.2313 -0.2740  0.0701
16714W        W35568  15.513  13.588  13.739  0.1879 -0.3866 -0.2143
16715W        W35569   5.405  12.043  17.321  0.2698  0.0150  0.2196
16716W        W35570   2.120  15.408   2.974 -0.0178 -0.0937  0.0334
16717W        W35571   2.070  16.167   3.903  0.1059 -0.1936 -0.0579
16718W        W35572  11.840   8.250   3.427  0.0427  0.2416  0.1176
16719W        W35573   0.564  14.538  15.000  0.0814 -0.2916 -0.0717
16720W        W35574   9.481   6.217  13.808  0.3948 -0.2634 -0.0294
16721W        W35575   1.982  17.169   1.621  0.0262 -0.1011  0.0996
16722W        W35576  11.082   7.264   4.150  0.0362  0.1030 -0.0289
16723W        W35577  10.003  10.215  15.174 -0.0637  0.1999 -0.0645
16724W        W35578  11.465  16.334  14.368  0.2919  0.3603 -0.0705
16725W        W35579  12.243   8.616   3.709  0.3321  0.1252 -0.1161
16726W        W35580   6.926  12.825   3.492 -0.1337 -0.1618 -0.1717
16727W        W35581   3.521   3.778   3.124  0.0668  0.0841 -0.0436
16728W        W35582   5.849   0.069  12.293 -0.0017  0.0010 -0.5972
16729W        W35583   4.556   8.384  16.983 -0.0759 -0.1415  0.0177
16730W        W35584   8.155   2.330  12.727  0.0980  0.1173  0.2601
16731W        W35585   4.707   4.284  15.882  0.1955  0.0730 -0.1118
16732W        W35586   1.285   8.820   4.441  0.0026 -0.0054 -0.0653
16733W        W35587  16.152   2.869   0.901  0.1308  0.2339 -0.1132
16734W        W35588   0.802   6.274  15.981  0.1098 -0.2229  0.2325
16735W        W35589  14.525  17.057  12.773 -0.3147  0.0083 -0.1388
16736W        W35590  15.012   3.241   0.472 -0.1033  0.3677  0.1683
16737W        W35591  14.408   8.755  16.561  0.3405  0.2188 -0.1404
16738W        W35592   6.402  13.879  16.370 -0.2647  0.0299  0.2358
16739W        W35593   4.043  15.621   4.648 -0.4040  0.1067  0.1533
16740W        W35594  12.922   2.470   5.018 -0.2211 -0.1336  0.2446
16741W        W35595   0.549  14.007   0.279  0.1634 -0.0923 -0.4717
16742W        W35596  14.697   5.763  16.102 -0.1579  0.1995  0.2510
16743W        W35597  17.378   7.364   4.919 -0.1850  0.0821 -0.2392
16744W        W35598  14.781   8.791  16.115 -0.0592  0.3529  0.2831
16745W        W35599  14.782   4.314   3.581  0.0922  0.1435  0.2361
16746W        W35600  12.899   3.084  14.248  0.0975  0.0106  0.4536
16747W        W35601   4.192   1.975   0.936 -0.1775  0.0716 -0.2514
16748W        W35602   9.249   8.395  14.842  0.0284  0.0568 -0.1554
16749W        W35603  12.331   4.258   0.165  0.0182  0.1767 -0.0093
16750W        W35604   1.612  15.722  14.160 -0.1614  0.4594 -0.4226
16751W        W35605  11.673   7.027   2.903 -0.2868  0.1502 -0.0561
16752W        W35606  11.340   6.593   3.894  0.1533 -0.1393 -0.1265
16753W        W35607  10.307   8.071  12.879  0.0705  0.1225 -0.3710
16754W        W35608   7.955   6.415   0.324 -0.1844 -0.0392 -0.0379
16755W        W35609  13.423   8.753   0.102 -0.0900  0.0435  0.2143
16756W        W35610  12.480   7.924   0.181 -0.4146 -0.0100  0.1194
16757W        W35611   4.367  16.809  14.193  0.4479 -0.1055  0.0654
16758W        W35612  13.472  13.597   2.038 -0.0146 -0.0958 -0.1667
16759W        W35613  14.245   1.681   0.084 -0.2211 -0.1970 -0.0922
16760W        W35614  10.402   0.026  15.872 -0.0231  0.0505 -0.3086
16761W        W35615  16.038  15.972   5.803 -0.2375 -0.1551  0.3175
16762W        W35616  15.659   1.032  16.550  0.0762 -0.2885 -0.1279
16763W        W35617  11.390   1.366   3.912  0.1898 -0.0487 -0.1881
16764W        W35618  11.554  16.706  15.579 -0.1208  0.2943 -0.0176
16765W        W35619  12.110   7.169   4.319 -0.2341  0.1710 -0.0128
16766W        W35620   2.881   2.844  12.337 -0.3120 -0.1732 -0.2227
16767W        W35621   7.744   1.494  16.431 -0.2633 -0.1458  0.0939
16768W        W35622   0.896  15.377  12.822  0.3002  0.3730  0.0893
16769W        W35623   1.280  10.010  16.718  0.2264  0.3296  0.0314
16770W        W35624  13.940   2.481   3.977  0.1552  0.0455 -0.1570
16771W        W35625  15.330  15.492   0.863 -0.1578 -0.1234 -0.0637
16772W        W35626  14.926  17.107  16.217 -0.2293 -0.2499  0.1059
16773W        W35627  10.149   6.293   1.453 -0.3283  0.0928  0.0762
16774W        W35628  17.126  11.596  17.379  0.4964 -0.0328  0.3253
16775W        W35629   3.372   0.066  11.397  0.1504  0.1493  0.1965
16776W        W35630  10.837  15.248  15.295  0.0694  0.0795  0.0341
16777W        W35631   0.437  10.150   2.257  0.1281 -0.1443  0.3176
16778W        W35632   9.762  15.966  12.810  0.3851  0.1225  0.0612
16779W        W35633   5.219  16.769   5.487 -0.0499  0.2108 -0.2064
16780W        W35634   7.068  13.601   1.241  0.1185 -0.0310 -0.0399
16781W        W35635  12.804  15.678  15.384  0.0612  0.3369 -0.1332
16782W        W35636  11.626   8.937  15.353  0.2619  0.0965  0.1894
16783W        W35637   8.001   4.946  15.561 -0.2305 -0.0498  0.0634
16784W        W35638   9.591   6.923   4.601 -0.1578  0.0125 -0.1631
16785W        W35639  10.343   1.950  15.955 -0.4586  0.1672 -0.0430
16786W        W35640   4.283  13.337   1.090  0.1948  0.1857  0.1184
16787W        W35641   4.818   0.092  13.512  0.0185 -0.2646  0.3458
16788W        W35642  15.194  10.909   4.860  0.2827  0.0601 -0.0701
16789W        W35643   0.111   4.088  14.417  0.6204  0.1722  0.0799
16790W        W35644   7.865   4.352  15.610 -0.0113  0.1950 -0.0407
16791W        W35645   2.634  16.547   2.919  0.3005  0.2159  0.1156
16792W        W35646   9.382   8.457  17.419 -0.0295  0.1377 -0.1390
16793W        W35647   4.317  16.550  13.695  0.4384  0.2885 -0.2768
16794W        W35648  17.362   2.347  17.255  0.0171  0.3410 -0.0385
16795W        W35649  11.588  11.863   3.190  0.0276 -0.0146  0.0776
16796W        W35650   4.291   9.982  16.483 -0.0817 -0.1272  0.3219
16797W        W35651   9.152   3.545   2.054  0.1239 -0.0385  0.3279
16798W        W35652  12.295   3.728   0.070 -0.1659  0.2993  0.0622
16799W        W35653   7.721   2.205   4.149  0.0592 -0.0374  0.2026
16800W        W35654  12.615   7.348   4.036 -0.1389 -0.0499 -0.3525
16801W        W35655  16.089  13.151   3.534 -0.4472 -0.3107  0.0346
16802W        W35656   6.637   4.607   0.050 -0.1208  0.0009 -0.0554
16803W        W35657   0.331   6.694  13.427 -0.0521  0.1031 -0.0581
16804W        W35658   5.328  15.608  17.108  0.2250  0.2528 -0.1360
16805W        W35659   2.136   7.432  13.139 -0.1361  0.2106  0.3213
16806W        W35660   7.004   0.546  13.878  0.0127  0.1734 -0.0527
16807W        W35661  16.451   6.660  15.260 -0.1964 -0.1891 -0.2625
16808W        W35662   1.373   6.715   3.786 -0.1007 -0.2336 -0.1432
16809W        W35663   1.311   7.294  14.297  0.2397  0.3378  0.0610
16810W        W35664  12.043   5.910   2.355 -0.1985  0.3007 -0.0544
16811W        W35665   9.446   0.927  13.987  0.4037 -0.2053  0.1719
16812W        W35666  15.866  13.200  13.294  0.2797  0.0107 -0.0476
16813W        W35667   7.343   1.238  15.445  0.0559  0.0206  0.1651
16814W        W35668   4.460  10.045   4.779 -0.1546  0.0401  0.1297
16815W        W35669  10.331  11.101  13.290  0.1668 -0.2819 -0.0154
16816W        W35670   1.510  12.111  15.142  0.0286  0.1819  0.0164
16817W        W35671   8.036   3.068  16.168  0.1797 -0.2232  0.1037
16818W        W35672  10.701   7.814  12.490  0.0189 -0.0985 -0.0113
16819W        W35673  14.175   7.095   3.526 -0.4781  0.0589 -0.3512
16820W        W35674  16.873  10.466  12.954 -0.2668  0.1503  0.1550
16821W        W35675   4.199   9.001  15.216 -0.1221  0.2223  0.0060
16822W        W35676  16.734   2.210   2.399 -0.1943  0.3247 -0.0385
16823W        W35677   0.179  12.243  15.365  0.2517 -0.0382  0.1138
16824W        W35678   2.224   9.317   1.326 -0.1486 -0.0195 -0.1415
16825W        W35679   2.973   2.694   2.160 -0.1083  0.3037 -0.2476
16826W        W35680   1.289   2.396  16.896  0.1306 -0.0280  0.1783
16827W        W35681  16.626   7.061  12.034 -0.0797 -0.2839  0.1016
16828W        W35682   6.029   3.756  14.723  0.2391  0.1836 -0.1991
16829W        W35683  11.527   7.326   0.373  0.2397 -0.0161 -0.1292
16830W        W35684   6.563   0.616  12.365 -0.2093  0.0252 -0.1944
16831W        W35685  14.293  15.458  16.548  0.2587  0.1704 -0.1149
16832W        W35686  15.794  15.051   3.603  0.1713  0.1082 -0.2567
16833W        W35687   7.085   8.012  16.029  0.3219 -0.0864 -0.0525
16834W        W35688   0.972   9.078  13.255  0.0357  0.0092  0.0465
16835W        W35689   7.045  13.872   5.542  0.1662 -0.0123 -0.1664
16836W        W35690   9.095   4.630   1.335 -0.0323 -0.0393  0.2283
16837W        W35691  14.372  13.519   2.919  0.4994 -0.0912  0.0799
16838W        W35692  13.514   8.661  16.530 -0.0519 -0.0302  0.1113
16839W        W35693  10.527   5.669   3.876  0.0047 -0.1321 -0.2008
16840W        W35694   9.748  10.904  15.598 -0.2288  0.0669 -0.1803
16841W        W35695   9.097   9.050  13.197 -0.0728 -0.0147  0.2518
16842W        W35696   5.665   1.035   2.562 -0.1613  0.0211  0.0362
16843W        W35697   9.941   1.766  12.972 -0.1630 -0.1367  0.3368
16844W        W35698   2.319   6.093  12.767  0.0567  0.0371  0.2181
16845W        W35699  13.839   7.900  16.565  0.0112 -0.0839  0.1053
16846W        W35700   5.664   8.388  16.931  0.0752 -0.2472 -0.1121
16847W        W35701  12.810  15.941   1.179 -0.2068  0.1054 -0.0231
16848W        W35702  13.240  12.427  12.548 -0.2656  0.0852  0.0985
16849W        W35703  17.316   8.199  15.789 -0.2827 -0.1019 -0.0536
16850W        W35704   4.028  13.072  12.865  0.1538 -0.1305 -0.1593
16851W        W35705  13.135   6.070  14.828 -0.0061 -0.1055  0.0872
16852W        W35706   9.706   2.115   2.620  0.3077 -0.1020 -0.1817
16853W        W35707   8.489   0.645   2.010 -0.0767 -0.2353  0.0182
16854W        W35708   1.593   5.970  15.695  0.0140  0.0704  0.0014
16855W        W35709   5.783  16.240  16.001 -0.0148 -0.2135 -0.5151
16856W        W35710  10.417  13.527   0.420 -0.2208 -0.0043 -0.3617
16857W        W35711   3.641   0.067  15.417 -0.0142  0.6461  0.0825
16858W        W35712  12.979   2.924  12.251  0.1359 -0.1179  0.2978
16859W        W35713  10.846  10.709  14.041 -0.0233 -0.1907 -0.0396
16860W        W35714   9.900   4.312   3.154  0.0767  0.0414  0.1536
16861W        W35715   5.102   7.471  14.298 -0.1186 -0.0170  0.1189
16862W        W35716  15.773   0.889   3.785 -0.3192  0.0981 -0.0760
16863W        W35717   6.147   9.533  14.981 -0.0332  0.2754 -0.2911
16864W        W35718  13.040   8.083  16.883  0.0125 -0.0079  0.0266
16865W        W35719   2.221  12.555   4.539 -0.0735 -0.0662 -0.1356
16866W        W35720   0.458   8.850  14.887 -0.1812  0.0114 -0.1049
16867W        W35721  13.713   5.221   2.367  0.2045 -0.3212 -0.0397
16868W        W35722   2.022  12.987   2.555  0.1252  0.1419  0.2573
16869W        W35723   5.583   7.822  13.135  0.2395  0.2835 -0.0583
16870W        W35724   6.398  14.547   1.680 -0.0502  0.0701  0.0097
16871W        W35725   5.968   7.096  15.419  0.1060  0.0531  0.0401
16872W        W35726   6.828   2.000  15.527 -0.0182  0.1532 -0.1756
16873W        W35727  11.968  11.951   4.407 -0.0923 -0.0009 -0.1798
16874W        W35728   6.017   0.584   0.949  0.2579 -0.0567  0.2897
16875W        W35729  12.506  12.016   5.368  0.2651 -0.0871  0.0955
16876W        W35730   7.654  16.406  13.266  0.1081  0.2027  0.1466
16877W        W35731  12.108   2.136   0.398 -0.2211 -0.0825  0.0482
16878W        W35732   2.787  15.935  13.739 -0.0832 -0.1017  0.1207
16879W        W35733   5.114  12.349  14.942 -0.0734 -0.1115 -0.2712
16880W        W35734  14.072  10.532  12.301  0.1115  0.0481  0.1629
16881W        W35735  15.642   2.758  16.068 -0.3756  0.1238  0.4486
16882W        W35736  12.232   4.164   4.935 -0.0032  0.1540  0.1419
16883W        W35737  12.504  12.289  13.574  0.0770  0.1259 -0.3003
16884W        W35738  11.896   7.210  13.265  0.1692 -0.2798 -0.2168
16885W        W35739  14.577   9.296   2.556 -0.3580 -0.0353  0.2098
16886W        W35740   5.131  17.197   1.106  0.0807  0.0098 -0.2070
16887W        W35741  13.984  11.921  15.126  0.0378 -0.0912  0.1760
16888W        W35742   6.396   1.875   3.649  0.0329  0.2635 -0.1619
16889W        W35743   1.624   3.212  15.772 -0.1546 -0.0412 -0.0351
16890W        W35744   5.415   5.517  17.000 -0.1714 -0.0118  0.1159
16891W        W35745   8.218   0.190   2.313 -0.1364 -0.2760  0.0755
16892W        W35746   1.580  11.583   2.262 -0.1284 -0.2060 -0.1033
16893W        W35747   4.116  15.636  13.185  0.0500  0.0096 -0.1084
16894W        W35748  16.832   7.666  12.754 -0.6450 -0.1809  0.0025
16895W        W35749  11.109   5.051  14.790 -0.0983 -0.3954 -0.0055
16896W        W35750  16.166   4.866  15.163 -0.0442 -0.1470  0.0357
16897W        W35751   4.859  16.935  14.317 -0.0942  0.1476  0.1032
16898W        W35752   0.616   0.455  16.385  0.1176  0.0069 -0.2123
16899W        W35753  16.685   1.467   5.463 -0.0241 -0.0300 -0.2383
16900W        W35754   4.548  15.282  16.504 -0.0185 -0.2373 -0.0544
16901W        W35755  12.713  11.942  16.801 -0.2101  0.1445 -0.2815
16902W        W35756  10.086  11.819   0.071 -0.1945  0.1441 -0.4296
16903W        W35757   6.819   5.549  14.508  0.0392 -0.2114 -0.0784
16904W        W35758   0.424   9.853  15.014 -0.0108 -0.0206  0.0134
16905W        W35759   3.619  10.855  16.157 -0.2153  0.0590 -0.1724
16906W        W35760   9.035  17.050   3.459 -0.1865  0.0781  0.1753
16907W        W35761   6.224   3.896   1.858 -0.3364 -0.1735  0.1063
16908W        W35762   2.411   9.727   5.236  0.0818  0.2537 -0.1911
16909W        W35763  13.806  16.041  14.792  0.2526  0.2105 -0.2395
16910W        W35764   2.175   8.500   4.514 -0.0600  0.1272 -0.0383
16911W        W35765  13.131  15.200  14.607 -0.1579  0.1191 -0.0421
16912W        W35766   2.489  12.091   5.047 -0.0611 -0.2500  0.1519
16913W        W35767  14.990   7.211  14.119 -0.0017 -0.1485  0.3584
16914W        W35768   2.701  17.036   5.195 -0.0647 -0.2628  0.3452
16915W        W35769  11.551   5.230   1.104  0.0636  0.1050  0.1611
16916W        W35770  12.016  14.472   0.421  0.3900 -0.0935 -0.1731
16917W        W35771  12.288   9.849  13.037  0.4599 -0.0960  0.2697
16918W        W35772  17.193  13.752  16.934 -0.1124 -0.0674 -0.2194
16919W        W35773  11.044   3.047   2.162 -0.1788  0.3317 -0.1066
16920W        W35774   6.284  15.441   3.260 -0.0726 -0.0048  0.3733
16921W        W35775   7.511  11.654  15.835  0.2340  0.2657  0.1075
16922W        W35776  10.177  16.136   5.157 -0.1332 -0.0666 -0.0714
16923W        W35777   2.960   3.966   1.743  0.0606 -0.1947 -0.1180
16924W        W35778   4.901  13.095   5.887  0.1806 -0.2565  0.1395
16925W        W35779   0.823   6.387  12.572 -0.1752 -0.0685 -0.1881
16926W        W35780  17.021  10.427  15.769 -0.0161 -0.3523 -0.2282
16927W        W35781  12.418  12.779  14.842 -0.2631 -0.0249 -0.1345
16928W        W35782  10.367   5.044   0.690  0.1688  0.0611  0.4191
16929W        W35783   4.566  10.772   1.291  0.3083  0.0577 -0.1158
16930W        W35784   3.399  15.056  12.980 -0.0914 -0.0450 -0.0146
16931W        W35785   9.839  16.722   4.755 -0.0299  0.0115 -0.4105
16932W        W35786   9.675   6.238   4.407  0.0627  0.2478 -0.0301
16933W        W35787   9.607   3.718  16.956  0.2421 -0.1172 -0.0705
16934W        W35788  13.813  12.308   2.261 -0.0276 -0.0351  0.1202
16935W        W35789   0.957  10.432   1.080 -0.1025 -0.0109 -0.0651
16936W        W35790   9.973   5.097  15.308  0.1339 -0.1514  0.2788
16937W        W35791  15.978   1.428  15.820  0.0450  0.1961 -0.1929
16938W        W35792   3.445   6.822   3.825  0.3140  0.1133 -0.1321
16939W        W35793   8.948  13.778   3.449  0.1581  0.2509 -0.1043
16940W        W35794  12.042  10.929  12.649  0.0466 -0.1231 -0.0106
16941W        W35795  12.651   2.876   5.154 -0.0839 -0.0594  0.1706
16942W        W35796   0.338   7.952  16.840  0.0706 -0.1552  0.1753
16943W        W35797   2.374   0.039   2.844 -0.1503 -0.1504  0.1603
16944W        W35798  16.474   8.889   3.945  0.3892 -0.2367 -0.2103
16945W        W35799   8.837   8.368  13.727 -0.2244 -0.0730 -0.0405
16946W        W35800  14.165  17.404  13.723 -0.0845 -0.1761  0.0106
16947W        W35801  16.991   4.018  13.615  0.1588  0.0768  0.2185
16948W        W35802   0.569  14.619   1.494  0.1588  0.2355 -0.0114
16949W        W35803   7.454   2.370   3.767 -0.2012  0.3571  0.2064
16950W        W35804  12.787  17.028   1.423  0.0745 -0.1270 -0.1577
16951W        W35805  15.760   8.782  17.220 -0.1789  0.2030  0.0349
16952W        W35806  13.560  12.766  13.918  0.1349  0.1509 -0.2942
16953W        W35807  11.461  16.293   3.161  0.0633 -0.3565 -0.0670
16954W        W35808   9.149  11.100   3.208  0.2147 -0.1276 -0.2355
16955W        W35809  13.761  12.548  14.360 -0.1834 -0.0673  0.0928
16956W        W35810   0.129  10.595   4.904 -0.3228  0.2205 -0.1300
16957W        W35811   6.183  12.196   4.681 -0.0732  0.0379 -0.0644
16958W        W35812   8.968  12.571  16.594  0.1356  0.1164 -0.0346
16959W        W35813   1.935   6.549   5.631 -0.0190 -0.1543  0.0118
16960W        W35814   8.742   8.759  16.589  0.0059 -0.1547 -0.0816
16961W        W35815   8.692  10.785   1.994 -0.2725 -0.1893  0.0076
16962W        W35816   8.593   9.350  15.671 -0.0090  0.2473 -0.0980
16963W        W35817  15.066  10.403  13.476 -0.0353 -0.2544  0.2218
16964W        W35818   4.715  11.150  15.738  0.0110 -0.2593 -0.4700
16965W        W35819   3.735  10.479   1.011  0.2007  0.0039  0.2030
16966W        W35820   1.092   1.714   2.343  0.2316  0.2090  0.3266
16967W        W35821   7.463   6.644  14.037 -0.0856  0.0343  0.1173
16968W        W35822   7.188  14.563  13.696 -0.1431 -0.1500 -0.1588
16969W        W35823   9.862  12.926   0.871 -0.0469 -0.4170  0.0580
16970W        W35824   1.875  17.347  14.841  0.3540 -0.1208 -0.0820
16971W        W35825  12.499   7.057  12.245  0.1646 -0.1612  0.0063
16972W        W35826   2.820   1.114   1.345 -0.2140  0.0388  0.1373
16973W        W35827  16.944   6.468  13.652  0.0485  0.0925 -0.4131
16974W        W35828   3.874  11.757  14.553  0.1675 -0.0069 -0.1606
16975W        W35829  12.823   5.302   1.984 -0.2653 -0.0584 -0.3109
16976W        W35830  15.907   0.396   4.613  0.0763 -0.0781 -0.3219
16977W        W35831   9.501   1.075  15.198 -0.3780 -0.1507 -0.3587
16978W        W35832   1.736  10.171   4.761 -0.1375 -0.0529  0.2428
16979W        W35833   2.658   7.679   4.383  0.2328  0.3766  0.0134
16980W        W35834  11.382   3.152  15.582  0.0175 -0.0408 -0.1533
16981W        W35835  16.393  14.946  12.213 -0.2260 -0.0332  0.0113
16982W        W35836   2.406  15.866   3.680 -0.2386  0.1992 -0.3287
16983W        W35837   4.625  12.832  13.664 -0.0072  0.0912 -0.3733
16984W        W35838  14.670  11.606  13.062 -0.0377  0.0100 -0.1622
16985W        W35839  15.853  12.350  13.803 -0.1767  0.1509 -0.2118
16986W        W35840   9.451   3.005   4.235  0.1155  0.2955  0.0843
16987W        W35841  11.372   1.034  12.480 -0.0176 -0.1277 -0.0880
16988W        W35842   8.027   6.244   5.029  0.2989 -0.0653 -0.0093
16989W        W35843   0.418  15.938   2.813 -0.2042  0.0394 -0.1589
16990W        W35844   8.380  14.589  17.205 -0.1320 -0.3848  0.0193
16991W        W35845   6.972  12.299   3.170  0.0877  0.2957 -0.1528
16992W        W35846   2.111   2.182   3.674 -0.4997  0.1548 -0.2478
16993W        W35847  14.074   0.452   3.704  0.2240  0.0187  0.0907
16994W        W35848  11.206   1.080  13.335 -0.1448 -0.3259  0.0490
16995W        W35849  10.004   2.767  13.221 -0.0161 -0.0714  0.0562
16996W        W35850  12.329  10.573   2.569 -0.1615  0.1848 -0.1129
16997W        W35851  10.167   0.068  16.691  0.1851 -0.2535 -0.1570
16998W        W35852   0.855   3.518  13.715 -0.0218 -0.2026  0.1962
16999W        W35853   8.378   2.494   3.721  0.3433 -0.2140  0.2711
17000W        W35854   6.696   4.652   4.759  0.2715  0.3737 -0.1075
17001W        W35855   0.374  14.003   3.334 -0.0467 -0.0033 -0.0920
17002W        W35856   8.754  12.465   0.394  0.2433  0.0205  0.3141
17003W        W35857   1.803  16.662   2.720  0.1561 -0.0020  0.0126
17004W        W35858   2.375   6.833  16.706 -0.1043  0.1059  0.2505
17005W        W35859   0.678  14.981  16.277 -0.3349  0.1787  0.2239
17006W        W35860   2.932  13.100   2.273  0.2067  0.1624  0.2213
17007W        W35861   6.953  13.220   2.158  0.0581 -0.0781  0.1461
17008W        W35862   7.369   6.874   2.434  0.0228  0.0420  0.2589
17009W        W35863  15.454   5.952  12.497  0.0685 -0.0230  0.1100
17010W        W35864   0.875   0.618  15.138  0.0859 -0.1776  0.1431
17011W        W35865   5.974   6.432  14.509 -0.1198 -0.0836  0.0677
17012W        W35866  11.505   5.888   1.799 -0.2735  0.0758 -0.4510
17013W        W35867  10.733  13.157   0.340  0.0160  0.1764  0.0181
17014W        W35868  13.782  15.108   2.061 -0.2403 -0.0138 -0.1866
17015W        W35869   3.028   2.536   4.200 -0.0920  0.1678 -0.1088
17016W        W35870   9.240  16.905  13.073 -0.1182  0.1295  0.1395
17017W        W35871   6.705   1.926  16.734 -0.1255  0.3683 -0.2114
17018W        W35872   3.073  11.320   1.118 -0.3393 -0.0535 -0.2604
17019W        W35873   3.690  15.515  13.020  0.3401  0.1195  0.0732
17020W        W35874  16.894   6.832  12.956 -0.2704  0.2228  0.1546
17021W        W35875   8.347  15.669  14.762 -0.0269  0.1066 -0.3360
17022W        W35876   8.089   6.670  15.754  0.0591  0.2082  0.0270
17023W        W35877   3.209  12.308   5.701 -0.5291 -0.1006 -0.2279
17024W        W35878  13.605  13.499   2.902  0.1494  0.2734  0.3831
17025W        W35879  10.521  15.526  12.329  0.2727  0.2474 -0.2001
17026W        W35880   8.526  16.537   4.810  0.0232 -0.1266  0.1481
17027W        W35881  12.222   2.985   2.497  0.1477 -0.0335 -0.3301
17028W        W35882   1.327   7.524   1.348  0.2269  0.3165 -0.2382
17029W        W35883   5.827   8.503  12.032 -0.1786 -0.0670 -0.0764
17030W        W35884  17.219   2.222   2.560 -0.2677 -0.2670 -0.0933
17031W        W35885   6.517   8.676   3.306 -0.0568 -0.0006 -0.2368
17032W        W35886  14.990  10.087  16.523  0.0403  0.0112 -0.1106
17033W        W35887   2.599   2.038  13.033  0.1291 -0.1987  0.1732
17034W        W35888  12.924  12.854   0.630  0.0724  0.1327 -0.1242
17035W        W35889   0.536   1.257   0.995 -0.1961  0.3650  0.1599
17036W        W35890  10.010  11.001   2.498  0.2048  0.2766 -0.1900
17037W        W35891   7.457   5.347   4.192 -0.0101  0.1822 -0.3952
17038W        W35892  15.153   3.291  12.603 -0.1028 -0.2384 -0.2651
17039W        W35893  11.146   2.056  12.948  0.3078  0.0866  0.1774
17040W        W35894   3.054   6.714  15.909 -0.2870  0.1000 -0.2530
17041W        W35895   8.078   1.610   1.838 -0.0291 -0.1511 -0.0404
17042W        W35896   8.417   3.437   3.735  0.0132 -0.0679  0.0649
17043W        W35897   5.330  13.301  12.497  0.2735  0.0054  0.1780
17044W        W35898  16.378  13.011   3.111 -0.5858  0.0482 -0.2049
17045W        W35899  14.229   1.170  13.056  0.3952 -0.1970  0.4011
17046W        W35900   2.859  15.782   3.431 -0.0454 -0.0855  0.0674
17047W        W35901   5.645  16.881   0.140 -0.0899 -0.2401  0.0373
17048W        W35902   7.746   6.712  15.010 -0.0062 -0.1003  0.1280
17049W        W35903   1.276   7.272   2.938 -0.0295 -0.0416  0.0654
17050W        W35904  10.173  16.172  16.445 -0.1492 -0.1719  0.0082
17051W        W35905   7.935   7.066   4.641 -0.3445 -0.3955  0.1660
17052W        W35906   9.366  12.683  15.738  0.1418 -0.1103 -0.0568
17053W        W35907  11.268  11.602   1.356 -0.1067  0.1870 -0.1201
17054W        W35908   4.448   7.570  12.407  0.2399 -0.0362  0.1179
17055W        W35909   2.239  13.047   1.078  0.0135 -0.0520 -0.1981
17056W        W35910  11.164   5.638   1.007 -0.0201 -0.1551 -0.0648
17057W        W35911   1.768   0.408  16.342 -0.1080  0.2601  0.0108
17058W        W35912   2.455  12.941   2.293  0.0758  0.0990  0.0180
17059W        W35913  10.118  16.396   4.543  0.1208 -0.4079 -0.0882
17060W        W35914  15.048   2.318   1.425  0.2794 -0.0362  0.0297
17061W        W35915   9.643   7.315   2.125  0.3892  0.0881  0.2674
17062W        W35916  16.988   7.990  17.135  0.0130 -0.0857  0.0275
17063W        W35917   8.369  12.157   0.481 -0.2715  0.4489  0.0898
17064W        W35918   8.280   0.650   0.389 -0.0285 -0.0638 -0.2256
17065W        W35919   5.190  10.555  14.846 -0.1264 -0.2697 -0.1742
17066W        W35920   3.526   7.189   4.203  0.2632  0.0438  0.1279
17067W        W35921   7.092   9.931   6.052 -0.0532 -0.0881  0.0124
17068W        W35922   9.132  13.584   2.194  0.3289 -0.0354  0.0037
17069W        W35923   9.285  13.230  12.777  0.1175 -0.2242 -0.1075
17070W        W35924  11.993  11.497  13.604 -0.0120 -0.1060  0.1102
17071W        W35925   8.748   5.784  15.303 -0.2107 -0.1844  0.0311
17072W        W35926   7.796   9.629  16.970  0.1490  0.1248 -0.0590
17073W        W35927  12.064  14.217  11.183 -0.0579 -0.2732 -0.3893
17074W        W35928  11.861   1.894  15.497  0.0575 -0.0510  0.2139
17075W        W35929  15.833  14.957   0.113  0.2232 -0.0167 -0.3229
17076W        W35930   0.721  14.902   0.289 -0.0203 -0.0241 -0.1164
17077W        W35931  16.878   6.933   4.683  0.0296 -0.0803  0.1108
17078W        W35932   0.481   0.343  15.305 -0.0542  0.0597 -0.0126
17079W        W35933  10.402  14.817   3.111 -0.1172  0.3155  0.2826
17080W        W35934   2.018   9.173  14.039 -0.1861 -0.1207 -0.1373
17081W        W35935   6.068  15.755   5.196  0.1063 -0.0465  0.0363
17082W        W35936  16.385  13.742   1.800 -0.0656  0.1037  0.3478
17083W        W35937   0.982   3.525   2.800  0.0909 -0.0102 -0.3790
17084W        W35938   5.283   1.262  15.975 -0.1281  0.3300 -0.0379
17085W        W35939   7.873   8.507  16.690  0.0416  0.3524  0.0156
17086W        W35940  15.722  16.962   3.097  0.0054  0.3016  0.0403
17087W        W35941   5.574   1.598  14.310 -0.0465  0.3030  0.1308
17088W        W35942  10.444   3.931  12.206  0.0291  0.0057 -0.3342
17089W        W35943   7.300   4.326  16.416  0.0020  0.2822  0.2346
17090W        W35944   8.613   6.856   5.171  0.0993 -0.1777  0.1419
17091W        W35945   9.052   7.079  15.558 -0.2714 -0.0122 -0.1188
17092W        W35946   2.526   7.761  12.950  0.2465  0.0356  0.0319
17093W        W35947   9.506  15.449  15.502 -0.0409  0.0097  0.0568
17094W        W35948  10.381   9.246  13.165  0.1643  0.0307 -0.0968
17095W        W35949  13.119  10.342  14.222  0.0025 -0.0241  0.1112
17096W        W35950  14.302   4.410  14.699 -0.0160 -0.1197 -0.0131
17097W        W35951  16.328  16.898  16.804  0.1584  0.0031 -0.0261
17098W        W35952  15.197  16.001   0.908 -0.1437 -0.1479 -0.1720
17099W        W35953   4.840   4.882   4.099 -0.1067 -0.3024  0.2037
17100W        W35954  15.390  10.798   0.632  0.0102 -0.0647  0.1605
17101W        W35955   4.314   4.793  17.416 -0.0585 -0.2152  0.1234
17102W        W35956  12.310   4.393  14.574  0.1514  0.2203  0.0031
17103W        W35957  12.998   6.507  12.983 -0.0303 -0.0455  0.2044
17104W        W35958  16.932   0.797  14.802 -0.1156  0.3791 -0.1022
17105W        W35959  15.410   1.577   2.639 -0.1609  0.4610  0.1618
17106W        W35960   7.698  13.787  14.674  0.0359 -0.0295 -0.0222
17107W        W35961   6.770   2.453   4.144 -0.0024  0.1473 -0.2213
17108W        W35962  12.360  16.022  12.974  0.0205 -0.2434 -0.2014
17109W        W35963   7.498  10.070   1.903  0.0346  0.2586  0.1895
17110W        W35964   7.705   4.083   4.064 -0.2712  0.0696  0.0335
17111W        W35965   9.629  14.207  15.342 -0.1010  0.1257 -0.3003
17112W        W35966  13.499   7.438   1.185 -0.0733  0.2489 -0.1318
17113W        W35967   7.724  11.301  16.225  0.3952  0.2502 -0.0840
17114W        W35968   8.736  16.703   3.139 -0.1707 -0.0920 -0.0375
17115W        W35969   7.862  17.307   4.194  0.2392 -0.0110 -0.1967
17116W        W35970   0.056   8.605   4.991  0.1477  0.0220 -0.3525
17117W        W35971   8.091   5.760   3.814 -0.0262 -0.0638 -0.0529
17118W        W35972   1.615  15.223  13.543 -0.0199  0.1651 -0.1162
17119W        W35973   7.959  12.369  14.797  0.2929 -0.3068  0.1523
17120W        W35974  11.119  13.232   0.653 -0.1141 -0.0696 -0.0194
17121W        W35975  15.997   3.314   0.356 -0.2268  0.0453  0.2664
17122W        W35976  10.511   2.682  15.832 -0.0412 -0.2458 -0.3477
17123W        W35977  15.099   3.087  17.054 -0.0530 -0.2255 -0.2016
17124W        W35978  15.622   6.706  13.664  0.2269  0.0863 -0.0888
17125W        W35979  11.589   1.352   2.435  0.1669  0.2490 -0.0565
17126W        W35980   0.764   3.700  16.819 -0.1559  0.3058  0.0311
17127W        W35981   0.749  12.380   3.752 -0.0063  0.0140  0.1294
17128W        W35982  10.782   3.433  13.211  0.2752  0.0891 -0.2492
17129W        W35983  10.412   3.200  16.059 -0.2234 -0.1477 -0.1106
17130W        W35984  11.851   5.574   1.335  0.0674 -0.1605 -0.1680
17131W        W35985  14.165   3.255   0.731 -0.1296  0.0502 -0.2304
17132W        W35986   8.530  17.029  14.570  0.0437  0.0286  0.0142
17133W        W35987  14.886  10.987  15.495  0.0861  0.1413 -0.0215
17134W        W35988   7.766  12.798  12.979  0.0410  0.0594  0.1630
17135W        W35989   7.378   5.064   5.020 -0.2812 -0.1908 -0.0423
17136W        W35990   0.303  14.000  17.222 -0.1499  0.0613  0.1533
17137W        W35991  16.502   4.181  13.596  0.1603  0.1512  0.1709
17138W        W35992  16.684   6.248   5.256  0.1393 -0.2578  0.2652
17139W        W35993  16.890  15.167   3.528 -0.1930  0.0580  0.1419
17140W        W35994  12.462  13.231   0.330 -0.2417  0.0643 -0.1962
17141W        W35995   8.766  10.006  12.251  0.1641  0.1468 -0.1630
17142W        W35996  12.833   5.319   2.755 -0.0894 -0.2442 -0.3209
17143W        W35997   5.324   6.134  12.508  0.0313 -0.0567 -0.3728
17144W        W35998   5.704   7.127  12.815  0.1825  0.2527 -0.1589
17145W        W35999   8.369   0.816  16.297  0.0950  0.1144 -0.0542
17146W        W36000  14.306  12.827  16.870 -0.1029 -0.2613  0.1555
17147W        W36001  16.238  17.007  15.515 -0.0674 -0.1878  0.1766
17148W        W36002  13.328   5.989  13.054 -0.1937 -0.0833  0.1633
17149W        W36003   2.788   5.861  13.831 -0.0627 -0.1183 -0.0228
17150W        W36004  14.138   9.227  14.670  0.0902 -0.4321 -0.1488
17151W        W36005   9.371  11.557   5.207  0.0778 -0.2657  0.0471
17152W        W36006   1.947   7.066   2.502 -0.0077  0.1725  0.1426
17153W        W36007  12.394  11.114  16.577  0.0618 -0.4351  0.1918
17154W        W36008   0.171   1.733  13.610  0.4063 -0.1582 -0.2141
17155W        W36009   9.241  15.137   2.051  0.1207  0.0137  0.0866
17156W        W36010   5.622   4.876  15.223 -0.1329  0.1571 -0.0830
17157W        W36011  13.574  12.036  14.524 -0.1790  0.0723  0.4613
17158W        W36012  10.168  16.866   4.388  0.0675 -0.2252  0.2829
17159W        W36013   0.997   6.352   2.483  0.0206 -0.0206 -0.1099
17160W        W36014   1.079   2.608   4.191 -0.0196  0.1224  0.0097
17161W        W36015  14.426   0.283   0.073  0.1398 -0.2335  0.2666
17162W        W36016   9.356  10.192   0.605 -0.0528  0.1379 -0.0534
17163W        W36017   0.109   5.628   1.585  0.1515  0.0984 -0.2481
17164W        W36018   0.920  12.142   0.720  0.0213 -0.2673  0.2120
17165W        W36019  14.447   2.030   2.009  0.2070  0.0934  0.1003
17166W        W36020   3.109   0.090  16.793 -0.0677 -0.1925 -0.1762
17167W        W36021   1.346   2.176   4.861 -0.0875  0.1269 -0.0887
17168W        W36022  11.659   0.973  14.264 -0.1062  0.0518  0.1987
17169W        W36023  13.756  15.658   4.254  0.1588 -0.0014 -0.0064
17170W        W36024  15.212   9.640  14.888  0.1898 -0.0039 -0.0017
17171W        W36025  11.115   3.462   0.532  0.1058  0.1834  0.0967
17172W        W36026   6.045  16.786  15.178 -0.1261  0.1880  0.0853
17173W        W36027   2.627  14.830  13.781 -0.2641 -0.0182  0.0593
17174W        W36028   6.301   1.610   1.915  0.0337 -0.2494 -0.0018
17175W        W36029  15.273  11.441  13.525 -0.0058 -0.0064 -0.0686
17176W        W36030  16.673   4.275  14.062 -0.2720 -0.1258 -0.0370
17177W        W36031  11.705   3.822   4.049  0.2566  0.1536  0.2693
17178W        W36032   9.386  14.380   3.290 -0.0101  0.2000  0.1584
17179W        W36033  10.444  16.490   4.048 -0.0713 -0.3137  0.1983
17180W        W36034   1.681  10.182   0.394 -0.5206 -0.1495 -0.1524
17181W        W36035   9.013   0.918   0.794 -0.0053  0.0671  0.1001
17182W        W36036  17.124   3.948   2.119 -0.3536 -0.0700 -0.0277
17183W        W36037  15.622  13.028  15.551 -0.1612 -0.0295 -0.0415
17184W        W36038   7.826   1.737   0.507  0.1084  0.1043 -0.1760
17185W        W36039   0.472   9.118   2.529 -0.0863 -0.1037  0.3790
17186W        W36040  11.932   1.282   0.827  0.1199  0.0861  0.0279
17187W        W36041  13.408   2.534   1.616 -0.2023 -0.1207 -0.2093
17188W        W36042   8.181   8.811  12.516 -0.0576 -0.0200 -0.1903
17189W        W36043   7.137   8.272  16.501  0.0556  0.1093 -0.3737
17190W        W36044  12.768   2.261  15.140 -0.0398 -0.1141 -0.3116
17191W        W36045   4.302  17.195  14.475 -0.0587 -0.0737 -0.2326
17192W        W36046  13.956   2.621  15.201 -0.2634  0.2004  0.2375
17193W        W36047  11.776   4.768   4.469  0.1834  0.0991  0.0352
17194W        W36048   1.345   0.863   3.928 -0.1367  0.1892  0.0652
17195W        W36049   2.668  12.682  16.847 -0.2497 -0.0881 -0.0278
17196W        W36050   8.665   7.021  13.336 -0.0822  0.0149  0.1647
17197W        W36051  13.063   4.364  16.424 -0.1902  0.2331  0.1801
17198W        W36052   9.171  10.286   2.442  0.1739 -0.1080  0.2867
17199W        W36053   7.687   6.783  16.037  0.2311 -0.1641 -0.1387
17200W        W36054   2.134  11.526   1.078  0.0162  0.1679  0.1959
17201W        W36055   5.087  16.087  15.673 -0.0168  0.0712 -0.1195
17202W        W36056  10.147   3.570  12.331  0.3427  0.0473  0.1799
17203W        W36057  11.723   9.760   1.120  0.0114  0.0100  0.1848
17204W        W36058   8.598   5.980   3.654  0.0364  0.0602 -0.1701
17205W        W36059   2.143   4.692   4.818  0.0257 -0.1738  0.3930
17206W        W36060   4.436   5.562  14.530  0.1626  0.0087  0.2031
17207W        W36061  10.717   3.072  16.621  0.1043 -0.1739 -0.1700
17208W        W36062  13.012   8.942   3.548  0.0179  0.0346 -0.2431
17209W        W36063  11.535   8.026  17.117  0.0344 -0.3084 -0.2434
17210W        W36064   3.699   9.887   3.152 -0.1236 -0.2150  0.0377
17211W        W36065   1.723   8.036  16.531 -0.0392 -0.0184  0.2085
17212W        W36066  17.076   8.886   2.138 -0.1285 -0.0258  0.3421
17213W        W36067  16.022   2.151   4.458 -0.1997 -0.1554  0.1679
17214W        W36068  16.650   7.839  15.205  0.0437 -0.0267  0.1271
17215W        W36069  13.756  11.283   5.319 -0.0795  0.2859  0.0603
17216W        W36070   9.531   3.162   3.751 -0.2733  0.0098 -0.1470
17217W        W36071   6.198   8.024   5.162  0.1406  0.1061  0.0949
17218W        W36072   3.766   2.806   5.346  0.0809 -0.2563  0.1367
17219W        W36073   2.141   9.487   1.859 -0.0140  0.1683  0.1204
17220W        W36074  11.789  12.767   1.536  0.0703 -0.3952  0.0574
17221W        W36075   8.731   2.153  15.002 -0.1234  0.0796  0.2562
17222W        W36076   0.049   1.220   2.503  0.1553 -0.2689 -0.1572
17223W        W36077  10.431  14.835   1.694 -0.2104  0.1812  0.1952
17224W        W36078  11.434   0.471   3.763 -0.1583 -0.0016 -0.1248
17225W        W36079   5.584  10.629  12.981  0.1401  0.4537  0.1873
17226W        W36080   6.019  14.276  14.975  0.0135 -0.0193 -0.1111
17227W        W36081   8.017   7.570  13.364  0.3581 -0.0301  0.1316
17228W        W36082   7.286   9.307  15.576 -0.0497  0.2355 -0.2789
17229W        W36083   6.389   4.370   4.438  0.0549  0.0291  0.4976
17230W        W36084  11.510  16.806   0.770 -0.3065  0.0169 -0.1526
17231W        W36085  12.531  15.972  12.409  0.5057  0.0801 -0.0167
17232W        W36086  14.804  13.827   1.331  0.1037 -0.2899 -0.1286
17233W        W36087  15.392  12.631   0.362 -0.0981  0.1534 -0.1252
17234W        W36088   2.701   9.971  13.424  0.0103  0.0076  0.2277
17235W        W36089   1.310   2.554   1.193  0.0706 -0.0949  0.1628
17236W        W36090  11.433   3.320  16.159 -0.1879  0.2569 -0.1984
17237W        W36091   7.275  15.621   1.292  0.0219 -0.1370  0.2703
17238W        W36092  15.484  13.123   1.609  0.0278 -0.1947  0.1030
17239W        W36093  16.071   0.958  15.391 -0.2890 -0.1691  0.1486
17240W        W36094   8.165  14.329   1.827 -0.0895  0.0223 -0.1693
17241W        W36095   1.235  12.268  15.524  0.0269 -0.1779  0.2834
17242W        W36096   4.353  16.641   4.890  0.3672 -0.2044  0.1797
17243W        W36097  17.220  11.275   5.083 -0.1227 -0.2037 -0.0577
17244W        W36098  16.424   2.721  13.737  0.1856 -0.2592  0.0428
17245W        W36099  14.330  12.883  15.476 -0.1262  0.1768  0.3307
17246W        W36100   8.796  17.262   4.352  0.1480  0.2632  0.2171
17247W        W36101  14.216   7.957   2.224  0.2392 -0.0649  0.2656
17248W        W36102   5.994  13.690   2.983  0.0891 -0.1505 -0.0179
17249W        W36103   3.790   6.798   0.005 -0.1587  0.0065  0.1685
17250W        W36104   1.025  13.214  16.865  0.2432  0.0429 -0.0069
17251W        W36105  15.628  16.812   3.605  0.0065 -0.2400  0.0874
17252W        W36106   5.757   5.229  16.287  0.2562  0.1380 -0.0706
17253W        W36107   6.024   0.731  14.566  0.1999  0.0967  0.0061
17254W        W36108   1.237  12.432   2.555  0.2062 -0.1030 -0.0979
17255W        W36109  10.732   5.454   4.423  0.1398  0.1782  0.0890
17256W        W36110  16.541  13.502   5.041 -0.0345  0.0082  0.0104
17257W        W36111  13.544   6.975   1.161 -0.0023  0.1029  0.0781
17258W        W36112   3.777  12.923   2.143 -0.2746 -0.3168  0.2691
17259W        W36113  15.044   3.241   1.410 -0.3554 -0.2725  0.2220
17260W        W36114  15.283  12.855  16.620  0.0694 -0.1449  0.0373
17261W        W36115   4.609  17.383   4.541 -0.2475  0.1555  0.1253
17262W        W36116  10.122   8.800   0.964 -0.1336  0.2005  0.1072
17263W        W36117   4.046  16.431   1.794 -0.1319 -0.0643 -0.0121
17264W        W36118   4.598  13.863   0.101 -0.1617 -0.1034  0.2876
17265W        W36119  15.440   5.396   4.827 -0.2395 -0.4693 -0.0241
17266W        W36120   9.078   2.307  13.253 -0.0647 -0.2679 -0.1876
17267W        W36121   1.923  13.251  13.897  0.0570 -0.2966  0.2876
17268W        W36122   6.310   8.586   1.831  0.0801 -0.0903  0.1745
17269W        W36123  14.197   0.605   3.265 -0.0484 -0.0374  0.0041
17270W        W36124   0.357  14.453   1.947  0.1403  0.0973 -0.0151
17271W        W36125  10.029   4.219   1.352 -0.3586 -0.1153  0.2115
17272W        W36126   5.540   6.361   1.736 -0.4237  0.2449 -0.0648
17273W        W36127   4.170   5.546   3.271 -0.0831 -0.1369  0.2877
17274W        W36128  11.416  15.508  12.623  0.0356 -0.1287  0.2721
17275W        W36129   0.987  13.142  15.975  0.0257  0.1292 -0.0577
17276W        W36130  11.154   5.356  13.865 -0.2319 -0.0134  0.1658
17277W        W36131   3.646   2.482   4.412  0.0028  0.0911 -0.0452
17278W        W36132   4.284   6.152   0.682 -0.2341 -0.1086 -0.1949
17279W        W36133   1.401  14.953  17.215  0.1803 -0.1565  0.1354
17280W        W36134   8.924   6.570  14.845  0.0013  0.0071 -0.4824
17281W        W36135   8.335  15.863  13.559 -0.0722 -0.0556 -0.3032
17282W        W36136  12.662   5.181   3.202 -0.2228  0.0312  0.3423
17283W        W36137   2.050   5.658   2.800 -0.0088  0.1479 -0.2179
17284W        W36138   5.113  15.422  16.718  0.2074 -0.2702 -0.1072
17285W        W36139   5.350  12.050   4.403 -0.0294 -0.1139  0.3306
17286W        W36140   3.498   8.618  12.879 -0.2163 -0.0395  0.1009
17287W        W36141   8.392   9.783  15.837  0.0904  0.0552  0.0645
17288W        W36142   7.675  11.817  16.238  0.1567 -0.0027 -0.0034
17289W        W36143  16.701  12.761  16.936 -0.0400  0.2937 -0.2028
17290W        W36144   5.825   8.974  16.648  0.2074  0.3119  0.3500
17291W        W36145  13.127  13.241   2.081  0.0066  0.1365 -0.0541
17292W        W36146   3.746   6.889   1.918 -0.1470  0.2242  0.2207
17293W        W36147   4.702  14.913   5.229  0.1314  0.0136  0.1615
17294W        W36148   9.415   9.397  16.846 -0.0914  0.2694  0.4008
17295W        W36149   3.881  16.430   4.100 -0.0418 -0.0100 -0.0739
17296W        W36150   0.889  15.342  15.318  0.4061 -0.0040  0.0609
17297W        W36151  12.795  16.006  14.422  0.3959 -0.0238  0.1149
17298W        W36152  10.499  14.362   2.945  0.1629 -0.1424 -0.0523
17299W        W36153  14.617  14.705  16.762 -0.2722 -0.0827 -0.0556
17300W        W36154  16.749  14.797   5.588  0.4747  0.3272  0.0110
17301W        W36155   5.189   6.463  15.982 -0.1461  0.0924  0.0131
17302W        W36156   5.355   5.333   3.729  0.0700 -0.3427  0.0521
17303W        W36157  11.012   7.616   0.460  0.2617 -0.5553 -0.0248
17304W        W36158   0.267  11.671   3.414 -0.3365 -0.2243  0.0252
17305W        W36159  16.799  15.568   2.986 -0.2536  0.0902 -0.1250
17306W        W36160  16.043   7.837  15.992 -0.0290  0.1660 -0.1854
17307W        W36161  10.332  13.167   2.188 -0.1476 -0.1190  0.1658
17308W        W36162  13.732  16.585   3.183 -0.0355  0.1160  0.0304
17309W        W36163  15.095   5.164  12.642 -0.2946 -0.1854  0.0693
17310W        W36164  14.071  12.936   6.428  0.0222 -0.0811  0.0264
17311W        W36165   1.131   5.553  17.049  0.0156 -0.0767 -0.2635
17312W        W36166   4.274   6.117   2.302  0.0872 -0.3009  0.2208
17313W        W36167   3.528  13.766  17.324  0.2277  0.2286  0.0778
17314W        W36168  12.698   8.465  16.631 -0.0345 -0.1512 -0.0303
17315W        W36169   0.673  17.043  15.609  0.2319  0.1978  0.2118
17316W        W36170   8.301  10.026   4.660 -0.0183 -0.0364 -0.0249
17317W        W36171  16.048   2.870   3.788 -0.4374 -0.0570 -0.0319
17318W        W36172  16.428  13.070  13.218 -0.1598 -0.1568  0.0407
17319W        W36173   9.885  17.148  17.047  0.0272 -0.1304  0.4270
17320W        W36174   4.236   0.675   0.304  0.0043 -0.1526  0.0024
17321W        W36175   2.022   7.978  13.432 -0.0891 -0.0066 -0.0318
17322W        W36176   7.891   3.253   5.983  0.1144  0.0511 -0.1341
17323W        W36177  12.511   6.785   2.989  0.0757  0.0460 -0.0141
17324W        W36178   5.951  13.498   4.200  0.1590  0.1105 -0.1592
17325W        W36179  14.707  16.840   3.768 -0.0418  0.4401 -0.1682
17326W        W36180  15.520   5.183   5.279  0.1759 -0.0133 -0.0834
17327W        W36181   9.211  11.118   5.050 -0.3286 -0.1990 -0.1885
17328W        W36182   0.636   6.850  17.305  0.4878 -0.1141  0.3611
17329W        W36183   3.682   5.588  17.257  0.1888  0.2481 -0.1636
17330W        W36184   8.412  13.780  14.872 -0.0323 -0.3176 -0.2822
17331W        W36185   8.810  17.075  15.025 -0.1380 -0.0556 -0.0281
17332W        W36186   9.270   5.453  13.659 -0.0504  0.3532  0.2567
17333W        W36187   9.191   7.038   4.910 -0.1386  0.2848 -0.3147
17334W        W36188   9.464   4.885  16.120  0.2180 -0.1733 -0.0814
17335W        W36189   6.514   9.166  16.778  0.1190 -0.3126 -0.1637
17336W        W36190  10.432  10.416   6.032  0.1855 -0.0435 -0.0828
17337W        W36191  17.241   5.866  16.908 -0.0744 -0.0564  0.0869
17338W        W36192  17.111   9.604   0.199  0.0965 -0.0071  0.1018
17339W        W36193  10.473   9.828  15.839 -0.0103  0.1837 -0.1514
17340W        W36194  16.206   1.034  13.669  0.3852 -0.0897  0.1249
17341W        W36195  14.507   1.970  13.436 -0.0319  0.2779  0.0464
17342W        W36196   6.852   4.281  14.242 -0.0062 -0.2577 -0.1290
17343W        W36197   4.854   7.144   3.615  0.1251  0.2811 -0.1767
17344W        W36198  16.103  11.948   0.756  0.2957  0.2162 -0.0134
17345W        W36199  10.748  13.150  14.663  0.3354  0.2106 -0.1484
17346W        W36200   4.547   7.264  13.578  0.0720 -0.0142 -0.1962
17347W        W36201  11.647   8.882  16.988 -0.0077 -0.0617  0.0428
17348W        W36202  14.404   8.673  12.945  0.3126  0.2254  0.3481
17349W        W36203   7.416  11.101   1.994 -0.0817 -0.0416 -0.1615
17350W        W36204   8.350   9.329  14.753 -0.1171 -0.1722  0.0381
17351W        W36205  14.115  11.315  15.927 -0.0651 -0.2848 -0.0907
17352W        W36206   1.471   4.630   4.004  0.1014  0.1117  0.1306
17353W        W36207  17.017   6.703  14.116 -0.2593 -0.1398 -0.1606
17354W        W36208  16.283   6.306   1.382  0.0933  0.0289 -0.0267
17355W        W36209  13.482   2.742   2.194 -0.0776 -0.0565 -0.2801
17356W        W36210  10.224   3.775   2.107 -0.1934 -0.0705  0.0659
17357W        W36211   2.782   1.848  11.799  0.3258  0.0674 -0.3575
17358W        W36212  14.454   6.550   4.777  0.1131  0.1326 -0.2919
17359W        W36213   0.223  14.609   5.857 -0.1963  0.0032 -0.1824
17360W        W36214   7.521   6.374   5.076  0.2468 -0.0343 -0.2180
17361W        W36215   9.450   7.912   0.546 -0.0045 -0.2601 -0.0860
17362W        W36216   0.510   4.813   4.067 -0.1266  0.1026 -0.0310
17363W        W36217  12.385  16.089  14.764  0.5237  0.4532  0.1150
17364W        W36218   1.780  13.346   4.341 -0.1509  0.2362 -0.1395
17365W        W36219  13.660   6.525   2.126  0.0275  0.3671 -0.2942
17366W        W36220  10.444   6.615  13.736  0.0034 -0.5734  0.1502
17367W        W36221   9.553  17.113   3.316 -0.1286 -0.0432  0.0114
17368W        W36222   8.899   4.380   0.314 -0.1021 -0.0224  0.0037
17369W        W36223   0.074  16.719  13.536  0.0724 -0.1861 -0.0833
17370W        W36224  12.212   3.614  15.673  0.0512 -0.0808 -0.4491
17371W        W36225  16.405  15.001  15.905 -0.0930  0.0339  0.1009
17372W        W36226   5.596   5.026  14.660 -0.0694 -0.3147  0.2545
17373W        W36227   2.591   6.304   3.991 -0.2824  0.3018 -0.0252
17374W        W36228   3.239   6.434   3.483  0.3511  0.3265  0.2223
17375W        W36229   1.712   8.891   4.654 -0.2041 -0.2644 -0.1162
17376W        W36230  16.240  13.210   5.350 -0.0185  0.3921  0.1952
17377W        W36231   3.347   1.163   3.413  0.0567  0.1259 -0.1260
17378W        W36232  10.004  14.714   1.349  0.2659  0.0851  0.0739
17379W        W36233  10.803   6.323  15.139 -0.0941 -0.2726  0.0355
17380W        W36234  15.302  14.438   0.592 -0.2704 -0.0301 -0.0367
17381W        W36235   6.641  16.426   3.551 -0.3554 -0.2052  0.4013
17382W        W36236  12.595   8.707   2.034  0.0609 -0.2840  0.0782
17383W        W36237   1.484  11.448   4.227  0.1692  0.3828  0.0522
17384W        W36238  14.263  11.812  12.127  0.3225 -0.3360 -0.2085
17385W        W36239  14.673  10.243  16.107  0.1859 -0.2717  0.0702
17386W        W36240  12.204  10.992   4.008  0.1471  0.1520 -0.1462
17387W        W36241   1.166   7.507   3.527  0.1216 -0.2553 -0.0676
17388W        W36242   2.000   5.567   1.041 -0.0308  0.1819 -0.1786
17389W        W36243   5.793  16.988   4.966 -0.1696  0.1855 -0.1620
17390W        W36244  14.059   6.936  15.892 -0.0436 -0.2075  0.1699
17391W        W36245   0.510  11.907  14.118 -0.3076  0.0809 -0.0837
17392W        W36246   8.158   0.470  14.428 -0.0574  0.1923  0.0789
17393W        W36247   2.212  12.126  14.185  0.0158  0.1599 -0.1860
17394W        W36248   8.364  13.185   0.735  0.1905  0.1472  0.0051
17395W        W36249   6.434   3.468  17.021 -0.2773 -0.0966 -0.1221
17396W        W36250   2.197  15.048  13.553 -0.1850 -0.1415  0.0709
17397W        W36251   8.955  12.751   4.473  0.0818 -0.0568  0.0654
17398W        W36252   2.295  13.920  14.331 -0.0664  0.2885  0.0142
17399W        W36253  12.344   3.695  13.641  0.2340  0.0825 -0.0556
17400W        W36254   4.849  15.149  14.956 -0.0665  0.1057  0.0995
17401W        W36255  14.050   6.500   1.802 -0.0749  0.0749  0.1019
17402W        W36256   3.925  13.481  16.291  0.1588  0.1614  0.1704
17403W        W36257  10.396   6.306   1.031 -0.3051 -0.1012  0.1278
17404W        W36258   3.579  10.615   4.276  0.1671  0.2523 -0.1553
17405W        W36259  17.031   7.798  13.259 -0.2951  0.2998 -0.2696
17406W        W36260   5.275  13.486  14.249 -0.0366 -0.0013 -0.1480
17407W        W36261  16.946  12.756  14.159 -0.0873  0.0256 -0.0584
17408W        W36262   2.755   5.572   1.027 -0.1117 -0.0529 -0.2102
17409W        W36263  12.174  12.907  15.766 -0.0100 -0.3661  0.0410
17410W        W36264  14.539   3.390   0.408  0.3371 -0.1780 -0.2191
17411W        W36265   5.625  13.319  16.672  0.0545 -0.0683  0.3768
17412W        W36266   2.795   1.442  14.017 -0.1725  0.1452 -0.0971
17413W        W36267  14.101  12.136  12.626  0.1007 -0.0436 -0.1068
17414W        W36268  10.000  10.351   5.803 -0.0951 -0.0302  0.1568
17415W        W36269   4.018  16.442   2.434  0.0712 -0.0089 -0.0623
17416W        W36270  12.969   0.038   0.634 -0.1996  0.0624  0.0541
17417W        W36271   0.548  16.020  14.902  0.1771 -0.0182 -0.1224
17418W        W36272   9.863   5.684  16.984 -0.1772  0.1312 -0.0527
17419W        W36273  10.014   2.687   0.104 -0.3418  0.0828  0.1828
17420W        W36274  13.134  11.907   3.180  0.1079 -0.0454  0.0024
17421W        W36275   3.794   7.660  15.188 -0.2357 -0.0221 -0.1709
17422W        W36276  16.644   9.529  14.139  0.1443  0.2441  0.0180
17423W        W36277  14.508   3.991   4.428  0.3221  0.1077  0.0751
17424W        W36278  10.795   1.136  13.752  0.1496  0.1435 -0.1150
17425W        W36279  14.241   3.489   6.423 -0.0434 -0.0738  0.3444
17426W        W36280   9.127  13.018   1.444 -0.3579 -0.1479  0.1084
17427W        W36281   9.365   8.308   0.871  0.0145  0.0738 -0.1258
17428W        W36282   7.532  15.618   5.238  0.0832 -0.0280 -0.1136
17429W        W36283   7.851  11.375  12.691  0.3338 -0.0178  0.0164
17430W        W36284  11.592  13.243   4.317  0.1801  0.1402  0.0710
17431W        W36285  12.471   6.754  16.033 -0.3158  0.3618  0.0676
17432W        W36286  14.547  17.107  15.803  0.0283  0.3717 -0.0017
17433W        W36287   9.249   2.221  15.832  0.1882  0.1303 -0.1344
17434W        W36288   9.266   7.909  12.539  0.5806 -0.3476  0.0181
17435W        W36289  11.644   0.961  16.778  0.0329  0.2150 -0.0143
17436W        W36290   5.217   0.316  14.187 -0.2346  0.0047  0.3619
17437W        W36291  15.703   8.276   4.323 -0.0993  0.0540  0.0363
17438W        W36292  14.920   7.309   4.821  0.1248  0.0912 -0.0620
17439W        W36293   3.141  10.488   2.362  0.0088  0.1332 -0.1774
17440W        W36294  13.774   5.288  15.738  0.2477  0.1452  0.0374
17441W        W36295  14.136   5.765   4.333 -0.1104  0.0252  0.3815
17442W        W36296  16.149   8.209   2.958 -0.0122  0.2585  0.0018
17443W        W36297   5.415  12.773  12.713 -0.0906 -0.1308 -0.1146
17444W        W36298  15.049   1.844  13.095 -0.2782 -0.2506  0.0153
17445W        W36299  12.752   1.509  12.913  0.0339  0.0795  0.0392
17446W        W36300  11.284  11.229   4.018 -0.0440  0.0170  0.3385
17447W        W36301   9.713   9.213  15.577  0.2260  0.2471 -0.3269
17448W        W36302  17.208   8.776   1.337  0.2636 -0.1308  0.0393
17449W        W36303  14.972  17.036   1.564  0.0117  0.2827  0.0318
17450W        W36304   8.754  17.120   2.123 -0.0337 -0.2565 -0.0972
17451W        W36305   4.030   8.990  14.376 -0.1126  0.2114  0.0147
17452W        W36306   6.359   6.637  14.121  0.2345 -0.0127 -0.3929
17453W        W36307  16.596  12.751   3.639  0.0014 -0.2056  0.2630
17454W        W36308   8.034   0.642   1.633  0.1074  0.0214 -0.1276
17455W        W36309  10.311  12.100  15.888  0.0252 -0.1116 -0.0599
17456W        W36310  15.191   2.675   2.394  0.1094 -0.0547 -0.0304
17457W        W36311  14.713  16.382  13.490  0.0231 -0.1413 -0.0294
17458W        W36312  14.512   4.836  16.316  0.2352  0.0599  0.1280
17459W        W36313  16.833   4.270   1.903  0.1444  0.2259 -0.0868
17460W        W36314  16.258   9.192   4.312  0.1230  0.0838 -0.1525
17461W        W36315   7.757   2.453   0.056  0.1689  0.2286 -0.2199
17462W        W36316  15.497   7.288  13.898 -0.0379 -0.0293 -0.0235
17463W        W36317   2.394  11.794  12.167 -0.0293  0.1212  0.1974
17464W        W36318   2.496   9.702   1.529 -0.1182  0.1282  0.0160
17465W        W36319  14.604   0.924  12.751 -0.3965 -0.4787  0.1764
17466W        W36320   7.022  11.356   4.510 -0.2323  0.1526  0.0637
17467W        W36321   5.765   5.049  13.305  0.2948 -0.0448 -0.2319
17468W        W36322   4.269  11.618  16.426 -0.3031 -0.1651  0.0420
17469W        W36323   9.769  13.029   2.175  0.0903 -0.0754  0.1075
17470W        W36324  14.148  11.442  14.368 -0.0503 -0.1275  0.0761
17471W        W36325   0.877   7.997  15.843 -0.4236  0.3641 -0.0907
17472W        W36326  11.525  12.358   5.179  0.0956 -0.1824 -0.1479
17473W        W36327   5.594  10.182   3.636  0.1545 -0.0358 -0.0125
17474W        W36328  14.818   9.911   0.078 -0.1525  0.1685  0.0537
17475W        W36329   3.468   1.846  12.542 -0.0962  0.0326  0.0960
17476W        W36330  10.891   2.770  14.234 -0.1578  0.1847 -0.0614
17477W        W36331   3.501  14.484   1.971 -0.1037  0.1142 -0.2875
17478W        W36332  13.199   5.954  17.135  0.2448  0.1852 -0.0257
17479W        W36333   4.587   7.899   2.711 -0.0713  0.2768  0.0181
17480W        W36334  14.883  15.161  14.960 -0.1836 -0.1021  0.1120
17481W        W36335  15.198  13.725  17.143 -0.2241 -0.0278 -0.2201
17482W        W36336   3.779  17.389   2.437  0.4415 -0.0524  0.0072
17483W        W36337  13.922   8.072   1.750  0.2053 -0.1546 -0.3853
17484W        W36338   0.029  15.429  14.114 -0.2209 -0.0064  0.1747
17485W        W36339   7.272   7.772   5.011 -0.0545  0.0275  0.2900
17486W        W36340   2.395  12.712   0.652 -0.1289 -0.2645 -0.0807
17487W        W36341   1.636  16.631   0.841  0.2260  0.1424 -0.5531
17488W        W36342   7.552   2.100  16.470  0.0887  0.1756 -0.1732
17489W        W36343   3.157  16.433  17.217  0.0191  0.1477  0.0294
17490W        W36344   1.823   6.081  17.459 -0.1669 -0.2642 -0.0163
17491W        W36345   6.596  13.660  15.858 -0.3806  0.2572 -0.0908
17492W        W36346  10.386  11.947  13.572  0.1750  0.1453 -0.0240
17493W        W36347   0.238   8.475  16.570 -0.1083  0.1904  0.2855
17494W        W36348   2.958   5.920   0.729  0.0301 -0.0300  0.2754
17495W        W36349   2.291   5.451  17.059  0.0963 -0.0036 -0.2279
17496W        W36350  11.578  17.250  15.969  0.3292 -0.1104  0.0848
17497W        W36351   9.829  11.554  14.812  0.0861  0.1337  0.1109
17498W        W36352   6.872  11.825  15.819 -0.1372 -0.2673  0.2490
17499W        W36353  13.451  12.526  17.164  0.0007  0.0768 -0.1450
17500W        W36354   8.748   5.074  13.864  0.3490  0.0774 -0.2076
17501W        W36355   7.479   4.347  14.985 -0.1345 -0.0446 -0.1138
17502W        W36356   3.915  17.114  15.721  0.1915  0.1023 -0.0587
17503W        W36357   4.121   2.284  13.952 -0.3386 -0.2261 -0.1014
17504W        W36358  12.423   7.769   1.834  0.3429 -0.2639 -0.2337
17505W        W36359   5.260  10.773   3.940 -0.0539  0.1851 -0.2223
17506W        W36360   2.344   3.019   0.427 -0.3901 -0.1574 -0.1400
17507W        W36361  12.154  15.517   3.073 -0.1739 -0.3159 -0.0013
17508W        W36362  15.840   2.932  16.573 -0.0816 -0.1490  0.2870
17509W        W36363  13.960   0.016  17.127  0.0222 -0.2475  0.1422
17510W        W36364   8.438  12.886   2.040  0.0154 -0.1094 -0.0575
17511W        W36365   6.954  16.026   1.527  0.1142  0.1362  0.0536
17512W        W36366  11.470   8.273   1.575 -0.4951 -0.2269  0.0728
17513W        W36367   7.715   6.646   3.862  0.0178  0.1368  0.0300
17514W        W36368   9.623   6.840   1.935  0.0095  0.4688  0.1201
17515W        W36369  14.942   1.986  12.594 -0.1024  0.1121  0.0549
17516W        W36370   5.897   2.952  14.998  0.3668  0.0668 -0.0621
17517W        W36371   3.587  14.976  13.935 -0.1540  0.1454  0.0306
17518W        W36372  15.867   3.304   5.781  0.1856 -0.0792 -0.0625
17519W        W36373   0.312  17.102  16.725  0.0852  0.1899  0.2411
17520W        W36374  10.506   4.862  15.085 -0.5149 -0.2447  0.0191
17521W        W36375   6.053   2.333  16.553 -0.2354  0.1041 -0.0677
17522W        W36376   2.327   9.649  17.277 -0.2493 -0.1818 -0.2386
17523W        W36377  16.345  12.095  15.870  0.2493 -0.1728  0.2550
17524W        W36378   6.699  10.593  13.316 -0.0677  0.0807 -0.1885
17525W        W36379  10.480   5.396   0.099 -0.2477  0.2690 -0.0571
17526W        W36380   2.337  10.962  14.725  0.1884 -0.3483 -0.0084
17527W        W36381   6.431   3.057  12.825 -0.2022  0.1992  0.0962
17528W        W36382   1.483   5.595  12.278  0.0033 -0.1255  0.1585
17529W        W36383   3.059  12.877  16.565 -0.1108 -0.1424  0.1804
17530W        W36384   9.253  10.174  12.525 -0.0250 -0.1743  0.1156
17531W        W36385   2.123   6.238   1.556 -0.0175 -0.0666  0.0055
17532W        W36386  11.759  16.668   3.711 -0.2656  0.2447 -0.0738
17533W        W36387  14.343   3.098  14.410  0.0380 -0.3774  0.0438
17534W        W36388   8.653   4.080  15.461  0.2313  0.0915  0.0203
17535W        W36389   6.119  15.828  15.155  0.2636 -0.1516 -0.1479
17536W        W36390   8.556  17.360  13.883 -0.1808 -0.1168  0.0269
17537W        W36391   7.787   5.503   0.097  0.0804 -0.1628 -0.0574
17538W        W36392   3.384   0.811   5.200  0.0730  0.0004  0.0006
17539W        W36393   8.515  16.706  16.755  0.1696 -0.1379  0.0216
17540W        W36394  17.130  11.780  13.583 -0.3994 -0.1786  0.0130
17541W        W36395  16.989   0.379   5.424  0.0525  0.0566  0.3640
17542W        W36396   5.421  11.111   3.350 -0.3624  0.0107  0.2336
17543W        W36397   0.536  13.231  13.521  0.1798  0.3235 -0.2191
17544W        W36398   8.097   3.633   3.338  0.3002 -0.0397 -0.1554
17545W        W36399   0.542   1.134   0.491  0.1117 -0.0625  0.1988
17546W        W36400  15.418   8.096  13.497 -0.0849 -0.1363 -0.1623
17547W        W36401   2.705  10.120   2.577  0.0484  0.2657 -0.0793
17548W        W36402   3.057   8.521  15.908 -0.0919  0.0711  0.1449
17549W        W36403  14.837   2.749   1.121  0.5886  0.2913  0.2127
17550W        W36404  13.692   9.474   4.636 -0.2258 -0.0577  0.2242
17551W        W36405  12.648   9.317  13.607  0.0054 -0.0054 -0.1937
17552W        W36406  13.150   0.392  16.787 -0.0011  0.3456 -0.4122
17553W        W36407   7.290   5.920   4.359 -0.0449  0.0414  0.4622
17554W        W36408   7.496  14.613   4.309 -0.2841  0.2190 -0.0049
17555W        W36409   5.503   5.400   0.395  0.1555 -0.0516 -0.0244
17556W        W36410  14.651   2.874   3.572 -0.0348 -0.1467 -0.2345
17557W        W36411  16.961   8.482  12.339 -0.2708  0.1693 -0.1508
17558W        W36412   3.035   0.408  14.005 -0.0138 -0.2499 -0.1071
17559W        W36413   9.555   5.278   0.328 -0.1550  0.2376  0.2854
17560W        W36414   6.380   5.648  14.298 -0.0664  0.1691 -0.1766
17561W        W36415   8.037  17.236   0.284 -0.1409  0.0182 -0.1811
17562W        W36416   6.087  16.710   0.349  0.0254 -0.1418  0.1230
17563W        W36417  11.664  15.615   0.022 -0.2582  0.1288  0.0370
17564W        W36418  14.894  11.152  13.757  0.1792 -0.3007  0.2161
17565W        W36419  17.041  14.009  12.754 -0.3625  0.3435  0.2276
17566W        W36420  16.737   4.655   0.574 -0.0197  0.2028  0.2541
17567W        W36421   0.616   0.157  12.738  0.1910  0.0534  0.0129
17568W        W36422   7.692  13.359   2.929  0.1104 -0.1917  0.2346
17569W        W36423   4.222  14.238   0.191  0.1530 -0.1020 -0.0406
17570W        W36424  17.096  16.739   3.437 -0.0841  0.2501 -0.0310
17571W        W36425   2.014  15.902   2.719  0.3008 -0.0844  0.3251
17572W        W36426  13.882   1.240  13.481 -0.0482 -0.0274 -0.0702
17573W        W36427   5.670   7.026   3.423 -0.2658  0.0092 -0.1412
17574W        W36428   2.970  16.300  12.585  0.1168 -0.2020 -0.1794
17575W        W36429  16.005  13.191  17.359  0.2194  0.0133  0.0262
17576W        W36430   8.709  16.901  11.265 -0.1518  0.0073 -0.1178
17577W        W36431  12.760   2.246  14.608 -0.1938 -0.4141  0.3901
17578W        W36432   3.039   9.420   1.617 -0.1545 -0.1718  0.1193
17579W        W36433   6.405  10.296  16.158  0.0144 -0.3292 -0.0390
17580W        W36434  10.073  17.355  13.458 -0.1816  0.1429 -0.0220
17581W        W36435   0.879   5.894   0.498 -0.1029  0.2666  0.0354
17582W        W36436  17.338   6.221   4.706  0.2295 -0.0668 -0.1533
17583W        W36437  13.034   6.910   4.570 -0.1876 -0.4519  0.2071
17584W        W36438   9.355  16.075   1.830  0.1573  0.1794 -0.0193
17585W        W36439   7.559  17.200  16.206  0.2975 -0.0605 -0.0168
17586W        W36440   0.247  13.653  13.471  0.0047  0.1027  0.1370
17587W        W36441   5.520  15.002  16.563 -0.1217  0.0370 -0.0273
17588W        W36442  12.395  10.421   3.416 -0.1319  0.1738  0.0901
17589W        W36443   3.108   2.844  14.502 -0.2815  0.0959 -0.0987
17590W        W36444   1.027   5.080  16.935  0.0863  0.0686  0.0638
17591W        W36445   8.189   5.117  16.381 -0.5482  0.2590  0.2817
17592W        W36446  12.523  10.277   4.867 -0.0172 -0.0739 -0.1277
17593W        W36447  12.689   2.390   4.543 -0.1608 -0.0862  0.3333
17594W        W36448   4.775  15.341  15.512 -0.0546 -0.2041  0.0060
17595W        W36449   0.100   0.875   3.247 -0.1696  0.2389  0.0639
17596W        W36450   0.948   3.802   0.578  0.0206  0.1527 -0.0154
17597W        W36451  10.575   6.125   4.079  0.1500 -0.3393 -0.2429
17598W        W36452  16.639   6.473  12.687  0.0177 -0.0004 -0.1335
17599W        W36453   6.629   7.980  16.941  0.1611  0.2668 -0.1564
17600W        W36454   4.283  10.547  16.342  0.0724  0.0761 -0.2006
17601W        W36455   0.096  15.889  13.774 -0.2343 -0.0424 -0.0909
17602W        W36456   2.918   2.762  15.029  0.3333 -0.1893  0.0786
17603W        W36457  14.805   0.538   0.869 -0.0962 -0.1678  0.1468
17604W        W36458   9.352   6.964  17.106  0.0972 -0.1966 -0.2921
17605W        W36459   1.890   6.037   3.226 -0.1234  0.1106  0.1101
17606W        W36460  11.005   1.747  16.960  0.1778 -0.1473 -0.2074
17607W        W36461   2.462  13.937   3.176 -0.1902 -0.3687  0.1372
17608W        W36462  13.062   5.654   3.214  0.1701 -0.0614  0.1664
17609W        W36463   6.156   7.068   0.839 -0.0660  0.0516  0.0394
17610W        W36464   2.507  10.754  13.800  0.1783  0.4657 -0.1188
17611W        W36465  11.893   9.105  13.167 -0.1587  0.0108 -0.2767
17612W        W36466   0.032   4.444  15.605  0.1819 -0.1481 -0.0881
17613W        W36467  16.955   5.374  16.930 -0.1164  0.0483 -0.1208
17614W        W36468  10.464   2.568   4.672  0.1109  0.0683 -0.0348
17615W        W36469   6.694  10.679   5.044 -0.0297 -0.0200 -0.5069
17616W        W36470   2.491   4.677  17.172 -0.1315  0.2870 -0.2378
17617W        W36471  14.976  11.130   0.698 -0.3657 -0.2262 -0.0971
17618W        W36472   8.312   5.112   2.428 -0.0436  0.1267  0.0504
17619W        W36473   8.961   7.908   0.710  0.0557 -0.1212  0.0128
17620W        W36474  12.121   2.812  16.576  0.3295 -0.0764  0.1939
17621W        W36475   4.770   6.962  14.442  0.0362 -0.0725 -0.0333
17622W        W36476   8.552   3.301   4.223  0.1039 -0.0886 -0.2204
17623W        W36477   9.069   4.791   1.870 -0.1106 -0.2617  0.1099
17624W        W36478   3.238   6.274  12.801 -0.0960 -0.1182 -0.1365
17625W        W36479   0.262  10.330  15.010  0.0614 -0.2882 -0.0130
17626W        W36480   3.655   0.078  13.334  0.2494  0.0722 -0.1321
17627W        W36481  10.942   8.071   5.035  0.0548  0.1420 -0.1313
17628W        W36482  14.359   4.124  13.525 -0.1244  0.2089  0.1743
17629W        W36483  11.827  10.258  15.606  0.2863  0.0660 -0.4056
17630W        W36484   6.052   5.117   0.762  0.1147  0.1172 -0.0027
17631W        W36485  13.571   0.565  16.365 -0.2687 -0.1520 -0.1186
17632W        W36486   9.162  10.915  15.210  0.2388  0.1312 -0.2836
17633W        W36487   3.688  13.106  15.891 -0.0299  0.1811 -0.3809
17634W        W36488  14.207   7.295  15.342  0.4294 -0.1432  0.4269
17635W        W36489   2.085   2.324   0.812 -0.1414  0.3369 -0.2067
17636W        W36490  13.403  16.250  15.698 -0.2309  0.1328  0.0828
17637W        W36491   4.778   7.543  16.762 -0.1117 -0.2836  0.1768
17638W        W36492   9.253  15.108   3.863  0.0205  0.0485  0.1737
17639W        W36493  15.925   6.422   0.041  0.2018  0.0081 -0.0825
17640W        W36494  12.555  13.198   0.841  0.0251 -0.0151  0.2349
17641W        W36495  16.908   7.977   4.534 -0.0107  0.0624 -0.0423
17642W        W36496   3.300   6.524  16.738  0.0836 -0.0728 -0.0464
17643W        W36497  16.966  14.918   0.127  0.1356 -0.0951 -0.0383
17644W        W36498   2.813  16.180  16.366  0.0539  0.0188  0.0356
17645W        W36499   7.609  12.664  16.152 -0.2708  0.1729 -0.0610
17646W        W36500  14.473   9.150   4.581 -0.1317  0.0358  0.1443
17647W        W36501   8.588  14.283   2.137  0.3124 -0.4444 -0.1117
17648W        W36502   5.280   1.805   4.427 -0.1537 -0.1499  0.1919
17649W        W36503  10.340   0.458   2.101  0.0026  0.2201 -0.0741
17650W        W36504   9.743   9.810  11.914 -0.0275 -0.0390 -0.0994
17651W        W36505  15.611  11.663   4.374 -0.0533 -0.1385 -0.0622
17652W        W36506  10.961   3.298  12.738  0.0088 -0.0640  0.0816
17653W        W36507   9.936  17.402   3.541  0.2625 -0.2571 -0.1171
17654W        W36508  10.925   3.600   2.178  0.0272  0.0388 -0.0399
17655W        W36509   1.448  11.866  16.463 -0.0265  0.0151  0.1427
17656W        W36510   8.234   9.536   1.921  0.1402 -0.0372  0.1844
17657W        W36511  13.743  10.974  13.518  0.1388  0.1880  0.0469
17658W        W36512   6.779  10.105  14.862 -0.1634  0.0606  0.2961
17659W        W36513   5.190  12.110   0.965  0.0941  0.0721 -0.0464
17660W        W36514   5.949   7.811   1.645 -0.1004  0.0701 -0.1676
17661W        W36515  13.924   9.455  12.549  0.0678 -0.0056 -0.1070
17662W        W36516  12.018   3.428  14.926  0.0259  0.1220 -0.2845
17663W        W36517   2.656  14.228  14.461 -0.3363 -0.0432 -0.1885
17664W        W36518   8.869  12.326  12.962  0.0987  0.0955 -0.1819
17665W        W36519   8.260   4.352   1.462  0.0381  0.1096 -0.2515
17666W        W36520   3.651   1.156   4.916  0.0214 -0.2309 -0.4045
17667W        W36521   1.608   2.019  12.604  0.1959 -0.2300 -0.1268
17668W        W36522  17.148  17.072  15.079 -0.2450 -0.0477  0.0875
17669W        W36523  10.008   7.010  13.293  0.0582  0.2855  0.0026
17670W        W36524  11.534   4.822   2.043  0.0323 -0.1958  0.2111
17671W        W36525   2.046  12.279  12.295  0.1011 -0.1385 -0.0957
17672W        W36526  15.655  14.263   4.882  0.0628 -0.1417  0.0049
17673W        W36527   0.564  13.136  15.674  0.2337  0.0189 -0.1227
17674W        W36528   4.567   0.463   3.305  0.1573  0.1776 -0.2319
17675W        W36529  13.345  11.541  15.622 -0.1401 -0.2436 -0.1550
17676W        W36530   9.911  16.044   3.002 -0.4464 -0.0177 -0.0559
17677W        W36531   8.749   0.893   1.594  0.1585  0.3991 -0.1286
17678W        W36532  12.684  10.557   3.883  0.2421  0.1171  0.0380
17679W        W36533   8.009   4.266  14.778  0.0388 -0.0688 -0.0877
17680W        W36534   8.508   9.913   2.041 -0.1972  0.1995  0.5860
17681W        W36535  13.244   4.465  16.868  0.0282  0.1216 -0.1025
17682W        W36536  13.646   5.015   2.995  0.3037 -0.0217  0.3562
17683W        W36537   2.712   4.669  16.048  0.2046  0.0867 -0.0372
17684W        W36538   7.473  16.516   5.215 -0.0769 -0.2368 -0.2156
17685W        W36539   4.394  16.138   1.569 -0.0527  0.2914 -0.2244
17686W        W36540   7.365   8.587  12.144  0.2230 -0.1789  0.0049
17687W        W36541   3.476   8.963  15.614  0.2268 -0.3134 -0.1451
17688W        W36542   9.968  14.416  13.626  0.1718 -0.1577 -0.0838
17689W        W36543   8.449   9.926  13.966 -0.2710  0.2472 -0.1391
17690W        W36544   6.715   9.442   1.923  0.0923 -0.0672  0.1689
17691W        W36545  14.108  11.206  13.916  0.4328 -0.0194  0.1415
17692W        W36546   9.769  11.588   4.133 -0.4306 -0.1284 -0.2431
17693W        W36547   6.935  14.166   3.430 -0.2494 -0.1695 -0.0268
17694W        W36548  14.257   2.987   5.137 -0.2660  0.0161  0.0181
17695W        W36549  17.103   6.298   1.035  0.2386  0.0418 -0.1279
17696W        W36550  10.636   4.306  13.946  0.0467 -0.3946 -0.0825
17697W        W36551   3.001   5.534   0.335  0.0197 -0.2286  0.0496
17698W        W36552   2.947   4.690   5.221 -0.3128 -0.1161  0.0436
17699W        W36553   6.715  12.748  12.485  0.0535  0.1102  0.0135
17700W        W36554   7.591   3.351  14.815  0.0352  0.0328  0.0978
17701W        W36555  15.126  10.446  12.652 -0.3353  0.2143 -0.0056
17702W        W36556  11.974   8.434  13.342  0.0191  0.0353 -0.2013
17703W        W36557   8.831   7.050   1.479  0.1939  0.1903  0.1192
17704W        W36558   2.466  11.938   1.138  0.1273 -0.2579  0.1069
17705W        W36559  15.480   1.117   5.639 -0.2894  0.2744  0.2555
17706W        W36560   8.354   3.920   1.093 -0.1469  0.1465 -0.0573
17707W        W36561   0.775  16.354   3.175 -0.0714 -0.0348  0.0591
17708W        W36562  11.786   9.352  16.716  0.2123 -0.2734  0.1261
17709W        W36563   0.093   0.414   3.098  0.1043  0.0814 -0.1245
17710W        W36564   7.490  10.722  15.508  0.0019  0.1120  0.0978
17711W        W36565   3.471  11.980   3.564 -0.0715  0.1156 -0.3708
17712W        W36566  16.607   4.305   2.325 -0.0287 -0.2655  0.2185
17713W        W36567   2.665  13.570   1.577  0.0108 -0.1938  0.1096
17714W        W36568  16.726   5.372   1.634 -0.1565  0.0892 -0.1218
17715W        W36569   5.567  15.974   0.788 -0.0323 -0.0077  0.0825
17716W        W36570  15.635  11.942   2.370  0.1434  0.1310  0.0241
17717W        W36571   0.100  14.753   1.579  0.3320 -0.1081 -0.1507
17718W        W36572   8.247  10.421  13.948  0.3413  0.2699 -0.1648
17719W        W36573   4.214  12.627  13.447  0.3164 -0.1418  0.1595
17720W        W36574  11.581   8.674  15.768 -0.2079 -0.2820 -0.3900
17721W        W36575   4.328  11.642  14.223 -0.0397 -0.1049 -0.0295
17722W        W36576   0.313   5.765  15.155  0.0789 -0.1851 -0.0142
17723W        W36577  15.437  16.510   5.097  0.1521  0.3698 -0.1539
17724W        W36578  12.710  16.530   3.989  0.0401 -0.0993 -0.2666
17725W        W36579   7.497  15.500   4.728 -0.3931 -0.0541 -0.3525
17726W        W36580  16.048  11.592  12.834  0.2402  0.3050 -0.2824
17727W        W36581  14.700   9.737   4.910 -0.0512  0.3319 -0.2895
17728W        W36582  10.588   0.713   0.525 -0.1980  0.0409 -0.1193
17729W        W36583   6.478  15.245   1.486  0.1456  0.0353  0.1012
17730W        W36584  15.582   9.501   0.603  0.1858 -0.2722 -0.1410
17731W        W36585   6.058   2.951   5.124  0.0086 -0.0167 -0.3265
17732W        W36586   0.089   4.608  14.354 -0.0783 -0.2652 -0.1682
17733W        W36587  16.310  10.547   3.384 -0.0885 -0.3524 -0.1513
17734W        W36588   9.802   5.664   4.122 -0.2488  0.0785 -0.1955
17735W        W36589   9.275  15.580   1.913  0.1860  0.0236 -0.0839
17736W        W36590   2.510  11.738   2.597  0.1586  0.1710 -0.1261
17737W        W36591  11.268   5.421   2.010 -0.0914  0.0124  0.1893
17738W        W36592  11.723   7.249   1.969  0.0384 -0.1696 -0.1135
17739W        W36593  11.376   6.380   5.259 -0.0979 -0.1206 -0.2041
17740W        W36594  12.694  10.574  15.096  0.1277  0.1073 -0.0160
17741W        W36595   6.246   3.958   1.009  0.1727  0.2279 -0.3460
17742W        W36596   9.777  15.173   3.708 -0.1229 -0.1596  0.1708
17743W        W36597   9.975  14.020  13.887 -0.2681  0.0182 -0.2514
17744W        W36598   7.407  13.457  13.420 -0.1079  0.1542  0.0527
17745W        W36599  15.794  13.976  12.991 -0.0259  0.0325 -0.0670
17746W        W36600  10.661   1.214  12.719 -0.2241 -0.0140  0.1589
17747W        W36601   3.753   4.631  15.727 -0.2253 -0.2684  0.1300
17748W        W36602   6.243  14.002  15.883  0.0476 -0.1824 -0.1668
17749W        W36603  12.797   1.672   0.693  0.2806 -0.2087  0.1492
17750W        W36604  10.421   3.122   0.453 -0.1110 -0.2452 -0.1232
17751W        W36605  11.568   6.295   0.239 -0.1004  0.2912  0.1739
17752W        W36606  13.025  15.532   0.533  0.2311 -0.1014 -0.0134
17753W        W36607   6.896   5.177   3.049  0.0015  0.2260  0.2687
17754W        W36608   5.251  15.636   3.196  0.2750 -0.2289  0.0129
17755W        W36609  16.309  12.933   0.226 -0.1532  0.1000 -0.0207
17756W        W36610  14.005   7.847   0.607  0.2169  0.0956 -0.3075
17757W        W36611   7.261  15.465  13.380  0.0822 -0.2884  0.2582
17758W        W36612  11.440  13.941  12.364  0.0460 -0.0781  0.1484
17759W        W36613  11.747  13.822   0.852 -0.2925 -0.0154  0.0279
17760W        W36614   8.489  16.222   1.176 -0.0462  0.0201  0.2733
17761W        W36615   4.239  13.091  11.894  0.1127  0.0468  0.3150
17762W        W36616   4.824   2.166  15.301  0.3053  0.1004  0.0539
17763W        W36617   0.452   9.424  12.640 -0.0110 -0.1995 -0.2628
17764W        W36618   3.141  15.923   4.694 -0.3673 -0.2175 -0.1457
17765W        W36619  12.602  10.314   0.185  0.0625  0.0411  0.0087
17766W        W36620   4.655   1.567  11.608 -0.1203 -0.0995 -0.1893
17767W        W36621   8.911   1.250   2.454  0.2791 -0.0329  0.0539
17768W        W36622   4.810  16.706  15.229 -0.2642  0.0031 -0.0750
17769W        W36623  10.916   6.958   2.574 -0.0998 -0.3154  0.1953
17770W        W36624   7.108   9.236   3.348 -0.0622 -0.2559 -0.0987
17771W        W36625  16.411  14.096  13.155 -0.2650 -0.1320  0.0301
17772W        W36626   8.736  11.949   5.182  0.3231  0.1383 -0.2111
17773W        W36627   4.558   4.485   4.226 -0.0311 -0.0783 -0.2367
17774W        W36628   3.476   6.144  17.171 -0.1110 -0.3089  0.0454
17775W        W36629  10.643   3.718   1.766 -0.1345 -0.1769 -0.0520
17776W        W36630   9.077   7.727  13.019 -0.0050 -0.1981 -0.0729
17777W        W36631   7.093   6.446  15.493 -0.4034  0.1926  0.1502
17778W        W36632   7.218  11.175   0.379 -0.0570  0.2199 -0.5065
17779W        W36633  10.150  12.784  17.362  0.3278  0.1024 -0.0290
17780W        W36634  10.300   2.354   4.238  0.2480 -0.1639 -0.2808
17781W        W36635   8.825   1.001  15.685  0.0872 -0.1204  0.0901
17782W        W36636   7.870  10.965  15.262  0.0562  0.2363  0.2144
17783W        W36637   4.153   3.778   3.843  0.0253 -0.1375 -0.1769
17784W        W36638  15.571  12.855   2.553 -0.3102  0.0588  0.2394
17785W        W36639   4.840   6.652   3.732  0.0189 -0.0664 -0.0313
17786W        W36640   8.955  10.409   0.878  0.1537 -0.3296 -0.1070
17787W        W36641  10.956   6.258  14.629  0.1626 -0.1201 -0.0167
17788W        W36642   2.869  15.067  16.279  0.2993 -0.1511 -0.2118
17789W        W36643   2.359  13.031   2.937  0.0435 -0.1041 -0.0114
17790W        W36644  15.346  16.042  12.622  0.3386 -0.0704 -0.1450
17791W        W36645  13.729  15.473  13.694 -0.1563 -0.4547  0.1351
17792W        W36646   0.989   8.939   0.642  0.3224 -0.3008 -0.0207
17793W        W36647  15.416  14.642   4.617 -0.1561  0.1978  0.0332
17794W        W36648   4.911   3.588   2.152 -0.2669  0.1074 -0.1053
17795W        W36649   7.105  13.489   0.250  0.2026  0.1394  0.0019
17796W        W36650   9.869  11.390   0.878 -0.2055 -0.1453  0.1354
17797W        W36651  13.077  10.907   3.731  0.1833 -0.0904 -0.1353
17798W        W36652   7.722  14.637  14.851  0.0999  0.0197 -0.0328
17799W        W36653   8.868   0.097  14.764  0.3272  0.2330  0.0675
17800W        W36654   3.980  10.618  15.502  0.0294 -0.0913  0.4145
17801W        W36655   0.619   8.758  16.753 -0.0859 -0.0834 -0.0283
17802W        W36656   2.329  15.406   1.464 -0.0597  0.0079  0.0568
17803W        W36657   6.788   1.028   0.188  0.3757 -0.1668  0.0789
17804W        W36658  14.815   7.551   1.283 -0.1245 -0.2149 -0.2459
17805W        W36659  16.671  15.479  14.271  0.4253  0.0384  0.0144
17806W        W36660  10.032  14.388  12.632  0.0208 -0.0043  0.0824
17807W        W36661   3.924   6.653  16.549  0.1103 -0.1154 -0.3252
17808W        W36662   1.880  13.275   2.980  0.0998  0.3448 -0.2643
17809W        W36663  16.937  11.855  12.550 -0.1366 -0.4177 -0.2365
17810W        W36664   0.539   8.653  12.299  0.2298  0.1101  0.1251
17811W        W36665   5.858   6.800   0.527  0.1889  0.0224 -0.1765
17812W        W36666  11.066   6.010   1.406  0.1285  0.2509  0.2159
17813W        W36667  16.427   3.294  12.516  0.1599 -0.2042  0.1631
17814W        W36668  16.828   1.947   0.062  0.1127  0.0622 -0.2550
17815W        W36669  10.348  17.289   0.630  0.0636  0.0447  0.0804
17816W        W36670  12.270   1.596   2.148 -0.2007  0.1083 -0.0307
17817W        W36671   0.446  14.871  13.053  0.1358 -0.0473  0.0537
17818W        W36672   7.157   8.079   4.646  0.0653  0.0527  0.3883
17819W        W36673   6.977   2.630  15.689 -0.1466  0.2309 -0.0979
17820W        W36674  16.267   9.291  14.528  0.2520  0.2263 -0.1315
17821W        W36675  11.261   5.936   5.005 -0.0550 -0.4271  0.0056
17822W        W36676  11.484   1.104   1.559  0.2880 -0.2552 -0.1348
17823W        W36677   3.725   3.465  13.390 -0.1146 -0.2016  0.3085
17824W        W36678   4.914   4.293  14.696 -0.0104  0.0530 -0.0939
17825W        W36679  10.414   2.693   2.801 -0.0387  0.0694 -0.1115
17826W        W36680   8.567   8.014  16.128 -0.0571 -0.1917  0.0536
17827W        W36681   1.080   6.473  13.919  0.0716  0.3130 -0.2179
17828W        W36682  13.290  11.520   2.846  0.3083 -0.0655 -0.0025
17829W        W36683  11.587   2.155   1.185 -0.0877  0.0103 -0.1178
17830W        W36684  12.221   5.676  12.685  0.0635 -0.0949 -0.1325
17831W        W36685   0.504  12.790   4.186  0.2950  0.0649 -0.0931
17832W        W36686   6.425   0.188  15.721 -0.1697  0.4284 -0.2469
17833W        W36687   3.681   5.679   1.311  0.0687 -0.0849  0.0496
17834W        W36688  13.054   0.021   4.909  0.3018 -0.0288 -0.1501
17835W        W36689   1.697   7.631   0.868 -0.0585  0.1078  0.1391
17836W        W36690   3.734  12.151   2.039 -0.1851  0.0587 -0.0221
17837W        W36691   9.850  13.709   4.702 -0.1983 -0.0579 -0.0496
17838W        W36692  15.717  10.589  14.263 -0.1606  0.4521 -0.0865
17839W        W36693   8.925  17.037  16.758  0.1001  0.1278 -0.0119
17840W        W36694   1.608   2.573   0.723  0.1778  0.0527 -0.1457
17841W        W36695  11.922   9.639   2.825 -0.0477 -0.2025  0.0282
17842W        W36696  14.858   0.218   4.278  0.4229 -0.2450 -0.1958
17843W        W36697  10.653  14.837   0.870  0.0815 -0.0244  0.1209
17844W        W36698  15.942   1.320   4.765 -0.0434 -0.1248  0.1200
17845W        W36699   3.730   4.184  15.074 -0.3974 -0.0408  0.4211
17846W        W36700   1.896  13.750   1.513  0.0815 -0.0324  0.0514
17847W        W36701  12.102   2.011  16.114 -0.1440 -0.0968 -0.0205
17848W        W36702  16.435  10.314  14.691  0.0676 -0.4237 -0.1659
17849W        W36703   1.773  14.684  16.988 -0.0789  0.2131  0.0648
17850W        W36704   8.200  13.331  17.102 -0.2951 -0.0843 -0.1529
17851W        W36705   6.156  15.992  14.619  0.0154 -0.1755 -0.1641
17852W        W36706  11.260  11.606   2.887 -0.2781 -0.2406  0.1960
17853W        W36707  12.503   7.402   0.111 -0.0700 -0.0093 -0.1102
17854W        W36708   2.990  15.391  12.245 -0.2150 -0.1563 -0.0995
17855W        W36709   5.705  13.730  15.106 -0.0446  0.2041  0.1953
17856W        W36710  12.868  10.779  17.014 -0.0251  0.2277  0.1409
17857W        W36711   8.627   7.891  13.259  0.2585  0.0280  0.0046
17858W        W36712   5.058   6.559   2.612 -0.0320  0.0138 -0.0692
17859W        W36713  14.521  17.363  14.587 -0.1105  0.0714  0.0761
17860W        W36714  15.813   8.885   1.356 -0.3218 -0.4861  0.4653
17861W        W36715   1.583   4.758   0.023 -0.1296  0.0461 -0.2127
17862W        W36716   7.948  15.492   4.467 -0.1962  0.0637 -0.0304
17863W        W36717   5.343  10.591   0.743 -0.0715 -0.0698 -0.0202
17864W        W36718  14.670  12.261   1.738 -0.2590 -0.0157 -0.0733
17865W        W36719   0.378   0.604  13.970 -0.2471 -0.0573 -0.1711
17866W        W36720  13.191   8.238  17.339 -0.0801  0.0562  0.2961
17867W        W36721  11.453   2.520  15.112 -0.2642 -0.3335 -0.1311
17868W        W36722  14.873   0.125   2.960 -0.2248  0.3391  0.0279
17869W        W36723   1.525   1.251   0.768  0.0770 -0.0954  0.0603
17870W        W36724  15.625   9.326   2.997  0.1262  0.0167 -0.0349
17871W        W36725   4.244  12.335  15.800  0.1205  0.0717 -0.1737
17872W        W36726   7.106  12.576   3.917 -0.0743 -0.0978 -0.0672
17873W        W36727  10.536   0.731   3.705  0.0585 -0.2302  0.0558
17874W        W36728   4.928  16.997   4.664 -0.0529  0.0667 -0.3862
17875W        W36729   8.874  11.180   2.722  0.1080 -0.1488  0.0028
17876W        W36730   7.420  11.854   2.127  0.1338 -0.0503  0.1515
17877W        W36731   6.379  14.421  13.619  0.0927 -0.0841  0.0345
17878W        W36732   3.175  12.068   4.409 -0.1881 -0.3350  0.0165
17879W        W36733   6.438  14.949   4.369  0.2347  0.0480  0.0624
17880W        W36734   2.246  17.066   1.231 -0.1618  0.0644  0.0104
17881W        W36735   6.570   4.172   4.889  0.2041  0.2045 -0.2712
17882W        W36736   6.233   8.471  12.727  0.0820  0.0066  0.1720
17883W        W36737  16.177  14.572  17.184  0.1305 -0.1354 -0.0628
17884W        W36738   6.739  12.787   0.528  0.1955  0.0875  0.1376
17885W        W36739  15.778   0.408   5.129  0.1628 -0.1410  0.3084
17886W        W36740   3.331  16.768  14.207  0.1817  0.0751  0.2724
17887W        W36741  14.965  16.003  17.014  0.0514  0.2040 -0.3752
17888W        W36742  13.154  15.377   2.373  0.0445  0.0846  0.1618
17889W        W36743  10.348   6.848   1.175 -0.3869  0.0274 -0.1063
17890W        W36744  11.137  12.399  16.105 -0.0535 -0.0136 -0.1358
17891W        W36745   4.367   5.714   4.948 -0.4622  0.0021 -0.0654
17892W        W36746   9.526  10.732   5.144 -0.0307  0.0252 -0.0667
17893W        W36747  11.570  14.597  14.326  0.2319 -0.2661 -0.2081
17894W        W36748   3.457  16.402  15.695 -0.0208 -0.0477  0.0869
17895W        W36749  12.824   0.249  13.755  0.2697  0.2456  0.2158
17896W        W36750   8.645   1.457   3.846 -0.3665 -0.1478  0.0725
17897W        W36751  15.976   6.718  15.408  0.1718 -0.2020  0.0016
17898W        W36752   2.872  10.789   1.921  0.2510  0.0612 -0.2061
17899W        W36753   5.814  10.378  13.391  0.0650 -0.1559  0.0782
17900W        W36754  13.027   4.669   5.003  0.3430 -0.0984  0.0147
17901W        W36755   2.533   4.407  16.550 -0.0608 -0.1296  0.1866
17902W        W36756  14.190   1.412  14.190  0.1872 -0.0918 -0.2703
17903W        W36757   7.003   6.677   3.549  0.1073  0.1594  0.0400
17904W        W36758   5.710   1.388   4.690  0.0851 -0.2609 -0.0278
17905W        W36759   5.608  14.248  12.030 -0.3105  0.5922  0.0234
17906W        W36760  12.348   6.489  13.283  0.0583 -0.0808 -0.0314
17907W        W36761  14.925   0.077   2.378  0.3530  0.0344 -0.2529
17908W        W36762  17.194  16.153   3.482 -0.1756 -0.1050 -0.0904
17909W        W36763  10.587   8.318   5.229 -0.0029 -0.0673 -0.2134
17910W        W36764   0.542  15.630   5.826 -0.0310 -0.1118  0.2077
17911W        W36765  17.373   4.812  13.938  0.1684  0.2039  0.1884
17912W        W36766  14.128  14.394  14.011 -0.0605 -0.1883  0.2094
17913W        W36767  17.041   9.434  11.855 -0.1675 -0.2674  0.1803
17914W        W36768   1.634  12.821  16.147  0.0975  0.0129  0.0577
17915W        W36769   3.087  13.841  15.890 -0.0590  0.4436  0.1767
17916W        W36770  13.459   0.449  14.147 -0.1854  0.1809  0.1758
17917W        W36771   9.267   5.094  16.651  0.0936 -0.0549 -0.2877
17918W        W36772  11.863  14.574   1.761  0.0932  0.1978 -0.1487
17919W        W36773  14.623  11.228  14.574 -0.4066 -0.4419 -0.1405
17920W        W36774  12.484  17.073  14.884 -0.4077  0.2117  0.0679
17921W        W36775  10.744  15.957   1.555  0.1520  0.0987  0.1644
17922W        W36776  15.595  15.569   2.941  0.2371  0.2245  0.3226
17923W        W36777  16.696   4.470  15.177  0.1944 -0.3146  0.1829
17924W        W36778   3.702   3.007   4.513 -0.1498  0.0819 -0.2258
17925W        W36779  14.951  11.221  13.243  0.0126  0.1928 -0.0466
17926W        W36780   7.310   5.721  14.219  0.1778 -0.0042  0.2830
17927W        W36781   5.095   0.538   3.371  0.3216 -0.0983 -0.1148
17928W        W36782   3.294   2.703   2.573  0.2465  0.2630 -0.0124
17929W        W36783   6.270  10.849  11.736  0.0329  0.2775  0.1692
17930W        W36784   0.114   5.444  16.838 -0.3673 -0.2801 -0.0008
17931W        W36785  15.943   2.223  16.109  0.0229  0.4132  0.0865
17932W        W36786   6.143  13.870   0.026 -0.2344  0.1064 -0.2444
17933W        W36787  15.274  13.928   1.306 -0.1394  0.2204 -0.1816
17934W        W36788  11.835   4.607  13.846 -0.1464 -0.0256 -0.1759
17935W        W36789  14.495   6.623  14.690  0.2668  0.0344  0.2737
17936W        W36790  11.753  11.976   0.803 -0.0100 -0.1342 -0.2231
17937W        W36791   8.792   0.047  12.499  0.0774 -0.1365 -0.0287
17938W        W36792  14.700   8.558  13.379 -0.1241  0.2124  0.2353
17939W        W36793  11.650   1.527   3.439  0.2153  0.0944  0.2562
17940W        W36794   3.011  16.754  12.354 -0.0339 -0.2049 -0.0933
17941W        W36795   5.269  13.883   4.472  0.0483  0.0582 -0.0057
17942W        W36796   5.398  15.973   4.171  0.4595  0.2222  0.0219
17943W        W36797   4.780  16.500   4.582 -0.0559  0.1300  0.1881
17944W        W36798   5.824   4.345   0.134 -0.0136 -0.0440  0.0270
17945W        W36799   0.656  13.122   1.680  0.0113  0.0550  0.2756
17946W        W36800   9.603   2.059  16.990  0.1310  0.2718 -0.0310
17947W        W36801   0.401   9.323   2.975 -0.2622 -0.2868  0.0737
17948W        W36802  12.208  16.917   1.102  0.0684 -0.0141  0.2486
17949W        W36803  16.222   6.183   0.391 -0.0185  0.0570 -0.4341
17950W        W36804   4.792   2.717  15.413 -0.2824  0.5006 -0.2564
17951W        W36805   7.288  14.803   3.814  0.1216 -0.3037  0.0187
17952W        W36806  14.744  15.366   0.730  0.1599 -0.3397  0.0189
17953W        W36807   3.127   5.132  13.213  0.0405 -0.0716  0.2437
17954W        W36808   3.879   9.505  14.190 -0.3343 -0.2037  0.0805
17955W        W36809  16.628   7.856  14.683  0.2546 -0.0583 -0.1046
17956W        W36810  12.041  15.912  17.483  0.0782 -0.1388  0.0993
17957W        W36811  13.653   2.095  15.600 -0.0130  0.2885  0.1845
17958W        W36812  13.150   6.574   1.631 -0.2280  0.0942 -0.2053
17959W        W36813   0.022   0.819   2.745  0.1255  0.2776  0.0734
17960W        W36814   3.347   2.778   1.509  0.3108 -0.0718  0.1528
17961W        W36815   1.735   7.105  14.587  0.1036  0.1143  0.1905
17962W        W36816   0.371   7.352   3.146  0.0277  0.1758 -0.1064
17963W        W36817   3.394   4.122   0.714  0.1267 -0.0513 -0.0126
17964W        W36818  14.156  15.153   1.749  0.1734  0.0975 -0.0766
17965W        W36819  17.401   2.564   1.171  0.2290  0.0345  0.2734
17966W        W36820  11.321  15.339   2.515 -0.0853 -0.1834 -0.0630
17967W        W36821   6.582  14.531   2.770 -0.2653  0.0474  0.0688
17968W        W36822   7.013  11.578  13.308  0.2057 -0.0123 -0.1662
17969W        W36823   9.809   5.187   4.298  0.2551  0.0294  0.3010
17970W        W36824   0.020   7.934  12.973  0.0744 -0.0132 -0.1528
17971W        W36825   2.354  10.135   3.418 -0.1864 -0.1507  0.1143
17972W        W36826   4.433  10.949   3.669  0.0251  0.0858  0.3212
17973W        W36827  17.353   6.591  14.709  0.0745  0.2306  0.0496
17974W        W36828  11.103   7.660  12.718 -0.2428 -0.2549  0.2363
17975W        W36829   5.250   2.561   3.428 -0.3829 -0.0383 -0.1852
17976W        W36830   8.302   7.224  17.364 -0.2883  0.1489  0.0394
17977W        W36831   5.469  14.485   5.237 -0.0236  0.0540  0.0703
17978W        W36832  17.198  16.087  14.812 -0.0782  0.3600  0.0234
17979W        W36833   9.306   3.537  14.298 -0.0016  0.0302 -0.1018
17980W        W36834   6.916   7.386   1.642 -0.1740 -0.2315  0.1570
17981W        W36835  13.867  12.965   4.648  0.0237  0.0407 -0.0238
17982W        W36836  14.952   0.952   1.662 -0.0943  0.1321  0.0400
17983W        W36837   1.974   8.264   3.478 -0.1815  0.1339  0.4602
17984W        W36838   3.391  12.345  15.984  0.0099  0.0908  0.1801
17985W        W36839   6.055   0.158   4.227  0.0307 -0.0495 -0.0753
17986W        W36840   4.933   1.124  15.326 -0.2781  0.0049 -0.1720
17987W        W36841  15.801  11.108   0.832  0.1583  0.2321  0.3678
17988W        W36842   4.025   9.510   3.518 -0.2002 -0.1124 -0.1362
17989W        W36843   4.857  14.049  15.577  0.3189  0.3477 -0.0333
17990W        W36844  13.153   3.774  13.138  0.0176  0.2265  0.2331
17991W        W36845   9.709  11.478  12.455  0.0424 -0.1388  0.2409
17992W        W36846  15.780   2.181  15.232 -0.1494 -0.1911  0.3022
17993W        W36847   4.912   6.760   4.506  0.2872  0.2068 -0.1672
17994W        W36848   6.798   6.725  15.806  0.0612 -0.0485  0.0146
17995W        W36849  16.895   4.002  14.950 -0.1431 -0.0099 -0.1858
17996W        W36850   6.186  11.867   1.656 -0.0580 -0.1755 -0.0316
17997W        W36851   1.062   2.826  17.171 -0.1281  0.3618 -0.4006
17998W        W36852   5.380   6.164  13.033 -0.1659  0.1797 -0.0132
17999W        W36853   0.485   5.638  13.049  0.1274 -0.2441  0.0773
18000W        W36854   1.651   0.188   1.562 -0.0626 -0.0839 -0.1277
18001W        W36855   7.045   5.225  15.174 -0.0308 -0.0952 -0.0435
18002W        W36856  14.801  15.827  12.845 -0.3747  0.2169 -0.0154
18003W        W36857  15.625  13.619   2.999  0.1503 -0.0348  0.1050
18004W        W36858  16.751  17.210  16.992  0.3048 -0.0650 -0.0651
18005W        W36859  17.189  11.370   4.573  0.0153 -0.1276 -0.4058
18006W        W36860  14.430  13.117   0.668 -0.3589 -0.0099 -0.1637
18007W        W36861  10.011   7.064  14.583 -0.1369 -0.2907  0.1008
18008W        W36862   0.304   2.336  13.676 -0.3846 -0.1528  0.2482
18009W        W36863   9.011   0.639  13.768 -0.2057  0.0893 -0.1230
18010W        W36864  11.941  10.755   3.581 -0.0255  0.4506  0.1575
18011W        W36865   5.377   6.119   4.908  0.0152 -0.0330  0.0107
18012W        W36866   0.903  15.486   3.983  0.1371 -0.0461  0.1103
18013W        W36867   2.499   5.311   3.050  0.0340 -0.1842  0.0395
18014W        W36868   5.701   3.008   2.217 -0.1341 -0.0534  0.0606
18015W        W36869  10.691  10.650   4.059  0.1087 -0.0054 -0.0149
18016W        W36870   5.554   6.324  14.903 -0.1307  0.0240 -0.0774
18017W        W36871   5.023   1.620   1.042 -0.1138 -0.0829 -0.3639
18018W        W36872   7.298  15.819  16.785 -0.1420  0.2127  0.0248
18019W        W36873   4.525  10.973  17.076 -0.2146 -0.3517 -0.0003
18020W        W36874  12.560   7.072  16.636  0.1541  0.1628 -0.1283
18021W        W36875  11.410  11.441  16.611 -0.0362 -0.1793 -0.2992
18022W        W36876   4.543  16.042   4.505 -0.0888 -0.0590 -0.0827
18023W        W36877   7.208  10.123   2.364  0.0781  0.0637 -0.4085
18024W        W36878  13.841   5.392   0.947 -0.1412  0.2870  0.0664
18025W        W36879  12.608   7.238   2.734  0.0317 -0.0582 -0.2098
18026W        W36880   6.876  15.441   3.101  0.0933 -0.3161 -0.0724
18027W        W36881  12.187   7.599   2.658 -0.1398  0.1051 -0.4388
18028W        W36882   2.447   5.871  13.195  0.1418  0.0351 -0.2261
18029W        W36883  15.624   8.368   3.877 -0.1248 -0.1387  0.3274
18030W        W36884  10.064  12.278  17.368  0.0946  0.0940 -0.0329
18031W        W36885  11.533   0.483   0.291 -0.1381  0.1433  0.0287
18032W        W36886   1.578   4.866  12.810 -0.2104  0.2930  0.1635
18033W        W36887   0.006  16.448  15.609  0.0685 -0.1958 -0.2008
18034W        W36888   3.241   8.554  14.257 -0.0454 -0.0382  0.0443
18035W        W36889   0.624   1.660  12.713  0.1484 -0.2407  0.0432
18036W        W36890  15.959  11.146  16.343 -0.3855 -0.0581  0.2567
18037W        W36891  14.252   2.777   0.793  0.1397  0.1270 -0.1453
18038W        W36892  12.879  12.445  13.217  0.0527 -0.0519 -0.0199
18039W        W36893   2.430   2.075   4.664 -0.0810  0.0306  0.0696
18040W        W36894  16.950  10.344  14.170  0.0590  0.0028  0.2121
18041W        W36895   4.490  14.165  16.011  0.0534  0.3828  0.2525
18042W        W36896  14.265   6.957   0.890 -0.2062  0.0579  0.1778
18043W        W36897   5.639   2.871   3.382 -0.0339 -0.0271  0.1060
18044W        W36898  12.622  15.528  14.774  0.0733  0.0211  0.0152
18045W        W36899  11.390   4.205   2.640  0.0986  0.0197 -0.1348
18046W        W36900  10.905  14.837  17.255  0.2824  0.0300 -0.0253
18047W        W36901   5.139  12.129  16.401 -0.0388 -0.0579 -0.1757
18048W        W36902   6.035  11.614   0.396 -0.4693 -0.2936 -0.3080
18049W        W36903  17.150   8.095   4.119 -0.1306 -0.3256  0.1383
18050W        W36904   7.097   0.390  12.993  0.1505 -0.1414  0.1304
18051W        W36905  14.815   9.125   0.459  0.3924 -0.1186  0.1803
18052W        W36906  16.523  12.213   2.775 -0.0178 -0.4956 -0.3453
18053W        W36907   4.428   6.713  15.713 -0.1291  0.0852  0.0298
18054W        W36908   5.080   3.136  14.052  0.3781 -0.1631 -0.1083
18055W        W36909  14.271  15.589   3.185  0.1027  0.1098  0.0763
18056W        W36910   8.764  14.999   0.126  0.3104  0.0787  0.0203
18057W        W36911  15.332   0.530   4.913 -0.1465 -0.0836  0.2470
18058W        W36912   4.874   3.391  12.746  0.0478  0.1905  0.1749
18059W        W36913  11.625  17.230  12.133 -0.0827 -0.0439 -0.0475
18060W        W36914   9.942   1.059  17.158  0.0550  0.1383  0.0108
18061W        W36915   2.447  16.642  16.968  0.0494  0.0327 -0.0099
18062W        W36916  16.890   6.581  14.872  0.1945 -0.0285  0.0588
18063W        W36917   6.240  10.831   0.219  0.2648 -0.0075 -0.2277
18064W        W36918  12.682   6.642   4.796  0.1775 -0.3803 -0.3057
18065W        W36919   2.898  14.927  12.835 -0.3492  0.1170  0.1731
18066W        W36920  12.024  17.193   0.693 -0.1507 -0.0179 -0.1974
18067W        W36921  14.806  16.896   0.735 -0.2602 -0.1387  0.3289
18068W        W36922  11.533   5.111  15.557  0.0548  0.0280  0.0673
18069W        W36923  11.861   5.620   3.734 -0.0521 -0.0026  0.2465
18070W        W36924   3.093   3.246   2.913 -0.1778  0.0881 -0.3445
18071W        W36925   3.193  10.965   4.409  0.0303  0.4099 -0.3096
18072W        W36926   4.968   1.090   5.117 -0.2209  0.0518  0.0552
18073W        W36927   9.077   3.823  13.006  0.1849 -0.1534  0.3117
18074W        W36928   6.412  13.360   4.965  0.1382 -0.0456 -0.0617
18075W        W36929   3.629  10.646   0.583 -0.1369 -0.2188  0.0428
18076W        W36930   8.765   1.190  14.654  0.1315 -0.1895 -0.0771
18077W        W36931  12.144   6.088  16.026  0.0587  0.0651  0.1078
18078W        W36932   7.133  13.808   6.349  0.1339  0.1062 -0.2845
18079W        W36933   1.252   3.506   5.090 -0.1062 -0.1168 -0.0041
18080W        W36934  12.749   7.556  16.872 -0.0451 -0.0759 -0.2409
18081W        W36935   1.752   0.766  14.588  0.1994 -0.3125 -0.0237
18082W        W36936   8.609   9.891   3.777 -0.2417  0.2396 -0.1965
18083W        W36937   8.721  11.850   0.635 -0.0233 -0.0337  0.0996
18084W        W36938   7.073  15.929   3.444 -0.0574 -0.2679 -0.0869
18085W        W36939   5.418   0.148  14.612 -0.0668 -0.0557 -0.0572
18086W        W36940   9.214   9.021   0.794 -0.1498  0.3762 -0.1978
18087W        W36941  13.035  14.538   5.009 -0.4383  0.0334 -0.2243
18088W        W36942   5.207   1.306  16.899  0.1493  0.0761 -0.0952
18089W        W36943   7.338  15.881  13.694  0.1671  0.2158  0.2466
18090W        W36944  14.496  15.395   3.577  0.0988 -0.1584  0.1063
18091W        W36945  17.396   6.308  15.175  0.1963  0.1148 -0.2566
18092W        W36946  14.354  15.043   0.955  0.2491  0.1600  0.0392
18093W        W36947   4.999   8.686  13.322  0.0137  0.1114  0.0432
18094W        W36948   6.122   5.721  16.277  0.1176 -0.0236 -0.0899
18095W        W36949   4.282  15.880   2.712  0.2972  0.1952 -0.0572
18096W        W36950   5.072   9.749   2.886  0.0812 -0.0901  0.1932
18097W        W36951  11.195   2.387  17.131  0.0224  0.0824 -0.0500
18098W        W36952  11.514  10.656   4.687 -0.0594  0.1786  0.1207
18099W        W36953   7.131   3.562   1.372 -0.0622 -0.1959  0.1720
18100W        W36954  10.986   2.228  14.334  0.2031  0.0276 -0.0992
18101W        W36955  10.749  13.695  13.612 -0.1157 -0.0269 -0.0880
18102W        W36956   5.390   0.333  12.484  0.0648  0.0918  0.2425
18103W        W36957   7.857  16.460  16.757 -0.0411  0.2714  0.1216
18104W        W36958  10.397   1.796  13.189  0.0420  0.2174  0.0305
18105W        W36959   1.505  16.189  13.913  0.2741  0.1733  0.0826
18106W        W36960   2.210   9.299  15.590 -0.0841  0.1119 -0.0510
18107W        W36961   2.084  11.299   1.510  0.1060 -0.1330 -0.0627
18108W        W36962  12.965  15.400  16.774 -0.3576 -0.1855  0.1144
18109W        W36963   4.987   9.353   5.139 -0.0449 -0.2286  0.1948
18110W        W36964   2.939  13.738  16.731 -0.0071 -0.2833  0.3402
18111W        W36965   3.565   1.318  13.167  0.2279 -0.0006  0.0537
18112W        W36966  15.537  12.161   1.507 -0.0457  0.2313 -0.2485
18113W        W36967   8.250   6.950  16.435  0.0790 -0.2513  0.0677
18114W        W36968   4.772  17.362   0.378 -0.1582 -0.1632 -0.0831
18115W        W36969  10.935   3.952   0.375 -0.2081 -0.2564  0.1656
18116W        W36970   4.490   8.632   2.220  0.4469  0.3095  0.0446
18117W        W36971  11.967  11.185   5.525 -0.1662 -0.1792  0.1493
18118W        W36972   9.893  15.262   0.125  0.0324 -0.1029 -0.0659
18119W        W36973   7.854   2.532   2.001 -0.0925  0.2048  0.0071
18120W        W36974  15.246   7.583   3.672  0.1155  0.1063 -0.1858
18121W        W36975  16.665   0.202  13.312 -0.1131 -0.1178  0.1560
18122W        W36976  13.031  16.316   2.697  0.1720  0.0140 -0.0069
18123W        W36977   7.349   3.043  13.521 -0.0669 -0.0008  0.0514
18124W        W36978  13.949  11.501  13.476  0.0385  0.1854  0.0312
18125W        W36979   5.407   8.811  16.935  0.2142  0.0386  0.0163
18126W        W36980   7.096   4.771  12.235  0.1092  0.1165  0.2560
18127W        W36981   1.841  14.603   1.539  0.2295 -0.0840 -0.2908
18128W        W36982   1.334  12.994  12.491 -0.1305 -0.0114  0.1319
18129W        W36983  16.214   1.794   4.112  0.1509  0.0942 -0.1631
18130W        W36984   2.966  15.180   2.184  0.1580  0.0349 -0.2556
18131W        W36985  16.015   7.708  16.505 -0.2848  0.2747 -0.2492
18132W        W36986   1.804   3.590  14.556  0.0096 -0.1504  0.2032
18133W        W36987  10.244  11.633  13.060 -0.0638  0.0635  0.3169
18134W        W36988  11.237   8.270  13.749  0.2399 -0.1370 -0.0306
18135W        W36989  16.223   6.655  16.621 -0.2379 -0.1107  0.0026
18136W        W36990   0.303  16.171  17.087  0.2623  0.0114  0.1585
18137W        W36991   8.314   8.643   4.296  0.0074 -0.1515 -0.0520
18138W        W36992   2.114  10.923   5.321  0.0792  0.0169 -0.0554
18139W        W36993  15.053  14.418   1.373 -0.0278  0.1737 -0.0884
18140W        W36994  11.478   1.001  15.856  0.0642 -0.1810 -0.0783
18141W        W36995   8.916   2.555   2.241  0.1272 -0.2180 -0.0177
18142W        W36996   6.377   2.785  15.122 -0.1158 -0.1908 -0.0155
18143W        W36997   7.557   8.920  13.451 -0.0419 -0.1683 -0.2225
18144W        W36998  11.806   4.202  14.712 -0.1185 -0.0956 -0.0051
18145W        W36999   3.056   9.901  17.403  0.2374 -0.0940  0.3899
18146W        W37000   3.451  11.991   5.432 -0.2890  0.1592 -0.0166
18147W        W37001   1.613   7.359   3.322 -0.3135  0.0947 -0.0670
18148W        W37002  12.236   7.942   4.343  0.3535  0.3020  0.2086
18149W        W37003   7.470  15.419  16.441 -0.0497  0.0148  0.1255
18150W        W37004   6.745   7.905   5.047  0.2113 -0.0637  0.2396
18151W        W37005  13.864   0.505  14.844 -0.0626 -0.4765 -0.0178
18152W        W37006   2.106   7.587   1.730  0.0797 -0.1300 -0.2500
18153W        W37007  15.011  15.149  15.889 -0.1692  0.1271 -0.0615
18154W        W37008   8.059   6.515   1.935 -0.0073  0.3471  0.3603
18155W        W37009  14.690   6.961   5.180 -0.2440 -0.2882 -0.3717
18156W        W37010   9.860  11.761  16.641  0.0991 -0.4733 -0.0524
18157W        W37011  11.858  13.348  13.861  0.2699 -0.0005  0.1690
18158W        W37012   0.881  14.814   3.685 -0.0819 -0.0251  0.1286
18159W        W37013   5.042   6.544   4.924  0.0724  0.0946  0.2515
18160W        W37014  11.373   9.563  16.956 -0.0469 -0.1263 -0.0374
18161W        W37015  14.727   9.102   2.978  0.1476  0.0642  0.0748
18162W        W37016   5.805   6.826   1.097 -0.1468  0.0600 -0.0164
18163W        W37017   2.487  15.357  17.050 -0.1765  0.0309  0.0848
18164W        W37018  14.278  14.713  14.712  0.5347 -0.2113 -0.1946
18165W        W37019  13.325   9.918  14.405 -0.0294 -0.0302  0.0579
18166W        W37020  12.207  13.780  14.698 -0.0589 -0.1086 -0.1517
18167W        W37021  14.798   3.734   2.723 -0.4354 -0.2098 -0.0156
18168W        W37022   2.256   4.784   4.301  0.1767  0.0488  0.3384
18169W        W37023  13.287   5.470  17.112 -0.0852 -0.0606  0.3318
18170W        W37024  16.428   0.135  15.432  0.1074  0.3090 -0.0319
18171W        W37025  10.321  14.346   3.428  0.4631  0.2080  0.1558
18172W        W37026  14.581   4.881   1.830  0.0030 -0.1204 -0.2908
18173W        W37027  12.633   6.243  11.406 -0.1952 -0.1260  0.0920
18174W        W37028   8.305   5.273  14.804 -0.0393 -0.1269 -0.0855
18175W        W37029   6.948  15.690  14.832  0.1426 -0.1065 -0.1877
18176W        W37030  10.250   2.631  13.610  0.2137 -0.2179  0.1887
18177W        W37031   0.181   6.821   0.580 -0.2413  0.0682 -0.1610
18178W        W37032   6.345   8.181  13.709 -0.2253 -0.3049 -0.0308
18179W        W37033   9.983  12.308   1.389  0.0798  0.1385 -0.1135
18180W        W37034   3.569  13.779  15.973  0.0698  0.2042  0.3115
18181W        W37035   4.072  12.953   1.449  0.2687  0.0810 -0.0434
18182W        W37036   8.522  16.918  13.406  0.1343  0.2249  0.1218
18183W        W37037  16.279  13.939   2.277 -0.0808 -0.0790  0.4253
18184W        W37038   7.762  12.987  16.468 -0.3554  0.1380  0.2996
18185W        W37039  17.313   7.437   0.488 -0.0307 -0.1215 -0.2142
18186W        W37040   7.292  17.361   5.000  0.0740  0.1291  0.0963
18187W        W37041   6.378   6.060   2.907 -0.2243  0.3052 -0.2650
18188W        W37042   7.477  10.156   4.625 -0.0826  0.2696  0.1039
18189W        W37043  12.503  14.532   0.215  0.0306 -0.3886 -0.4306
18190W        W37044  15.388   0.372   2.235  0.0517 -0.2378 -0.1030
18191W        W37045  17.170   0.923   4.920  0.0637  0.1146  0.0301
18192W        W37046   3.599   3.432  12.003  0.1806  0.0590  0.0672
18193W        W37047  14.062  10.002  12.481  0.1859 -0.0992 -0.1010
18194W        W37048   8.409  12.315   5.038 -0.3893  0.0478 -0.1480
18195W        W37049   6.903  10.259  16.591  0.0743 -0.1978  0.0949
18196W        W37050   9.266  17.068   4.254  0.0572  0.3797  0.2962
18197W        W37051  13.334  10.062  13.876 -0.0963  0.3007  0.2756
18198W        W37052   9.309   6.716  15.174  0.2348 -0.2255 -0.3081
18199W        W37053  14.209   5.747  17.023  0.0252  0.3105  0.1246
18200W        W37054  14.920  11.821   5.120 -0.1810 -0.2412 -0.0898
18201W        W37055  11.254   5.002   3.672  0.1195  0.0463  0.0688
18202W        W37056   8.081  16.594   2.348  0.2041 -0.1977 -0.2198
18203W        W37057   0.031  12.116   1.247  0.1453  0.1583 -0.0682
18204W        W37058  15.842   4.697  16.042  0.0921  0.0261  0.1575
18205W        W37059  15.282  17.267   0.634 -0.0303 -0.1620  0.1539
18206W        W37060  17.089   4.189  15.926 -0.0999 -0.0198  0.0442
18207W        W37061   8.332   8.914   3.224  0.2257  0.0122 -0.0597
18208W        W37062   1.371   9.169  17.209 -0.2022  0.1065  0.0748
18209W        W37063  14.714   9.560  17.072 -0.1719 -0.1433 -0.2768
18210W        W37064   9.232   9.379  13.775 -0.1615 -0.2672 -0.0017
18211W        W37065   9.151   7.173   0.344  0.1775 -0.0837 -0.2506
18212W        W37066   7.761  11.799   4.224  0.0702  0.3145  0.3159
18213W        W37067   4.974   8.010   0.655  0.1179 -0.3542 -0.0590
18214W        W37068   1.212  14.779   2.584 -0.0886  0.3797 -0.0623
18215W        W37069   4.762  10.234   0.145  0.0885 -0.3941 -0.2379
18216W        W37070  12.222  14.254  14.956  0.2424  0.1232 -0.0349
18217W        W37071   2.016   7.720  16.238  0.3354  0.2078 -0.0340
18218W        W37072   1.606  17.190  12.680  0.1588 -0.1837 -0.1215
18219W        W37073   4.576  17.232   4.071  0.1605 -0.0623  0.0238
18220W        W37074  11.706  11.896  16.414 -0.0773  0.1716  0.0341
18221W        W37075  12.912   6.445   4.357 -0.1509  0.0378 -0.1985
18222W        W37076   6.419   4.954  12.548  0.0484  0.3363  0.1083
18223W        W37077   0.117  14.179  13.262 -0.2351 -0.1318  0.3248
18224W        W37078  10.615  12.223   2.783 -0.0747 -0.0414  0.1330
18225W        W37079  17.184   4.365  14.660  0.4108  0.1073  0.2060
18226W        W37080   2.714   4.310  14.688 -0.2247 -0.1029 -0.0535
18227W        W37081   5.711   0.324  13.887  0.0171 -0.1524 -0.0690
18228W        W37082  11.785   0.450  12.993  0.2289  0.2205  0.0109
18229W        W37083  11.641   7.502   4.104 -0.0952 -0.3356  0.0823
18230W        W37084   1.674  13.396  15.742  0.1060  0.1270 -0.0660
18231W        W37085  17.314   2.981  13.332  0.2658  0.0478 -0.2803
18232W        W37086   7.179  12.872  17.468 -0.4009  0.2398 -0.1543
18233W        W37087   9.129  15.489  14.872 -0.1652  0.0308 -0.0370
18234W        W37088  15.691  11.949  12.965  0.0733  0.1087  0.1196
18235W        W37089   8.919   5.137  17.071  0.1102  0.2021  0.0954
18236W        W37090  14.531  16.319   3.507  0.1388 -0.2586  0.0239
18237W        W37091   6.461  16.905  13.094 -0.1520  0.1310  0.0549
18238W        W37092  12.829   2.822   3.528 -0.1171 -0.2284 -0.1831
18239W        W37093   2.647   1.373   3.174 -0.4757  0.0037 -0.2110
18240W        W37094   8.447   9.581  14.354 -0.1726  0.2412 -0.1364
18241W        W37095  13.670  15.861   3.182  0.1993  0.0462  0.2092
18242W        W37096   8.088  10.039   2.561  0.1012 -0.2733 -0.3291
18243W        W37097   6.206   3.295   0.350  0.0111  0.0088 -0.1012
18244W        W37098   8.060   7.262  16.865 -0.1542 -0.0736 -0.2159
18245W        W37099  12.346   8.542   0.200  0.0099  0.1484 -0.1016
18246W        W37100   8.669  11.034   4.445 -0.0048 -0.2907 -0.1675
18247W        W37101   4.809   2.512  14.949  0.0243 -0.1242 -0.0838
18248W        W37102   4.932  16.792   2.636  0.4035  0.1891  0.0201
18249W        W37103  12.037   6.776   2.767  0.1182  0.2008  0.1577
18250W        W37104   4.372  10.245  15.417 -0.0932  0.4616 -0.0069
18251W        W37105  11.099   3.281   4.531  0.3692 -0.1388  0.1098
18252W        W37106   8.856  10.004   4.846  0.0929 -0.3689  0.0689
18253W        W37107   1.741  14.227  16.426  0.0740  0.0313 -0.2813
18254W        W37108   6.840   4.601   4.261 -0.1158 -0.0645 -0.1429
18255W        W37109  12.024  16.458   3.277  0.1813 -0.2133  0.4132
18256W        W37110   2.026  14.482   0.212 -0.3327 -0.0905 -0.1373
18257W        W37111  17.042  11.199   2.647  0.1759  0.2178 -0.3497
18258W        W37112  11.435  13.367   3.533  0.1388 -0.0558  0.4230
18259W        W37113  12.459  17.222   3.593  0.3083 -0.0387  0.0239
18260W        W37114   2.547  11.188   3.268 -0.6076  0.1301 -0.0633
18261W        W37115   4.889   1.523  16.285 -0.0468 -0.0022 -0.1058
18262W        W37116   9.469  12.690  13.957  0.2445  0.1122  0.2136
18263W        W37117  11.640   7.189  13.808 -0.0627 -0.1910  0.3423
18264W        W37118   8.111  11.905  13.914 -0.2779  0.2597  0.1618
18265W        W37119  17.360  14.552  13.530 -0.0916 -0.1171 -0.0857
18266W        W37120   6.727   4.890  13.595  0.3633  0.1086  0.1204
18267W        W37121   6.583   8.421   5.165  0.0278 -0.3374 -0.0587
18268W        W37122   8.681   5.472  16.193  0.1169 -0.1804  0.0788
18269W        W37123   2.657   9.246   4.123 -0.1157 -0.1262 -0.0963
18270W        W37124  15.954   1.240   1.444 -0.2289  0.1181 -0.0151
18271W        W37125  14.366   0.618   4.613 -0.0004 -0.0525  0.0150
18272W        W37126  16.368   5.872  14.963 -0.1340 -0.2477  0.2266
18273W        W37127   6.507   5.189   3.507  0.0845 -0.1592  0.1003
18274W        W37128  10.374   2.967   1.019  0.0362 -0.0997 -0.0142
18275W        W37129  15.190   5.992   5.097  0.1223  0.1431 -0.1630
18276W        W37130  11.413  10.053   3.778 -0.1149 -0.1302  0.0371
18277W        W37131   3.835   6.564  15.456  0.0934  0.2096  0.2758
18278W        W37132   4.149   4.413  15.363 -0.1719  0.2766  0.1651
18279W        W37133  10.178   7.435  17.069  0.1329  0.1612  0.3948
18280W        W37134  12.161   4.082   4.273  0.0196 -0.1281 -0.2864
18281W        W37135  16.945   0.666   4.530 -0.0696 -0.3711 -0.1583
18282W        W37136   0.361   7.259   3.774 -0.1634  0.2921 -0.2399
18283W        W37137   4.881  14.055   4.226 -0.2429 -0.2553 -0.1024
18284W        W37138   9.431   0.452  13.953 -0.0293  0.2372 -0.0947
18285W        W37139   8.569   1.389   1.653  0.0215  0.3251 -0.3903
18286W        W37140   7.711   9.700   5.204 -0.2336  0.3208  0.0238
18287W        W37141   4.308  15.730  17.332  0.1788  0.2688 -0.0521
18288W        W37142   1.920  15.572  13.300  0.2163 -0.1896  0.1071
18289W        W37143   7.009  14.491   1.897 -0.1040 -0.2320 -0.1902
18290W        W37144   7.759   9.819   0.757  0.0229 -0.0534  0.0369
18291W        W37145  15.653  14.868   4.169 -0.0014 -0.2148 -0.1615
18292W        W37146  10.938  14.297   4.602  0.0310 -0.0924 -0.0470
18293W        W37147  12.320   8.816   3.182  0.0874 -0.2874 -0.3035
18294W        W37148  15.783  15.680  14.539 -0.0479  0.1875  0.0941
18295W        W37149   3.220   1.417   4.993  0.2959  0.0309 -0.2217
18296W        W37150   1.733   1.492  14.873 -0.2287  0.0218  0.0647
18297W        W37151   5.712  12.201  14.203  0.0200 -0.2207  0.2746
18298W        W37152  15.089   8.778  16.516  0.0535 -0.0223  0.0248
18299W        W37153   8.796   6.205   2.719  0.3568 -0.0879 -0.0252
18300W        W37154   7.320  14.974  12.121 -0.0465  0.0718  0.0391
18301W        W37155   7.697   3.652  16.816 -0.0307 -0.0723 -0.0632
18302W        W37156  14.897   0.648   4.618 -0.2363 -0.2096  0.2089
18303W        W37157   4.624   4.065   3.856  0.1790  0.1467 -0.1014
18304W        W37158  11.900   2.715  14.263  0.0320  0.1753  0.3276
18305W        W37159   2.832   0.614  16.507  0.0358  0.1186 -0.2261
18306W        W37160  14.006   7.244  13.149 -0.1040 -0.2219 -0.2084
18307W        W37161   7.646  11.695   1.286 -0.0184  0.0419 -0.0106
18308W        W37162   2.675   2.083  13.974 -0.1628  0.1876 -0.0062
18309W        W37163   7.859   1.304  15.589 -0.0374 -0.4059  0.2986
18310W        W37164   2.587   6.973  14.203 -0.1650 -0.0963 -0.0590
18311W        W37165   1.661  12.200   3.953  0.0935  0.0560  0.1582
18312W        W37166   1.565  10.077   3.807 -0.0412  0.2752  0.1153
18313W        W37167  13.967  16.985  13.837 -0.2630  0.2226  0.3781
18314W        W37168  12.132  13.701   4.955  0.1250  0.0876 -0.2463
18315W        W37169   1.377   6.452   2.819  0.3046 -0.3504  0.0692
18316W        W37170  10.793  16.661  15.033 -0.0759  0.3372  0.1593
18317W        W37171   0.407  13.579  14.432  0.0272 -0.1067 -0.1759
18318W        W37172   0.777  14.684   4.439  0.0754 -0.1841 -0.2110
18319W        W37173  11.996   7.227  12.239  0.2848 -0.2381  0.2520
18320W        W37174  15.119  15.389  16.375  0.1815  0.1121 -0.1816
18321W        W37175   0.485   9.595  15.448  0.0219  0.1435 -0.0326
18322W        W37176   6.446  12.829   0.912 -0.0455  0.1291 -0.1754
18323W        W37177   1.716   7.062  12.555  0.1230 -0.0176  0.0357
18324W        W37178  12.000   0.114  16.196 -0.0024 -0.0560  0.0906
18325W        W37179   3.106  15.358   4.346 -0.0895 -0.0725 -0.0881
18326W        W37180   3.209   4.307   2.173  0.1310  0.2086  0.0934
18327W        W37181   1.161   7.265   0.264 -0.1651 -0.0402  0.3100
18328W        W37182   7.985  15.991  14.916 -0.4947 -0.1382  0.0518
18329W        W37183   7.073   5.403  12.604  0.2751  0.2120 -0.0152
18330W        W37184  14.985   7.681   4.426 -0.1112 -0.1788  0.2919
18331W        W37185  12.987  15.917  16.866  0.0521  0.4558 -0.2456
18332W        W37186   2.603   6.519  13.959  0.0092  0.1537 -0.1172
18333W        W37187   4.416  14.642  16.175 -0.1152  0.0210  0.1390
18334W        W37188   3.381   7.392  13.330 -0.1678  0.2266  0.0613
18335W        W37189   6.086  13.721   4.673 -0.1320 -0.2418 -0.0619
18336W        W37190   0.656   1.598   5.251  0.1690 -0.0876  0.1881
18337W        W37191  14.705  15.676   1.296 -0.3379 -0.0407 -0.2001
18338W        W37192   9.041   9.691   2.061  0.1708  0.1010  0.1190
18339W        W37193  14.397  14.883  15.195 -0.0958 -0.0637 -0.0903
18340W        W37194  13.789  11.456   0.499  0.2607 -0.0629  0.0823
18341W        W37195   1.268  10.172  14.353 -0.3677 -0.0898  0.1618
18342W        W37196   8.085  10.078  13.237 -0.1331  0.2288 -0.0410
18343W        W37197  13.181  11.831   4.809 -0.2576  0.0441 -0.0864
18344W        W37198  12.147   4.092  16.641 -0.0250  0.2241  0.2194
18345W        W37199  10.567   4.397   4.306  0.1565  0.2903  0.0066
18346W        W37200  10.271  14.845   2.151  0.1095  0.0557 -0.0153
18347W        W37201  10.378   7.807  13.369  0.0922  0.1273 -0.2491
18348W        W37202  14.809   0.253   5.341  0.0593  0.1047 -0.0499
18349W        W37203   0.232  15.870   4.996 -0.1381  0.3590 -0.1930
18350W        W37204  11.229   7.504   1.262 -0.1759  0.1415 -0.1519
18351W        W37205   0.797   4.213   3.368 -0.1844  0.0458  0.0079
18352W        W37206   6.288   4.728   0.988  0.2563  0.3563  0.0150
18353W        W37207  10.987   8.258   3.288 -0.0950  0.3976  0.1545
18354W        W37208  14.175   6.434   2.854  0.4004  0.1892 -0.0500
18355W        W37209  16.003   7.634   1.417  0.2634  0.0991  0.0976
18356W        W37210  14.935   0.274   1.939 -0.0593  0.1540 -0.2028
18357W        W37211   5.939  14.514  12.436  0.1387 -0.2873  0.2925
18358W        W37212   2.427   6.491   4.885 -0.1034  0.0640  0.1177
18359W        W37213   2.154   4.350  14.464 -0.4715 -0.1365  0.1061
18360W        W37214   2.584  16.783  14.666 -0.0985  0.2011 -0.0556
18361W        W37215   6.379  17.025  12.474  0.2662  0.0054 -0.0979
18362W        W37216  13.419   8.085   5.172  0.1645 -0.0026 -0.0775
18363W        W37217  15.625  15.221  14.519 -0.1019  0.1326 -0.0072
18364W        W37218  15.922   1.971   5.332  0.0332  0.0569  0.0467
18365W        W37219  15.610  10.592   1.088 -0.0636  0.0569 -0.2221
18366W        W37220  16.477  10.676   1.551 -0.3674 -0.0439 -0.3019
18367W        W37221  12.066  15.485  16.612 -0.1927  0.0161  0.0989
18368W        W37222  16.097   2.654  12.787 -0.0637 -0.3628  0.3255
18369W        W37223   5.311  12.548   4.738 -0.1809  0.0537  0.0757
18370W        W37224  13.846   3.169  16.984  0.2058  0.1246 -0.5375
18371W        W37225   2.642   2.785   3.210 -0.1861 -0.0581 -0.0760
18372W        W37226   7.345  13.003  12.770 -0.0860  0.0701  0.2754
18373W        W37227  15.697   5.627   4.368  0.1766 -0.2044 -0.2829
18374W        W37228   1.202   1.007   0.453  0.1605  0.1675 -0.0087
18375W        W37229  16.302  16.377   4.704  0.1948 -0.0657 -0.0496
18376W        W37230   3.578   9.178  16.921  0.2484 -0.2308 -0.1526
18377W        W37231   3.944   2.211   3.820 -0.3213 -0.0354 -0.0136
18378W        W37232   9.653   6.510  12.612  0.3421  0.0617 -0.0140
18379W        W37233   8.628   8.313   4.068  0.4761  0.1587  0.0505
18380W        W37234  16.433  15.431  12.206 -0.1153  0.1078 -0.0087
18381W        W37235   7.918   7.847   0.146  0.0754  0.1976  0.0042
18382W        W37236   1.050   0.099   0.572  0.1201 -0.2721  0.2149
18383W        W37237  11.016   3.734  17.286 -0.1149 -0.0569  0.1446
18384W        W37238  11.092   1.059  16.632  0.2439  0.0280 -0.0984
18385W        W37239   7.203  12.308   2.317  0.2471 -0.2046  0.0872
18386W        W37240  15.099   8.773  14.397  0.0670 -0.2345  0.2795
18387W        W37241  16.739   4.112   0.398 -0.0442 -0.0260 -0.1522
18388W        W37242  16.738  13.250  14.827 -0.1704 -0.2555 -0.1129
18389W        W37243   9.394  12.579   1.563 -0.2774 -0.0700 -0.1817
18390W        W37244   7.452  10.010  12.002 -0.0694 -0.0581 -0.0010
18391W        W37245  16.002  17.030  13.259 -0.0459  0.0093 -0.0164
18392W        W37246  12.765   1.723  17.316 -0.0865  0.0434  0.1254
18393W        W37247   4.027   0.089   3.866  0.0247 -0.2345 -0.0146
18394W        W37248   7.378   1.633   0.730 -0.0927  0.1472 -0.2792
18395W        W37249   5.558   5.928   2.098 -0.0678  0.1733 -0.0641
18396W        W37250  12.244  13.076   3.260  0.1428 -0.1449  0.2351
18397W        W37251   2.064  12.759   0.229  0.3174 -0.0395 -0.0079
18398W        W37252   5.052   1.753   2.395 -0.1381 -0.1831 -0.0030
18399W        W37253   8.719  16.103  15.510  0.2999  0.0070  0.0690
18400W        W37254  17.023   1.277   4.012 -0.0254 -0.0077  0.1714
18401W        W37255  15.298   6.630  13.289 -0.2126 -0.0272  0.1400
18402W        W37256  13.788   0.414  12.842 -0.0319  0.2503  0.0052
18403W        W37257   3.990   2.505   0.223 -0.1006  0.2778 -0.0531
18404W        W37258   3.379  10.804   1.880 -0.2229 -0.1362 -0.2360
18405W        W37259   6.631   6.619  13.576 -0.0967  0.0502  0.0810
18406W        W37260   6.003  15.938  15.661  0.2681 -0.2832  0.2747
18407W        W37261   6.480  16.690  15.580 -0.0277  0.2018 -0.4580
18408W        W37262   2.103  14.585   2.549 -0.0297  0.1737  0.1734
18409W        W37263   3.956   0.735  17.309 -0.0981 -0.0397 -0.0038
18410W        W37264   6.529  11.041  13.227 -0.2027  0.0561  0.0573
18411W        W37265   4.918   9.491   0.650  0.0423 -0.1023 -0.1543
18412W        W37266  15.047   1.676  15.352  0.0994 -0.3428  0.0406
18413W        W37267   9.634  12.942   5.292 -0.3043 -0.0203 -0.0030
18414W        W37268  13.387   9.362  15.900  0.1995 -0.2042  0.0665
18415W        W37269   3.739  12.918  12.413  0.0282  0.0950  0.0175
18416W        W37270   3.881   0.262  13.717 -0.1089  0.0765 -0.0061
18417W        W37271   3.830   4.951  12.303 -0.3238 -0.0384 -0.2900
18418W        W37272  11.651  11.306  15.345  0.0737  0.0023  0.0515
18419W        W37273   7.747  16.452   4.638  0.1553 -0.1543  0.3513
18420W        W37274  13.228  11.003  13.567  0.1180  0.3945 -0.1221
18421W        W37275  12.550  12.953  12.520 -0.2697  0.1325  0.0669
18422W        W37276  16.864   3.677   1.751  0.1592  0.4661  0.1601
18423W        W37277  11.743  14.801  13.583  0.0622 -0.1051  0.3091
18424W        W37278   1.254   8.817   1.791 -0.0564  0.0442 -0.3160
18425W        W37279  13.120  17.246   1.201  0.0188 -0.3026 -0.0419
18426W        W37280   7.937   9.668   2.862  0.0700 -0.1264  0.0791
18427W        W37281   2.006  10.445  13.394  0.0508 -0.1474  0.2141
18428W        W37282  13.990   2.216   3.230  0.0469 -0.0865 -0.1201
18429W        W37283   2.323   0.910   3.404 -0.0725 -0.1294  0.0931
18430W        W37284  15.569  12.609   5.354  0.0622  0.1845 -0.0143
18431W        W37285  11.596  17.203   0.354  0.1390  0.0794 -0.2219
18432W        W37286  10.358   3.540   0.935 -0.2266  0.1593 -0.0090
18433W        W37287  12.544   0.323  16.203 -0.1961 -0.2637  0.1808
18434W        W37288   2.252  13.627   2.798 -0.3226  0.2041 -0.2376
18435W        W37289   2.937   1.666  15.464  0.2536  0.3318 -0.0035
18436W        W37290   5.629   3.382  14.999  0.0772  0.1346  0.1600
18437W        W37291   9.704   9.013   0.722  0.0347 -0.0971 -0.4906
18438W        W37292   5.377  16.712   1.416  0.0015 -0.0008 -0.2118
18439W        W37293  17.013  12.330  16.463  0.4541  0.0122 -0.1266
18440W        W37294   6.370   0.301  14.393  0.0709 -0.0844 -0.1447
18441W        W37295   2.511  11.885  15.159  0.3465  0.2116 -0.1510
18442W        W37296   9.412   3.495   5.519  0.0375 -0.2109  0.1803
18443W        W37297   7.740  12.912  15.663  0.0188 -0.1384 -0.0912
18444W        W37298  15.496   3.144  13.407 -0.1483 -0.0283  0.4909
18445W        W37299   6.953   9.213  17.212  0.0880 -0.1865  0.1190
18446W        W37300  11.029   7.020   3.570 -0.1077 -0.2957  0.4005
18447W        W37301   2.198   7.578   4.202  0.1020 -0.0957 -0.0665
18448W        W37302  14.867  10.253   1.644  0.3104  0.1284 -0.3882
18449W        W37303   3.309  16.743  13.596  0.0302 -0.2897 -0.1064
18450W        W37304   2.014  16.029   2.224 -0.2420 -0.0704  0.0698
18451W        W37305   7.898   2.604  14.987  0.0552  0.1052  0.0025
18452W        W37306   8.845  14.390  16.726  0.0441 -0.0795 -0.1301
18453W        W37307  10.235   3.990   4.520 -0.0718 -0.3815  0.0230
18454W        W37308  12.681   6.851   1.719  0.1909 -0.0755 -0.3643
18455W        W37309   4.109  14.461  14.074  0.0643  0.2327  0.0329
18456W        W37310  16.012   7.125  12.884 -0.3062  0.1630 -0.1102
18457W        W37311   7.399  12.494   1.780  0.0907 -0.0639  0.1144
18458W        W37312   0.996   0.446  12.662  0.2004 -0.2179 -0.0901
18459W        W37313  15.331   6.467  12.395  0.2140 -0.1487 -0.1498
18460W        W37314  15.759   2.276  16.681 -0.1441 -0.4134 -0.0510
18461W        W37315  10.879  15.617   2.276 -0.0725  0.0930 -0.0149
18462W        W37316   3.773   2.571  13.604 -0.0385  0.0549  0.1764
18463W        W37317   4.493   7.423   1.220  0.0121  0.0246 -0.0705
18464W        W37318  13.912  14.769  15.163  0.1370 -0.1448 -0.1881
18465W        W37319   0.543   4.390  16.329  0.0305  0.1985  0.0884
18466W        W37320   2.502   6.217  13.550 -0.0624 -0.0598 -0.2483
18467W        W37321  16.734   5.616  15.190 -0.1895 -0.0877 -0.0123
18468W        W37322   1.436  10.896   2.713 -0.0008  0.0096  0.2133
18469W        W37323  13.635   9.087   1.820  0.1386  0.0675  0.2608
18470W        W37324   1.574  10.597  13.623  0.0653  0.0102  0.0911
18471W        W37325  13.181   3.911   2.738  0.0990  0.0221  0.0712
18472W        W37326  12.246   7.793  16.042 -0.0257 -0.1287 -0.0282
18473W        W37327   0.873  12.775  14.868  0.2804  0.2117 -0.0970
18474W        W37328  15.732   1.302  16.930  0.2871 -0.2297  0.3545
18475W        W37329   1.019   4.980   6.286 -0.0752  0.0712 -0.1477
18476W        W37330  15.832   7.134   1.941  0.2306 -0.2308 -0.2626
18477W        W37331  14.864   6.484  13.077  0.0869  0.1566  0.0631
18478W        W37332  11.623   5.245   4.702 -0.2666  0.3603  0.0890
18479W        W37333  13.692   5.142   0.519  0.1305 -0.4284 -0.1796
18480W        W37334   1.021   2.839   2.125  0.1820  0.0405  0.4050
18481W        W37335   4.470   7.527   3.090  0.0416 -0.1738 -0.0045
18482W        W37336  13.299   8.321  12.929  0.1877 -0.0588  0.1764
18483W        W37337   8.937   9.629   0.165 -0.0039  0.0806  0.1697
18484W        W37338   6.075   9.893  13.168  0.3748 -0.2250  0.2981
18485W        W37339  13.956  14.930  16.492  0.1447  0.1445  0.0691
18486W        W37340  10.416   0.477  12.631 -0.0210  0.3502 -0.0884
18487W        W37341  16.524  17.115  13.581  0.2122  0.0192 -0.0481
18488W        W37342  14.221  10.092  15.913  0.4533  0.1029 -0.2490
18489W        W37343  10.538   3.856   3.442 -0.2632 -0.1214 -0.1262
18490W        W37344   8.458  10.782  17.414 -0.3116 -0.2106 -0.1274
18491W        W37345   2.178   0.762  14.308  0.3008  0.0686  0.0030
18492W        W37346  15.280   6.371  13.737  0.1629 -0.2480  0.1286
18493W        W37347  14.425   7.745  16.751  0.0881 -0.1566 -0.2469
18494W        W37348   3.820  12.438   4.781  0.1445  0.0484 -0.3076
18495W        W37349  17.227   5.000  16.741 -0.2064  0.0124 -0.0791
18496W        W37350  16.595  12.559   0.256 -0.1734  0.4615 -0.0174
18497W        W37351   9.134   8.100  14.065 -0.2685  0.3032 -0.1075
18498W        W37352   8.846   4.008  13.464 -0.0466 -0.2067  0.1534
18499W        W37353  12.052  13.106  15.282 -0.0389 -0.1319  0.3909
18500W        W37354   3.511   3.451   1.067 -0.0159 -0.2191 -0.1687
18501W        W37355   9.957  14.529   3.122  0.2133  0.0260  0.2225
18502W        W37356   3.881  16.533  16.383  0.0786 -0.1290 -0.1615
18503W        W37357   0.551   6.414   2.736  0.0487 -0.1735  0.1157
18504W        W37358   2.771   2.355   4.957 -0.4086  0.3538  0.0047
18505W        W37359  15.476  14.040   3.276  0.2655  0.2295  0.1016
18506W        W37360  15.873  12.741  13.561 -0.0447 -0.0957 -0.1343
18507W        W37361  14.551  13.861  15.947  0.1751  0.0855 -0.1612
18508W        W37362   2.295   7.974  15.547  0.2249  0.0303  0.0609
18509W        W37363  11.992  15.565  12.668  0.1584  0.0588  0.2216
18510W        W37364  16.813  12.416  15.617  0.2993  0.2896 -0.0867
18511W        W37365   9.271   6.093   2.464 -0.0726  0.0447 -0.1307
18512W        W37366   4.959   0.651   0.744 -0.0854 -0.3043 -0.1023
18513W        W37367   8.446   3.953   1.624  0.2001  0.2523  0.0240
18514W        W37368  10.142   6.996  16.337  0.1439  0.0835 -0.0917
18515W        W37369   7.219   2.579   4.287 -0.1438 -0.0688 -0.0077
18516W        W37370   9.778   7.855  16.460  0.0430  0.3089 -0.0180
18517W        W37371  13.690   5.616   1.767 -0.0115 -0.1637 -0.0505
18518W        W37372  13.717   4.805   1.129  0.2517 -0.2422  0.1059
18519W        W37373  14.992   5.452   4.014  0.0960  0.1083  0.0343
18520W        W37374  11.087   4.486   0.430  0.2114 -0.1482  0.2184
18521W        W37375  12.230  14.063   0.966 -0.0760 -0.1581  0.0725
18522W        W37376   9.368   5.137   3.131 -0.3418  0.5233  0.2573
18523W        W37377  10.161   1.426   1.760  0.0632 -0.1642 -0.1043
18524W        W37378   8.924   6.473   1.471  0.3673  0.3107  0.1713
18525W        W37379   0.521   5.933  16.565  0.0764  0.0724 -0.0513
18526W        W37380   7.427  14.629   0.122 -0.0590  0.1422 -0.1626
18527W        W37381   7.370  10.910  14.656 -0.0670  0.1854 -0.3662
18528W        W37382   3.204   1.404  15.130 -0.0254  0.1487 -0.0028
18529W        W37383  16.600   3.651  14.154  0.0439 -0.0856 -0.2843
18530W        W37384  11.444  16.796  12.799 -0.2223 -0.1745 -0.0265
18531W        W37385  12.136   4.012  12.748 -0.0273 -0.1687 -0.0307
18532W        W37386  13.284   3.684   0.110 -0.1697  0.2384  0.1171
18533W        W37387  15.131   7.461  13.190 -0.0159  0.3168 -0.0051
18534W        W37388   4.683   2.878  12.750  0.1411 -0.3484  0.2718
18535W        W37389   1.616  12.010   0.878 -0.2154  0.2605  0.1175
18536W        W37390   2.598  15.092  12.368 -0.1386  0.3667 -0.0383
18537W        W37391  12.091   3.181   1.342 -0.3536 -0.3327 -0.0676
18538W        W37392  15.409  16.437  16.667  0.2910 -0.0400  0.3388
18539W        W37393  10.886   5.767  13.579  0.2745 -0.2256 -0.1499
18540W        W37394   5.460  13.308   0.251 -0.3046 -0.1344 -0.0074
18541W        W37395   7.247   3.689   1.849  0.0518 -0.1943  0.0192
18542W        W37396  11.468   3.413   4.210  0.0825  0.0132  0.0632
18543W        W37397   7.008  12.328  15.750 -0.1119 -0.4344  0.0619
18544W        W37398  17.263   7.889   1.144  0.0217  0.1158  0.0826
18545W        W37399  12.132   3.344  16.870 -0.0251 -0.3027 -0.2199
18546W        W37400   9.728  10.035  12.527 -0.2668 -0.3762  0.0495
18547W        W37401  10.782   3.032   5.314 -0.1342  0.1921  0.0810
18548W        W37402  17.027   2.973  16.096 -0.0477 -0.3240 -0.0475
18549W        W37403  16.046  16.401   0.921  0.1277  0.2220  0.0552
18550W        W37404  10.436  15.962  12.615 -0.0645 -0.2316  0.1391
18551W        W37405   5.657  13.287  16.017 -0.0578  0.0439  0.2788
18552W        W37406  14.311   1.790  17.064 -0.0968  0.3867  0.0532
18553W        W37407  12.777   9.217  14.551  0.0575  0.3728  0.1799
18554W        W37408   9.026  14.800   4.735 -0.0493 -0.2593  0.1554
18555W        W37409  14.472   3.215  15.841 -0.0300  0.4028  0.0023
18556W        W37410  13.599   2.255   3.618  0.2037  0.0327 -0.0233
18557W        W37411  11.123  14.793   3.902  0.3529 -0.0926  0.0293
18558W        W37412  12.161   9.871  13.550 -0.0578  0.1643  0.1260
18559W        W37413  10.759  13.437  16.770 -0.2156  0.0823 -0.2237
18560W        W37414   4.519   5.858  13.299 -0.3798 -0.0889 -0.2152
18561W        W37415  11.707   3.085  17.415 -0.0890  0.1553 -0.1518
18562W        W37416  16.132   5.078  13.545  0.3280  0.3935 -0.1027
18563W        W37417   5.599  16.060   3.032 -0.2478 -0.2440 -0.2437
18564W        W37418   9.768   4.098  14.955 -0.1101  0.3693 -0.0286
18565W        W37419  13.953   8.619  15.298  0.0984  0.2162 -0.0242
18566W        W37420   3.483  12.728  15.196 -0.0747 -0.2647 -0.1415
18567W        W37421   2.054   8.121  16.925 -0.1142  0.1349  0.0727
18568W        W37422   1.734   1.435   3.063  0.2062  0.1208  0.1139
18569W        W37423  14.608   6.276  13.430  0.0151 -0.0627 -0.0187
18570W        W37424  16.353   0.451  13.613 -0.1946  0.2491 -0.0671
18571W        W37425   1.357   4.036   5.032 -0.0279  0.1032 -0.2256
18572W        W37426  14.467   3.345   3.687 -0.2309  0.1402 -0.0510
18573W        W37427   3.014  13.607  15.367 -0.0005 -0.2216  0.2189
18574W        W37428   0.591   5.428   0.832  0.0020 -0.0649 -0.1840
18575W        W37429   1.795   3.501   2.218  0.2042 -0.1416 -0.0696
18576W        W37430  10.013  10.613   5.267 -0.1349  0.3242 -0.0037
18577W        W37431   1.677   8.056  13.802 -0.0265 -0.0473  0.2399
18578W        W37432   0.372  16.706  15.381 -0.0545 -0.1309  0.1872
18579W        W37433   3.418   3.609  16.411 -0.0712 -0.1908  0.1328
18580W        W37434   8.097  12.067   4.552  0.1011 -0.0343 -0.0728
18581W        W37435   6.650   3.584   2.660  0.2023  0.0085 -0.1051
18582W        W37436  10.873   0.323  11.956 -0.0666 -0.1372 -0.0236
18583W        W37437   1.720  12.371  13.985  0.1875  0.0001 -0.0337
18584W        W37438   0.667  17.363   4.489 -0.0320  0.2362 -0.3075
18585W        W37439   7.717   6.471  14.540  0.1208  0.1417 -0.1249
18586W        W37440  16.561  15.743   1.324 -0.4069  0.1424  0.0018
18587W        W37441  12.451  10.459  17.221 -0.2006 -0.1339 -0.2179
18588W        W37442   6.050  16.212  16.418  0.1541 -0.0486 -0.2867
18589W        W37443  17.195   8.021  13.711  0.0097 -0.1786 -0.0328
18590W        W37444  12.872   4.326   0.114  0.2062  0.1352 -0.1241
18591W        W37445  11.331  15.233  15.140  0.0154 -0.1212  0.2485
18592W        W37446  17.023   4.233   4.887 -0.1576  0.2976 -0.0550
18593W        W37447   4.359  12.798  14.958  0.0721 -0.0235 -0.0900
18594W        W37448   8.899  15.501  13.324 -0.2126 -0.2305  0.2109
18595W        W37449   5.407  11.946  12.880 -0.0264 -0.1628  0.0886
18596W        W37450  12.430   4.150   2.296 -0.0151 -0.3285 -0.1480
18597W        W37451   1.157  15.001   3.045  0.1038  0.1215 -0.1059
18598W        W37452  17.400   4.365  13.437  0.1492  0.1588  0.2514
18599W        W37453   0.529  11.570  13.744  0.1458 -0.1880  0.1904
18600W        W37454  16.542   7.418   2.415  0.2783  0.2726 -0.0063
18601W        W37455   6.990   8.145  12.759  0.0391  0.1846  0.1061
18602W        W37456  15.189   2.170  13.964 -0.2044  0.0072 -0.1125
18603W        W37457   1.938   9.468   0.335 -0.1160  0.0875 -0.0562
18604W        W37458  15.538   8.055  14.376 -0.0182 -0.1078  0.1068
18605W        W37459   9.031  11.535   0.252 -0.2190  0.1754  0.3679
18606W        W37460   6.751   4.794   3.777  0.0939 -0.0030 -0.0668
18607W        W37461   2.495  15.326   4.487 -0.0524  0.1986 -0.1393
18608W        W37462   8.728  10.799   2.995  0.0498  0.1634 -0.0876
18609W        W37463  16.145  14.580   3.748 -0.1651  0.0663  0.0429
18610W        W37464  14.206   8.563   3.725 -0.1482 -0.1580 -0.1822
18611W        W37465   6.336   2.142   4.471  0.4038  0.0382  0.3236
18612W        W37466  17.364   1.345  14.461 -0.1155 -0.0492  0.0920
18613W        W37467   9.232  13.465  17.148  0.1351 -0.0204 -0.5378
18614W        W37468  13.494  10.498  15.415 -0.1237 -0.0828 -0.0005
18615W        W37469   9.255  11.082   0.250 -0.0862 -0.0969  0.2489
18616W        W37470   2.846   3.385   4.683 -0.1900 -0.0190 -0.0192
18617W        W37471  12.969   1.347  14.661 -0.2351 -0.0779  0.0498
18618W        W37472   1.259   6.896  17.103 -0.0198 -0.0992 -0.0276
18619W        W37473   0.886   9.480  11.674 -0.1493 -0.2389 -0.0947
18620W        W37474   7.994  14.424  14.427  0.0998  0.0718  0.4971
18621W        W37475   6.187   1.048  12.415  0.2470 -0.2159 -0.1154
18622W        W37476   1.670   8.242   1.639  0.1062 -0.0409 -0.0312
18623W        W37477   2.060   1.993  17.201  0.2739 -0.0965 -0.1201
18624W        W37478   7.847   2.903  12.180 -0.3720 -0.3276 -0.0312
18625W        W37479  11.782  15.177   3.297  0.1256  0.3138  0.2099
18626W        W37480   5.445  17.241   4.727  0.1183  0.0395 -0.1466
18627W        W37481  13.569   1.384   3.577 -0.4020  0.0943 -0.0805
18628W        W37482  14.579  11.337   5.120 -0.1944 -0.0431  0.0815
18629W        W37483   5.636  16.131   3.596 -0.2101 -0.0709 -0.2870
18630W        W37484   8.650   7.586   2.543 -0.3758  0.2248 -0.1753
18631W        W37485  12.030   7.093   0.305 -0.0248 -0.0126  0.1915
18632W        W37486  15.943  10.834  17.376  0.2312  0.0981  0.1002
18633W        W37487  16.763   6.992  15.680 -0.3408 -0.0208  0.1630
18634W        W37488   1.243  13.385  13.368 -0.1175 -0.1489 -0.1249
18635W        W37489  11.161   2.201   1.471 -0.1405  0.1445  0.2087
18636W        W37490   4.957  16.627   1.055  0.1183  0.2100  0.0280
18637W        W37491  10.597   8.328  12.351 -0.0874  0.1875 -0.1081
18638W        W37492   8.078  16.314  13.478  0.2452  0.1113  0.1151
18639W        W37493   4.375  11.090   4.862 -0.2488  0.1492  0.1015
18640W        W37494  16.915   3.438  13.800  0.0223  0.2535  0.4742
18641W        W37495   7.389   4.065  15.385  0.2214 -0.0855 -0.1274
18642W        W37496   4.049   3.062   2.674  0.1021 -0.0619  0.2078
18643W        W37497   7.471   3.849  16.230  0.0688  0.1094  0.0462
18644W        W37498   8.247  10.630   4.599  0.2024 -0.1013 -0.1841
18645W        W37499   2.007   4.948   1.693  0.2217  0.1976 -0.0051
18646W        W37500  13.650  14.905  16.017 -0.1758 -0.2845 -0.3235
18647W        W37501   3.149  16.136  14.930 -0.0197 -0.2123 -0.2819
18648W        W37502   1.927  16.602  17.161  0.1983  0.1383  0.0166
18649W        W37503   4.175  10.672  16.832 -0.0626 -0.0972  0.0617
18650W        W37504  12.594   3.299  13.369  0.0334  0.1494 -0.1372
18651W        W37505   2.275  13.887  17.339  0.1597 -0.0055 -0.2308
18652W        W37506   0.913  14.575   3.229 -0.2311  0.2343 -0.0624
18653W        W37507  15.467   6.619   4.881  0.0284 -0.2558 -0.0446
18654W        W37508   0.444  13.896   3.902 -0.1089  0.0071 -0.1878
18655W        W37509   5.769  14.016   1.798 -0.1874  0.0820  0.4305
18656W        W37510   1.278  10.249   0.706  0.3452 -0.0609 -0.0413
18657W        W37511   8.147  11.411  12.174  0.1131  0.1722  0.1775
18658W        W37512   4.051  15.697  15.004 -0.2477 -0.1643 -0.0200
18659W        W37513   1.804  15.179  11.855 -0.0423 -0.1834 -0.2128
18660W        W37514  14.198  15.250  12.998  0.0472 -0.0835 -0.0585
18661W        W37515   4.627   4.662  12.259  0.1206 -0.0215 -0.1191
18662W        W37516  17.274  12.292   5.151 -0.2530 -0.0917 -0.3586
18663W        W37517   6.035  13.033   0.357  0.2746 -0.1466  0.1662
18664W        W37518  16.226  11.712  15.545 -0.0996 -0.6791 -0.0328
18665W        W37519   2.887   8.124   5.129  0.1737  0.2395 -0.0826
18666W        W37520   5.078  17.233   5.133 -0.0161  0.2416 -0.2343
18667W        W37521   5.366  12.474   1.331 -0.0377 -0.2082  0.1754
18668W        W37522  15.148   9.420   3.117 -0.0839  0.2563 -0.1358
18669W        W37523   3.281  12.296  15.476 -0.2218  0.1351  0.1512
18670W        W37524  15.509   8.123   5.274 -0.1576  0.3281 -0.0516
18671W        W37525  12.421   2.425  13.038  0.2463 -0.0129 -0.0174
18672W        W37526   5.770  16.612   4.620 -0.0909 -0.3134 -0.0175
18673W        W37527  11.429  17.358  13.671  0.1115  0.0729  0.1125
18674W        W37528  11.433   1.948   3.414  0.1666  0.0149 -0.0001
18675W        W37529  15.653   9.819  13.051  0.2711 -0.1318 -0.1808
18676W        W37530   0.049  14.750  14.315 -0.1283 -0.4128 -0.4231
18677W        W37531   0.322  12.030   2.426  0.0170 -0.0412 -0.1129
18678W        W37532   5.953   2.459   4.679 -0.2406 -0.0026  0.0249
18679W        W37533   7.300   0.984   3.069  0.0502  0.0899  0.4905
18680W        W37534  16.718   7.372  14.896 -0.3107 -0.0851  0.4496
18681W        W37535  16.475   5.950   4.846  0.0900  0.2760  0.0675
18682W        W37536   6.782   3.985  13.842  0.0875  0.0658  0.4037
18683W        W37537  10.977  13.311  14.207  0.2805  0.3111 -0.0791
18684W        W37538   8.152  11.363   1.454 -0.3340  0.0249  0.2070
18685W        W37539   8.632   2.595   3.269 -0.0508 -0.1785  0.0500
18686W        W37540   5.880   4.330   2.807 -0.1284  0.1240  0.2462
18687W        W37541   3.918   1.852  15.686  0.3695  0.2043 -0.1047
18688W        W37542   5.238  15.138   5.243  0.0915 -0.0255 -0.0754
18689W        W37543  13.423   9.693   0.538 -0.1614  0.1823  0.2745
18690W        W37544   6.668   0.885  17.231  0.1920 -0.1480  0.0197
18691W        W37545   0.854  10.874   1.394  0.2976  0.0061 -0.0521
18692W        W37546  12.893  15.815   2.523  0.1093 -0.0151  0.1853
18693W        W37547  13.523   1.805   3.849 -0.2339 -0.0545  0.1357
18694W        W37548   5.857   2.816   1.504  0.0832 -0.0279 -0.1585
18695W        W37549   1.499   8.275  16.925 -0.0653  0.2200  0.0144
18696W        W37550   0.748   8.413   2.888  0.1804  0.0182 -0.1717
18697W        W37551   6.304   9.280   5.526  0.2437  0.0150 -0.3993
18698W        W37552  16.530  11.853  13.458  0.0256 -0.0185 -0.1334
18699W        W37553   9.351  13.309  12.260 -0.1705  0.1529  0.1001
18700W        W37554  10.348   8.314   4.156  0.1292  0.0480 -0.0117
18701W        W37555  11.750   4.346  12.833  0.1522 -0.1589  0.0765
18702W        W37556   5.309   3.164  12.670 -0.3142 -0.1530  0.1211
18703W        W37557  12.902   0.744   4.616 -0.1568 -0.4403  0.0915
18704W        W37558   2.867  11.507  12.810 -0.2462 -0.0292  0.0273
18705W        W37559   0.856   2.871   3.839 -0.0461  0.0806 -0.1195
18706W        W37560  10.887  10.039   2.639 -0.2927  0.1183 -0.0007
18707W        W37561  13.563   9.087   3.661  0.1791 -0.0552 -0.1132
18708W        W37562   7.900   7.197   4.136 -0.1318 -0.2631  0.2482
18709W        W37563   2.906   9.135  12.908  0.0051  0.1119  0.3000
18710W        W37564  15.999   3.066  17.056  0.2212 -0.0919  0.0409
18711W        W37565   8.932   8.236  16.485  0.0030 -0.2644  0.1951
18712W        W37566   1.427  10.945   4.384  0.3225 -0.0128 -0.0845
18713W        W37567   6.051  16.213  12.762  0.0340  0.0732 -0.0289
18714W        W37568  12.041  13.165   0.685  0.0261  0.1833 -0.1306
18715W        W37569   4.855   5.338  13.244 -0.1160  0.0315 -0.0097
18716W        W37570   2.037   2.380  15.227 -0.2887  0.1081 -0.3608
18717W        W37571   8.282   9.216   0.282  0.1141 -0.1698  0.1343
18718W        W37572  10.597  12.435  16.245  0.0918 -0.1548  0.0106
18719W        W37573   2.628   8.054  14.280  0.2882 -0.4185 -0.0294
18720W        W37574   1.703   7.775  15.799 -0.0461 -0.2998  0.3621
18721W        W37575   7.031   7.242  16.625 -0.0560  0.2804 -0.0284
18722W        W37576   8.463  10.719  12.679 -0.0601  0.0755  0.2502
18723W        W37577   7.207  10.262  15.200  0.0510 -0.1658  0.0242
18724W        W37578  16.305   0.812   3.779  0.3964 -0.0329  0.0061
18725W        W37579   7.329  12.591  13.943  0.1930  0.0244 -0.0401
18726W        W37580   5.353   1.553   5.074  0.0214 -0.0239  0.1727
18727W        W37581   1.539   3.151   5.280  0.0490  0.1435  0.0247
18728W        W37582   4.433   1.471   3.928 -0.5195  0.0990  0.1193
18729W        W37583   6.584   2.294  15.832  0.0604  0.1003 -0.1852
18730W        W37584  13.556   4.950   0.087  0.0513  0.2674 -0.0985
18731W        W37585   5.807   3.256   1.743  0.1250 -0.1637 -0.1806
18732W        W37586   9.797   4.077  13.294  0.2017  0.1708 -0.2510
18733W        W37587   3.757  10.530  16.539 -0.1470  0.2344  0.2225
18734W        W37588   4.332  15.515  16.884  0.0004 -0.1549  0.2320
18735W        W37589   5.076  13.800  12.531 -0.2948  0.1672  0.1347
18736W        W37590  12.890  16.814   1.935  0.1615  0.2198  0.0842
18737W        W37591   6.190   7.929  16.443 -0.0564  0.2131  0.0688
18738W        W37592   4.435   8.957  17.159 -0.0699 -0.1212  0.2453
18739W        W37593   3.936  16.020   0.506 -0.2981  0.3961 -0.0907
18740W        W37594   4.263  10.446   4.121 -0.0136 -0.1552  0.0232
18741W        W37595   9.853  13.293  17.211  0.0983 -0.1783 -0.0110
18742W        W37596   0.374   6.526   4.862 -0.2553 -0.4122 -0.0567
18743W        W37597  10.722  11.789   5.431  0.1020 -0.0622 -0.0668
18744W        W37598   3.444   3.572   2.641 -0.2193  0.2246  0.0688
18745W        W37599  15.211   5.815   4.456 -0.3317  0.3404  0.1791
18746W        W37600  13.763  10.198  15.116 -0.0362 -0.0595  0.3191
18747W        W37601   0.934  14.541   0.629 -0.0274  0.0566  0.1333
18748W        W37602  11.406   9.315   0.655  0.0901 -0.0033 -0.0215
18749W        W37603   4.579  11.723  13.350  0.0680  0.2110 -0.4344
18750W        W37604   0.825   3.208  16.354  0.0155  0.1007 -0.4655
18751W        W37605   0.220  15.335   4.036  0.4185 -0.2027 -0.0274
18752W        W37606  14.175  14.677  16.102 -0.1261  0.1562 -0.0447
18753W        W37607  14.110   3.282  12.556 -0.1824 -0.1938 -0.1303
18754W        W37608  16.460  11.640  16.115 -0.1696 -0.1918  0.1339
18755W        W37609   9.821   8.571  13.532  0.1949 -0.0860  0.0005
18756W        W37610   1.541   4.083  15.634  0.3070  0.0641  0.0892
18757W        W37611  14.568  11.786   0.972 -0.0461 -0.1110  0.1630
18758W        W37612   6.863   1.624   2.010  0.0461  0.1392  0.1438
18759W        W37613   6.964   0.583   4.982 -0.2082 -0.2882  0.1240
18760W        W37614   3.184  10.996   3.894 -0.1181 -0.0743 -0.4958
18761W        W37615   7.450   8.001   0.062  0.2655 -0.2832  0.2820
18762W        W37616   6.990  13.803  17.015  0.0510  0.0579 -0.1552
18763W        W37617   6.442   2.302   2.685 -0.1217  0.0111 -0.0986
18764W        W37618  11.830   0.551   4.066 -0.4006 -0.0172  0.3376
18765W        W37619   6.090   8.331  15.946  0.0776 -0.2027  0.0467
18766W        W37620  14.970   4.516  17.391  0.2797  0.4788 -0.0652
18767W        W37621  16.110  12.860  16.223 -0.2325  0.1012 -0.1242
18768W        W37622   3.170  15.823  16.356  0.0277 -0.0542  0.0198
18769W        W37623   8.672  15.073  14.724  0.0095 -0.1080  0.0657
18770W        W37624  14.410   2.691  15.517  0.1055  0.4143 -0.0113
18771W        W37625  12.224   8.537  17.129  0.2583 -0.0772  0.0954
18772W        W37626   4.411   2.216  12.888  0.2971  0.1533 -0.0118
18773W        W37627  13.829  13.752  15.309 -0.3038  0.2182  0.0548
18774W        W37628   0.846   3.119  12.881  0.3815  0.0852  0.0264
18775W        W37629   7.777   1.526   1.014  0.0061 -0.0048 -0.0392
18776W        W37630   3.644   7.271   3.667  0.0288  0.2178  0.0605
18777W        W37631   2.700  10.341  12.461 -0.0304  0.1003 -0.0706
18778W        W37632  10.465   8.786   1.420  0.1482 -0.0695  0.1313
18779W        W37633   0.437   5.228   1.669 -0.0914  0.0042  0.0148
18780W        W37634   9.233   0.967   0.337  0.2183 -0.4359 -0.1911
18781W        W37635   1.458  16.445  14.340 -0.0079 -0.0623 -0.1011
18782W        W37636  16.128   4.265  16.826  0.1417 -0.1180  0.0561
18783W        W37637  12.389   9.822  12.231  0.0814 -0.3391  0.3703
18784W        W37638   5.401  14.819  14.980 -0.1314 -0.0786  0.0802
18785W        W37639  12.219   7.876   4.867 -0.2670  0.0117 -0.1602
18786W        W37640   7.949  16.036  13.874  0.2096 -0.0696  0.0599
18787W        W37641   7.404  10.817  14.091  0.2809  0.1719 -0.4054
18788W        W37642   7.250  14.651   5.284 -0.0016 -0.2212  0.0467
18789W        W37643   9.502   0.474   5.487  0.0361  0.1428  0.0799
18790W        W37644  15.520   7.942   6.230 -0.1426  0.1826 -0.1128
18791W        W37645   1.483  15.648   3.571 -0.0896  0.0939 -0.2963
18792W        W37646  17.311   3.160   1.117  0.0272 -0.1250 -0.0912
18793W        W37647   5.930   8.181  17.310 -0.0232 -0.1635  0.0884
18794W        W37648  14.224  11.130   5.459 -0.0723 -0.1316  0.1411
18795W        W37649  13.248   5.948   4.551  0.0882  0.0074  0.1001
18796W        W37650   2.409   3.625  16.778 -0.3006  0.1836  0.1696
18797W        W37651   8.945  12.327   1.835 -0.1105 -0.1771  0.0241
18798W        W37652  10.207   8.547  16.132  0.0993 -0.1317 -0.0448
18799W        W37653  10.763   5.051   0.348  0.0117  0.0763  0.0095
18800W        W37654  11.823   4.185   1.146 -0.1182 -0.1439 -0.1307
18801W        W37655   3.657   4.423   2.907 -0.0086 -0.1595  0.1079
18802W        W37656   8.424  15.386   3.665 -0.0071  0.1847  0.1886
18803W        W37657   3.008   1.700   3.589  0.2722 -0.2087 -0.0427
18804W        W37658  12.460  13.916  14.264 -0.1318 -0.1211 -0.0157
18805W        W37659  13.309   9.536   4.269  0.2638 -0.1700 -0.2324
18806W        W37660  11.273   8.314   4.692 -0.0429  0.1659  0.0939
18807W        W37661   8.495  16.320   2.395  0.2190  0.2028 -0.0872
18808W        W37662  10.406  12.113  15.398 -0.0035  0.0689  0.0317
18809W        W37663   1.376  10.767   5.292  0.1118  0.2415 -0.1244
18810W        W37664  10.521   8.083   1.540 -0.1957 -0.2132  0.1475
18811W        W37665  11.370   9.031   3.235  0.1586 -0.2491  0.2162
18812W        W37666   9.417  12.000  16.544 -0.2848  0.0482  0.2055
18813W        W37667   9.950  13.691   0.305 -0.0160  0.0302 -0.2986
18814W        W37668   9.113   4.781  14.518  0.0214  0.0385 -0.0267
18815W        W37669  14.925  12.586  13.213 -0.0397  0.0890  0.0146
18816W        W37670   2.079   5.456  16.584 -0.5269  0.2121  0.1119
18817W        W37671   7.019   5.744   3.935 -0.1027  0.2296 -0.1707
18818W        W37672   0.117  15.729   3.683 -0.1389 -0.0391 -0.0786
18819W        W37673   4.393  16.468   4.267  0.0646 -0.0300  0.2010
18820W        W37674   8.475   1.311  15.418 -0.1774  0.1911 -0.1222
18821W        W37675   1.934  14.328  15.349  0.0735  0.1674  0.1054
18822W        W37676   6.597   2.061   1.104 -0.0022  0.1231  0.2037
18823W        W37677   7.083  17.086   3.449  0.1102 -0.1047 -0.1556
18824W        W37678  11.378   0.539   2.767 -0.3496 -0.0014 -0.1653
18825W        W37679   5.502  12.354  12.524  0.0487  0.0121  0.0357
18826W        W37680   9.645  17.246  12.727 -0.0807 -0.3468  0.2894
18827W        W37681   2.028   5.184  16.094 -0.0275 -0.2607  0.0912
18828W        W37682  15.598   1.744  13.958 -0.4929 -0.2040  0.0540
18829W        W37683   1.598   4.064  13.375  0.3148  0.2913  0.0659
18830W        W37684   9.641   2.589  13.525 -0.0123  0.0262 -0.2988
18831W        W37685   0.497   3.866  14.009 -0.0202  0.2038 -0.4018
18832W        W37686   1.265  15.613  14.533 -0.0061  0.2243  0.0994
18833W        W37687   5.388   3.929  12.332  0.0518 -0.1574 -0.0823
18834W        W37688  15.979  11.510   0.548  0.1948  0.0505 -0.2753
18835W        W37689   3.747   3.086  14.246  0.1802  0.2296 -0.0621
18836W        W37690  15.274  15.157   1.471  0.1952  0.1050 -0.0083
18837W        W37691   3.091   8.865   5.409 -0.0432 -0.1336  0.2066
18838W        W37692   0.464  14.168  14.616  0.0121  0.0103 -0.0366
18839W        W37693  12.578  11.980  16.133  0.2819 -0.0580  0.0517
18840W        W37694   6.510  17.181  15.303 -0.0254  0.2558 -0.2072
18841W        W37695   2.285  14.197  12.881  0.1931  0.1056 -0.3282
18842W        W37696  13.846   2.486   0.553  0.0866  0.1604 -0.2197
18843W        W37697   6.132   1.679   4.602  0.3655 -0.2566  0.1530
18844W        W37698  11.974  16.273   1.098 -0.1524  0.0473 -0.2663
18845W        W37699   2.949   2.968  16.614 -0.0338 -0.1155  0.1639
18846W        W37700   8.319  14.147   4.588 -0.1298 -0.1139  0.1951
18847W        W37701  14.527  16.783  14.362  0.3000  0.0460  0.0025
18848W        W37702   8.574   8.936   2.749  0.1397  0.2216  0.1485
18849W        W37703   7.746  10.201  16.339  0.1277 -0.1840  0.0257
18850W        W37704   5.607  10.396   5.063  0.4861  0.1234  0.0235
18851W        W37705   2.138   7.595   1.246  0.1180 -0.1134  0.1495
18852W        W37706  13.906   1.502   3.997 -0.2400  0.0182  0.0804
18853W        W37707   2.937   9.872   1.317  0.1279  0.3505  0.0037
18854W        W37708  13.088  13.551  17.377  0.3344 -0.1105  0.2451
18855W        W37709   5.001   6.672  16.428  0.4042  0.2781 -0.2022
18856W        W37710   3.541   8.420  12.323 -0.0676  0.1163  0.3595
18857W        W37711   8.564   4.877   2.041  0.2338  0.1227  0.1892
18858W        W37712   9.989  10.050  14.741  0.1173 -0.2299  0.0930
18859W        W37713   3.386  11.771  17.463 -0.1404 -0.1010  0.0385
18860W        W37714  16.249   5.476   4.197 -0.1348 -0.0640  0.0607
18861W        W37715   1.855   5.155  17.166 -0.0502  0.2425 -0.1513
18862W        W37716   8.527   9.185  16.736 -0.3474  0.0085 -0.1300
18863W        W37717   1.108  16.643  13.011 -0.0111 -0.1151 -0.2313
18864W        W37718  13.568   0.154  16.017  0.3673 -0.1623  0.0718
18865W        W37719   0.418   2.145   3.648 -0.2951 -0.2999 -0.1223
18866W        W37720  13.201   0.637  13.699 -0.2312  0.1949  0.0571
18867W        W37721  12.353   4.655  15.235  0.1297  0.1455 -0.3371
18868W        W37722   7.416   5.503   3.724 -0.3351  0.1308 -0.0472
18869W        W37723   4.558  14.484  16.640  0.2850  0.1022 -0.2897
18870W        W37724  16.128   3.494  14.832  0.0538 -0.1795  0.0629
18871W        W37725   9.532   1.938  15.507 -0.1749  0.0820 -0.0945
18872W        W37726   9.415   3.859  17.365  0.1708  0.1538  0.1142
18873W        W37727  11.409  16.478   1.579  0.0193 -0.3377  0.0919
18874W        W37728  10.723   4.683  16.445  0.0041 -0.0897 -0.0013
18875W        W37729   6.109   1.198   4.375 -0.1510 -0.1911  0.0356
18876W        W37730  16.974   1.228  16.766 -0.2214 -0.0459  0.4612
18877W        W37731  15.891  12.027   4.493 -0.0313 -0.0744 -0.2470
18878W        W37732   0.483  10.158  16.292  0.2204  0.0711  0.1761
18879W        W37733  15.459  15.150   2.642 -0.1507  0.0723 -0.1170
18880W        W37734  14.734  13.950   2.647 -0.0195  0.1910  0.2029
18881W        W37735   0.963   7.610  16.368  0.0320  0.1644 -0.2133
18882W        W37736   4.166   3.556  14.338 -0.2523 -0.1359 -0.1256
18883W        W37737   8.438   6.321   2.354  0.1565 -0.0052 -0.2744
18884W        W37738  10.269   1.139   5.486 -0.0524  0.1076 -0.1559
18885W        W37739   9.094  15.382   0.603  0.1494  0.0592  0.3138
18886W        W37740   3.093  11.839   0.388 -0.1635  0.0146 -0.3123
18887W        W37741  15.611   9.406  17.471  0.1231  0.1005  0.0546
18888W        W37742  11.425  13.711  14.196 -0.2099  0.0732  0.1160
18889W        W37743   7.443   1.447   4.814  0.0176 -0.2376  0.0364
18890W        W37744  16.538   0.206   5.355 -0.0477  0.2310 -0.1158
18891W        W37745   3.856   9.366   2.269  0.0951 -0.1436 -0.1708
18892W        W37746  11.523   4.847  13.208  0.0402  0.3651  0.1872
18893W        W37747  11.942  16.360   1.584 -0.0280  0.2605 -0.2430
18894W        W37748  15.970  16.475   5.498  0.1639  0.0399 -0.1515
18895W        W37749   7.104   4.394   4.590  0.0492  0.1360  0.1884
18896W        W37750  12.304   4.544  16.785  0.1405  0.3226 -0.0854
18897W        W37751  17.180   9.270   1.300  0.0371 -0.0459  0.0100
18898W        W37752   9.024   2.457  12.755  0.0273 -0.3549 -0.0313
18899W        W37753   1.223   1.650   3.309 -0.2263  0.2795  0.3624
18900W        W37754   4.321   5.198   4.946  0.0015  0.0984  0.2519
18901W        W37755  14.517   5.263  15.324  0.0920  0.1610 -0.0130
18902W        W37756  11.703   7.811  16.113 -0.2495 -0.0431  0.0185
18903W        W37757  13.605   1.293  14.986  0.0393 -0.0107 -0.4840
18904W        W37758   3.830   7.336  13.634 -0.4835  0.2902  0.1340
18905W        W37759   1.638   4.633  15.112  0.3402 -0.0573  0.2419
18906W        W37760  16.742   9.448   1.431 -0.2120 -0.0074  0.1416
18907W        W37761   0.308  16.584  12.741  0.2310  0.0514  0.2062
18908W        W37762   7.983  14.320  17.029 -0.1534  0.2023 -0.0934
18909W        W37763  13.517  17.054  13.104 -0.2876  0.2399  0.3198
18910W        W37764   5.204  16.490  16.756  0.2978  0.0386 -0.1182
18911W        W37765   6.054  10.436  13.919  0.0112  0.0949  0.1986
18912W        W37766  15.507   9.626  12.603  0.2150 -0.0068 -0.0926
18913W        W37767  16.101   5.675   4.661 -0.0980  0.1401  0.3068
18914W        W37768   2.281  11.851  14.655 -0.1840  0.2100  0.1158
18915W        W37769   6.271   1.411   1.476  0.1465  0.0647  0.0156
18916W        W37770  15.558  11.203  17.147  0.0634 -0.1424 -0.0118
18917W        W37771   3.930  10.091   3.529  0.1228  0.0712 -0.2600
18918W        W37772   4.459   6.582  14.648  0.1050  0.0891  0.0773
18919W        W37773   9.951   9.471   0.854 -0.2277 -0.0725  0.1204
18920W        W37774   3.965   7.303  15.617  0.1270 -0.0869  0.3632
18921W        W37775  16.676  10.864   2.966 -0.1402 -0.3333  0.4121
18922W        W37776   9.240   0.011   3.107  0.0950 -0.1595  0.1006
18923W        W37777   9.030  16.598  13.474  0.1263  0.0402  0.0407
18924W        W37778   3.957   9.320  11.837  0.1568  0.4272 -0.1354
18925W        W37779  15.993  13.725   0.056  0.3083  0.2817  0.0231
18926W        W37780  12.389   3.126   0.349 -0.3049  0.3407  0.3050
18927W        W37781  16.740   0.612   1.056 -0.0093  0.2150  0.3585
18928W        W37782   2.068  10.183  14.238 -0.0732  0.0362  0.0912
18929W        W37783   8.332   8.479   5.425  0.0768 -0.0792 -0.0597
18930W        W37784  16.208  16.332   0.202 -0.1029 -0.0739  0.0347
18931W        W37785   2.878   9.039  16.279 -0.3219  0.1152 -0.0294
18932W        W37786   5.633   2.809   4.852  0.1118  0.2624 -0.0505
18933W        W37787  14.375   5.437   2.772 -0.0299 -0.0647 -0.0830
18934W        W37788  15.856  13.783   3.486  0.3155 -0.0901  0.1256
18935W        W37789  13.368   0.703   1.094 -0.1694  0.0989 -0.0409
18936W        W37790  11.315   4.162   3.980  0.2154  0.0573 -0.1421
18937W        W37791  11.220   2.389   4.583 -0.2461  0.1643 -0.2778
18938W        W37792   3.760   9.366   3.934 -0.0232  0.2330  0.2151
18939W        W37793  16.868   9.912   3.172 -0.0099  0.1885  0.1167
18940W        W37794   2.562   1.748  16.259 -0.0865 -0.0264 -0.0085
18941W        W37795  15.307  15.782  13.768 -0.0234 -0.1322 -0.2115
18942W        W37796   7.853   9.163   5.164  0.0604  0.0504 -0.3062
18943W        W37797  12.984  16.936  13.953 -0.0331  0.0356  0.0045
18944W        W37798  11.545   3.711   2.765 -0.5080  0.1924 -0.0230
18945W        W37799   4.236  14.807   4.549 -0.0091  0.0905  0.1345
18946W        W37800   6.428   8.242  14.663  0.1449  0.1859 -0.2601
18947W        W37801  12.231  14.343  14.412  0.0992 -0.0834 -0.1222
18948W        W37802   6.812  10.517  17.443  0.2066  0.0732  0.1529
18949W        W37803   1.505   3.689   1.851 -0.0122  0.0473  0.0283
18950W        W37804   9.708  12.132  14.873  0.1928 -0.2921  0.2584
18951W        W37805  10.896   1.076   3.297 -0.1552 -0.0838  0.1749
18952W        W37806  14.249  12.346  15.255 -0.1607  0.1507 -0.0204
18953W        W37807  14.293   1.561   5.534  0.0901  0.2459  0.2004
18954W        W37808  16.460   3.295  14.472  0.2365  0.0894  0.1204
18955W        W37809  11.106   2.408  15.808 -0.1318  0.0201  0.0194
18956W        W37810  15.418   9.802   3.309 -0.0832 -0.2001 -0.1950
18957W        W37811   9.363  13.948   2.431 -0.0487 -0.1617 -0.2536
18958W        W37812  15.100   4.030   2.161 -0.2303  0.0203  0.2315
18959W        W37813   1.675   3.037   0.488  0.1397 -0.0030 -0.2371
18960W        W37814  11.817   2.466   3.832 -0.0372  0.2363  0.3026
18961W        W37815   3.019   2.629   0.630 -0.0537 -0.1039  0.0558
18962W        W37816   8.720   9.508   1.676 -0.3058 -0.0576  0.1695
18963W        W37817   4.329  14.016  15.488 -0.0384 -0.0552  0.1029
18964W        W37818   2.575  15.552  15.070 -0.1175  0.0407 -0.0237
18965W        W37819   3.529  12.828   4.168 -0.2320 -0.3347  0.0609
18966W        W37820  13.267  15.482  11.979 -0.1248  0.0531  0.2155
18967W        W37821  12.460  16.135   0.161  0.0318  0.0660  0.0745
18968W        W37822  13.297   7.104  15.479 -0.0807 -0.0833 -0.1039
18969W        W37823   5.951   4.797   6.006 -0.0562  0.0834 -0.1438
18970W        W37824  15.190  12.840  15.714 -0.0585  0.2295 -0.0424
18971W        W37825   1.835   4.154  14.759 -0.2206 -0.2615 -0.1146
18972W        W37826   2.965  13.030  15.074  0.1354  0.1512 -0.2104
18973W        W37827  16.269  11.381   6.518 -0.0347  0.2920 -0.1565
18974W        W37828   6.306   5.717  15.363  0.1191 -0.2434  0.0175
18975W        W37829   0.748  14.161   4.157  0.2565 -0.0400  0.4149
18976W        W37830   8.654   6.697   1.806  0.1525 -0.1138 -0.2409
18977W        W37831   3.116   0.136   0.773 -0.1713  0.1143  0.0294
18978W        W37832  13.358  12.498  15.689  0.0630  0.1028 -0.1666
18979W        W37833   3.890   9.119  15.970  0.1362 -0.0328  0.1256
18980W        W37834   9.592  16.641   3.628  0.3809 -0.3300  0.2445
18981W        W37835  10.948   3.253  16.213 -0.2325  0.1716  0.0455
18982W        W37836   3.632  12.078   0.706  0.0117 -0.1714  0.1275
18983W        W37837  11.050  16.013  17.296  0.0874 -0.0719 -0.3350
18984W        W37838   5.317  16.384  15.115  0.0087 -0.3260 -0.0897
18985W        W37839   8.494   7.475  13.061 -0.1795 -0.0306 -0.0086
18986W        W37840  15.154   7.559  16.737  0.2446 -0.0007 -0.1640
18987W        W37841  15.318  16.222  13.455  0.1763 -0.2646 -0.0101
18988W        W37842  16.185   8.499  17.208 -0.1661  0.2017 -0.0073
18989W        W37843   9.586   0.053   1.721  0.0705  0.3152  0.0540
18990W        W37844   3.645  15.000   3.813 -0.0594  0.0352 -0.0207
18991W        W37845  10.556  11.658   0.164  0.0979 -0.1690  0.0014
18992W        W37846   4.244   5.122   1.001 -0.1395 -0.2969  0.2499
18993W        W37847  15.376   7.749   0.478 -0.0788  0.3110  0.0604
18994W        W37848   5.720   4.747   1.926  0.0219  0.3405  0.0464
18995W        W37849   5.174  10.507  16.365 -0.0729 -0.0636 -0.0881
18996W        W37850  16.474   2.431   0.823  0.1638  0.0329  0.1880
18997W        W37851  15.891  14.101   0.457  0.0013 -0.2414  0.0914
18998W        W37852  13.628   3.399   5.003  0.1534 -0.2374 -0.2467
18999W        W37853   1.390  15.144  15.393  0.0806 -0.1410 -0.0054
19000W        W37854   6.861   1.944   2.407 -0.1964 -0.3283  0.3349
19001W        W37855  17.005   2.397  14.748  0.1157 -0.0513  0.0696
19002W        W37856   3.794   3.935   2.727  0.5614  0.0955 -0.0521
19003W        W37857  13.407   4.618  13.332 -0.0100 -0.4733 -0.0303
19004W        W37858  12.821  10.249  16.819 -0.0288 -0.0791 -0.0116
19005W        W37859   3.639  11.328  17.386 -0.0153  0.0860  0.0617
19006W        W37860   3.269   4.227  17.210  0.1987  0.1237 -0.2040
19007W        W37861  13.214   5.761  13.557 -0.2245  0.3099 -0.2640
19008W        W37862   7.841   0.710  12.217  0.2162 -0.1214  0.3278
19009W        W37863  11.498  13.336  16.385 -0.2591  0.0108  0.0925
19010W        W37864  11.708   2.465   4.356 -0.0165 -0.1080 -0.1144
19011W        W37865   7.932  13.403   1.582  0.3244 -0.2233 -0.0596
19012W        W37866   2.430  13.982   1.402 -0.0202  0.1095  0.4039
19013W        W37867   0.001   7.474   1.398 -0.1208 -0.0114  0.1217
19014W        W37868   8.725  14.469  14.100  0.1099 -0.0304  0.0745
19015W        W37869  12.081   0.733   0.863  0.1717 -0.1103  0.2626
19016W        W37870  15.144  10.651   5.817 -0.2256  0.3375 -0.3750
19017W        W37871  13.056   1.560   2.853 -0.2221  0.2580 -0.0740
19018W        W37872  15.512  16.034  16.971  0.0758  0.1074  0.0859
19019W        W37873   2.449   0.540   4.193  0.1112  0.3333 -0.1673
19020W        W37874   2.594   6.937  15.236  0.3480  0.0705 -0.1807
19021W        W37875   4.377  10.051   2.407 -0.0840  0.0661 -0.1317
19022W        W37876   0.904   1.659  12.198 -0.0477  0.2499 -0.1756
19023W        W37877   8.305  15.824  15.341  0.1365 -0.1841 -0.0021
19024W        W37878   1.895  12.954  15.612  0.1242 -0.0076 -0.0786
19025W        W37879  11.600   6.720  14.226  0.2479  0.2697 -0.1677
19026W        W37880   7.659   1.323   3.552  0.4046  0.1231 -0.3815
19027W        W37881   0.536   9.396   3.447 -0.2300 -0.0629  0.0360
19028W        W37882  13.493  17.067  12.584 -0.1019 -0.1291 -0.1339
19029W        W37883  11.143  15.085  16.882  0.0016 -0.1251 -0.3591
19030W        W37884  13.686   8.367  17.243  0.2411  0.4761 -0.1476
19031W        W37885   7.437   1.054   0.771  0.0836 -0.1650  0.0948
19032W        W37886   8.501   0.486  14.771 -0.0460  0.0899  0.2201
19033W        W37887   9.084  13.659  12.927  0.1776 -0.0401 -0.0638
19034W        W37888   3.024   5.836  15.223  0.1155 -0.1908 -0.0148
19035W        W37889   8.792   1.012   3.102  0.0724 -0.1989  0.1860
19036W        W37890  12.595  11.768   3.184 -0.1301  0.0129  0.0678
19037W        W37891  16.232   4.497  17.273 -0.1167  0.3356  0.2371
19038W        W37892   2.986   9.102  17.150  0.1478 -0.2213 -0.1880
19039W        W37893   3.895   7.496   4.170  0.2110  0.0598  0.1359
19040W        W37894  10.196  16.909  13.303 -0.2279 -0.0429  0.1836
19041W        W37895  15.428   6.283   0.211 -0.0267 -0.2770  0.0799
19042W        W37896   4.038  14.362  17.235  0.0024  0.1079 -0.0589
19043W        W37897  12.249   6.877  13.580 -0.0296  0.6382  0.1459
19044W        W37898   3.855  16.958   0.348  0.2082 -0.2890  0.3701
19045W        W37899  17.247  11.815   4.998  0.3606 -0.0504  0.1160
19046W        W37900   7.194   6.227  12.940 -0.2199 -0.0732 -0.0959
19047W        W37901   7.308   5.408   0.319 -0.0935 -0.2463  0.1896
19048W        W37902   6.881  14.756  16.899 -0.0039 -0.0000  0.1431
19049W        W37903  17.375  10.159  16.109  0.2568 -0.2163 -0.3230
19050W        W37904  11.621   0.401   3.226 -0.1311  0.1098  0.1978
19051W        W37905   1.501  12.010  16.973 -0.0767 -0.0116  0.0047
19052W        W37906   5.168   6.976  14.114 -0.0859 -0.1146 -0.1295
19053W        W37907   9.108  16.186   5.192  0.0897  0.1400 -0.0653
19054W        W37908   1.107   0.579   0.907  0.3040  0.2093  0.1334
19055W        W37909  12.312   0.875   2.750  0.2173 -0.0825  0.1755
19056W        W37910  13.034   1.891  12.735  0.2403 -0.3583 -0.1250
19057W        W37911  17.251   7.360  15.074  0.1716 -0.0233 -0.1762
19058W        W37912   0.444   1.368   2.319  0.0264 -0.1261  0.2308
19059W        W37913   9.636  11.752   2.873  0.2660  0.0422 -0.0111
19060W        W37914   0.149  10.063   0.489  0.0266  0.1734  0.0281
19061W        W37915   6.746   2.989  15.354 -0.1229 -0.1047  0.0647
19062W        W37916  11.106   7.201   0.182  0.0879 -0.1152 -0.0944
19063W        W37917   7.384   8.134  12.344 -0.0226 -0.2283 -0.1084
19064W        W37918   7.640   3.518  13.463 -0.0465  0.0974 -0.0265
19065W        W37919   6.376   6.348   4.331 -0.0407 -0.2732  0.1995
19066W        W37920   4.791   1.269  14.210  0.5295 -0.0586 -0.1531
19067W        W37921   2.925  12.627  15.504  0.1472  0.0488 -0.1008
19068W        W37922   5.313  12.587   3.286 -0.1292 -0.0949  0.0152
19069W        W37923  17.318  11.081  14.078  0.0184  0.2470  0.0837
19070W        W37924   7.854  13.379  15.530 -0.0920 -0.0786  0.2572
19071W        W37925   3.237  11.310   2.851 -0.0524  0.1499  0.1861
19072W        W37926  14.492  16.151   1.192 -0.0118 -0.0138 -0.0813
19073W        W37927   4.464  12.397  17.324  0.3027 -0.0467 -0.1239
19074W        W37928   5.909   6.566   4.280 -0.2676 -0.2291  0.1358
19075W        W37929  16.305  14.997   2.322 -0.0322 -0.1159 -0.0802
19076W        W37930   1.638   1.060   1.276  0.2026 -0.1403 -0.3660
19077W        W37931  13.640   6.303   0.627  0.2060 -0.3822  0.3448
19078W        W37932   5.210  12.275   5.139  0.0716  0.2609  0.0116
19079W        W37933  17.375  13.756  13.039 -0.0862  0.2993  0.0161
19080W        W37934   5.728   7.709   2.494  0.0971 -0.0459 -0.1069
19081W        W37935   2.063  16.803   3.736  0.1148 -0.1846  0.0256
19082W        W37936   0.469   8.387   3.339 -0.0889 -0.1783  0.2840
19083W        W37937  13.894  16.471   3.777 -0.1019  0.0510  0.1563
19084W        W37938   7.075  16.156  17.211  0.2509  0.0873 -0.2533
19085W        W37939   0.627   4.202   4.384 -0.2175  0.0034 -0.0755
19086W        W37940   4.752   8.458  14.102 -0.0653 -0.0286  0.0008
19087W        W37941   9.279  14.104  12.769  0.2107 -0.3131 -0.1996
19088W        W37942  15.932   6.616  14.912  0.2994 -0.0389 -0.2834
19089W        W37943  11.481   1.640   1.496  0.0255  0.0081  0.1906
19090W        W37944  15.491   4.246  14.745  0.0322 -0.1583  0.0014
19091W        W37945   0.360  15.758   2.329 -0.0278 -0.1176  0.0318
19092W        W37946  12.453   6.802  14.174  0.0602  0.0352  0.1662
19093W        W37947   1.487  15.807   4.757 -0.0591 -0.1450 -0.0005
19094W        W37948   4.852   2.390  12.619  0.2258  0.2638 -0.1834
19095W        W37949   3.718  14.782   0.209  0.1753  0.3301 -0.1054
19096W        W37950  16.358   2.889   3.354  0.1970 -0.1428  0.0028
19097W        W37951   0.510  12.558  16.644  0.0681 -0.0580  0.0573
19098W        W37952  17.057  12.922  15.122  0.1706 -0.0041 -0.3522
19099W        W37953   8.145  14.920   3.621 -0.0206  0.1762 -0.1712
19100W        W37954  13.849  13.843   0.237 -0.1444  0.3371 -0.1547
19101W        W37955  15.046   3.008  15.411  0.1639  0.1830  0.2331
19102W        W37956   7.969   5.246   4.717  0.0645  0.1790  0.3190
19103W        W37957  16.186  13.652   4.265  0.0405 -0.0816  0.1017
19104W        W37958  17.280   9.166   4.099  0.1017 -0.0165 -0.0534
19105W        W37959   4.814  10.649   0.499 -0.1569 -0.0323  0.0402
19106W        W37960   3.666   0.031   4.980  0.1871 -0.2506  0.0118
19107W        W37961   3.820   2.020   2.832 -0.1841  0.2223  0.2313
19108W        W37962   5.825   6.888   5.285 -0.2369  0.0298  0.0638
19109W        W37963   1.459   0.453  12.329 -0.1186 -0.1842 -0.3379
19110W        W37964  10.939   5.831   0.509  0.1757  0.1907  0.1100
19111W        W37965   9.749  12.719   3.100 -0.1413  0.2248  0.0340
19112W        W37966   8.994  11.821   1.916  0.1897  0.1212  0.0626
19113W        W37967   2.933   1.037   5.292 -0.3091 -0.1179 -0.0942
19114W        W37968  16.265   9.172   0.596 -0.2810 -0.2450 -0.0604
19115W        W37969   7.347   5.468  14.763 -0.2873 -0.0225  0.0736
19116W        W37970   1.707   8.153   0.561  0.2046 -0.0715 -0.2781
19117W        W37971  12.318  14.937   0.399  0.0625  0.1123 -0.2346
19118W        W37972  12.201   1.409  13.504  0.1980 -0.0261  0.0582
19119W        W37973  16.948   6.154   1.949  0.3273  0.1152  0.0370
19120W        W37974  11.481  17.030   1.553 -0.0062 -0.0659 -0.1595
19121W        W37975   1.548  10.622   3.518  0.0931  0.4555  0.1609
19122W        W37976   1.719   7.447   2.805  0.0839  0.0617  0.1392
19123W        W37977  10.997   3.934   1.304 -0.0634  0.2521 -0.2257
19124W        W37978  14.558   6.224  12.548 -0.1835  0.0410 -0.0152
19125W        W37979   7.104   9.284   1.621  0.1091  0.1928 -0.1935
19126W        W37980  13.846  12.222  16.431  0.1625  0.2267 -0.1151
19127W        W37981  12.547   3.246  14.817  0.0685  0.0683  0.1569
19128W        W37982  13.616  17.253  13.627  0.0131 -0.0668  0.0782
19129W        W37983  13.427  12.623   2.084  0.0941 -0.0237 -0.0551
19130W        W37984   2.017   4.737  14.777  0.3509  0.0178  0.2112
19131W        W37985  13.034  15.062   4.473  0.2722  0.0388 -0.0980
19132W        W37986  15.904   4.247   1.506  0.0821  0.2476 -0.2942
19133W        W37987  10.039   5.002  13.094  0.3302 -0.0411  0.1677
19134W        W37988   8.053   9.116   0.702  0.2656 -0.3047  0.1372
19135W        W37989  11.679   1.094   4.937 -0.2491 -0.4372 -0.0344
19136W        W37990  13.232  17.013   0.091 -0.0523  0.0065 -0.1084
19137W        W37991  10.211  14.849   0.064 -0.0549  0.0167  0.1910
19138W        W37992   9.753   0.174   3.087  0.4050  0.0896 -0.0126
19139W        W37993   3.426   9.867  16.105  0.2099 -0.1854  0.0301
19140W        W37994  12.775   2.824  13.094  0.1337  0.1669 -0.0982
19141W        W37995  13.648  15.239   3.812  0.1488 -0.2015 -0.1476
19142W        W37996   4.010   4.038   1.736  0.1943  0.0376 -0.2545
19143W        W37997   4.747  11.141   4.020  0.1150 -0.0563 -0.3666
19144W        W37998   4.889   4.548  12.732 -0.1081  0.1077 -0.2623
19145W        W37999   2.180   8.921   1.043  0.1709 -0.1183 -0.2152
19146W        W38000  10.903   8.118  15.713  0.0602  0.1553 -0.1091
19147W        W38001   9.796  10.750  12.034  0.2164 -0.0605 -0.1072
19148W        W38002   4.283   0.188   0.393  0.3056 -0.0212 -0.2282
19149W        W38003  14.064   6.849   4.252 -0.0115  0.0371 -0.1898
19150W        W38004  14.780  13.107   1.643 -0.0141 -0.0153 -0.1012
19151W        W38005  10.633  12.000   5.000 -0.1866  0.2357 -0.2251
19152W        W38006  14.343  14.797  13.891  0.2126 -0.0417 -0.3122
19153W        W38007   0.560  11.877  15.172  0.1849  0.2430 -0.2862
19154W        W38008  13.345   2.085  13.640 -0.1890 -0.2374  0.3735
19155W        W38009   0.514  12.319  14.410  0.4475 -0.3209 -0.1838
19156W        W38010  11.192  12.130   0.923  0.1088 -0.1922 -0.2712
19157W        W38011  12.344  14.198   3.802  0.2017  0.1701 -0.0965
19158W        W38012   0.555  16.749  16.410  0.1093 -0.0266 -0.2551
19159W        W38013   4.619  11.651   4.772  0.0352 -0.2857  0.0365
19160W        W38014   7.425  15.314   3.455 -0.1716  0.2996 -0.1161
19161W        W38015   3.689  17.052  17.302 -0.0228 -0.3223 -0.1577
19162W        W38016   5.704   3.997  17.047 -0.0438  0.1452 -0.2069
19163W        W38017  11.449   1.514   5.157  0.2908 -0.0506  0.0449
19164W        W38018   8.882  14.832  16.992  0.2276  0.2332 -0.2683
19165W        W38019  10.589  11.825  12.692 -0.0822  0.1307 -0.1315
19166W        W38020  10.356   0.695  14.020  0.1959 -0.1063  0.2366
19167W        W38021   3.869   6.463  13.365  0.1643 -0.0337  0.2656
19168W        W38022   3.334   5.770  14.471  0.0987 -0.1024 -0.0203
19169W        W38023  11.502   9.767  14.110 -0.0334  0.1105  0.0417
19170W        W38024  12.428   5.784  14.391 -0.1198 -0.1787 -0.0271
19171W        W38025  14.029   9.878  15.409  0.4861 -0.0356 -0.0805
19172W        W38026   8.839   1.458  12.775  0.2004  0.0149  0.0867
19173W        W38027  12.242  10.794   0.046  0.2258 -0.2299 -0.0060
19174W        W38028   2.904   3.705   5.530  0.0408 -0.1265  0.0171
19175W        W38029  13.984   5.795  15.015 -0.2272 -0.1655 -0.1206
19176W        W38030   0.483  10.992   3.985 -0.1281 -0.0983 -0.1745
19177W        W38031  15.295   9.306  16.749 -0.0468  0.0099  0.2772
19178W        W38032  16.640   8.139   3.821  0.0712  0.0221  0.1646
19179W        W38033   0.862   1.592   1.075  0.0258  0.2013 -0.1458
19180W        W38034   7.390   0.804  15.176 -0.0625 -0.2348 -0.0136
19181W        W38035  14.396  10.138   1.827 -0.0527  0.1212  0.0425
19182W        W38036  16.894  15.100  16.074 -0.0978  0.5010  0.2631
19183W        W38037  13.297  15.540  12.870  0.0217  0.0048  0.0909
19184W        W38038   1.012  10.992   1.823  0.0667 -0.1802 -0.0868
19185W        W38039  15.407  13.950   4.557 -0.2372 -0.3158  0.0657
19186W        W38040   4.290   9.351  16.308 -0.2550 -0.0876  0.0697
19187W        W38041   1.933   0.902  13.055  0.1381 -0.1098  0.2294
19188W        W38042  14.005   0.643   0.289  0.1752  0.2702 -0.0727
19189W        W38043   7.089   4.985   0.429  0.2070  0.1949 -0.1740
19190W        W38044   3.722   1.680   4.270 -0.0208 -0.1147  0.1922
19191W        W38045   9.681  16.489  17.277 -0.0344  0.3357 -0.0209
19192W        W38046  12.556   1.544  13.959 -0.0766 -0.0444  0.2953
19193W        W38047   1.292   2.250  14.123  0.2138  0.1315 -0.1659
19194W        W38048   8.670   1.593  16.725  0.0927 -0.1386 -0.2488
19195W        W38049   3.771  13.793  13.357 -0.2088  0.0370 -0.3350
19196W        W38050  11.349   3.118   2.573 -0.1793 -0.0699 -0.2136
19197W        W38051   5.911  14.428   4.007  0.0814  0.2363  0.1212
19198W        W38052   0.158  14.512   1.098 -0.1152  0.0640 -0.2538
19199W        W38053   0.097  13.537   3.848 -0.0330  0.1172 -0.1238
19200W        W38054  16.849   8.424  12.872 -0.0732  0.2986  0.1080
19201W        W38055   2.653  14.888   1.886 -0.1703 -0.2018 -0.1832
19202W        W38056  13.333  15.653  16.554 -0.1270 -0.2743 -0.0104
19203W        W38057   7.164  12.786   2.080  0.0008  0.1810 -0.1284
19204W        W38058  12.605   2.190  12.595 -0.1631 -0.1257  0.1862
19205W        W38059  16.854   6.603  17.157 -0.0049  0.2133 -0.2168
19206W        W38060   5.171  10.471  15.877  0.1106  0.0522 -0.1210
19207W        W38061   0.192   7.813  13.460 -0.2550  0.1315  0.1395
19208W        W38062  12.317   2.035  14.700  0.0519  0.2869  0.1331
19209W        W38063   3.507  14.278   5.007  0.2131  0.2986 -0.0213
19210W        W38064  17.321  12.082  16.135  0.2082  0.3344  0.4928
19211W        W38065  12.346  14.561   1.793  0.2727  0.1846  0.1564
19212W        W38066   7.348   8.008   4.114  0.1531  0.0937 -0.0176
19213W        W38067   8.338  16.157   3.900  0.0540  0.0153 -0.2875
19214W        W38068  11.731  13.089   2.826 -0.0955 -0.1946 -0.0727
19215W        W38069   6.138   7.265   4.503  0.0389  0.0034 -0.3559
19216W        W38070   4.851  10.666  15.571 -0.2643 -0.1751  0.0312
19217W        W38071   7.250   9.567   4.479  0.2428  0.0325  0.0912
19218W        W38072   3.360   4.890  15.437  0.0860  0.3402 -0.0680
19219W        W38073   9.457   4.280  16.094  0.1235 -0.0636  0.0048
19220W        W38074  14.869   9.559  12.850 -0.2523  0.1154  0.1957
19221W        W38075   4.383   8.058   3.537  0.0453 -0.3042  0.1400
19222W        W38076   6.915   2.396   3.250 -0.1350  0.3110 -0.1576
19223W        W38077   6.617   0.035  16.701 -0.1459 -0.1757  0.1573
19224W        W38078  16.770   3.819   4.889 -0.2893  0.1363  0.2550
19225W        W38079   8.242   9.713   4.188  0.1124  0.0907  0.0306
19226W        W38080  16.279  15.097   3.638  0.2546  0.1059  0.2290
19227W        W38081   8.337   1.699   3.565 -0.0398 -0.0746 -0.1533
19228W        W38082   5.855   0.211   3.118 -0.2330  0.0220 -0.3500
19229W        W38083   7.452   2.712  17.237  0.2120  0.2664 -0.3089
19230W        W38084   2.765   9.314   1.210 -0.2005  0.0611 -0.2205
19231W        W38085   6.603  11.438  15.927 -0.0018 -0.1284 -0.0497
19232W        W38086  17.233   7.227  14.180 -0.0735 -0.2615 -0.0824
19233W        W38087  12.551  14.582   5.205 -0.2617 -0.2984 -0.2282
19234W        W38088   9.266   1.047   4.726 -0.0870 -0.0294 -0.2290
19235W        W38089   2.228  13.017   4.938 -0.2013  0.1577  0.3617
19236W        W38090   4.627   9.754  13.247  0.0099 -0.1399  0.0759
19237W        W38091   4.268  15.635  16.380 -0.2452  0.2676 -0.0127
19238W        W38092  11.876   5.621  14.361  0.3017 -0.2135 -0.1981
19239W        W38093   6.984   1.620  14.732  0.1943  0.2516  0.1012
19240W        W38094  13.544   9.303   5.147 -0.0996 -0.1451 -0.1441
19241W        W38095  14.283   6.778  15.472 -0.0556  0.3319  0.2180
19242W        W38096  14.031  15.082  13.594 -0.1626 -0.1926 -0.2357
19243W        W38097  16.695   3.726  15.968  0.3986 -0.1374 -0.0447
19244W        W38098  13.896   4.713   2.331 -0.0443  0.0375  0.0348
19245W        W38099   0.835   5.236  13.944 -0.1548  0.2457  0.0472
19246W        W38100  15.052  16.667  12.157 -0.1844  0.0181  0.0460
19247W        W38101  14.801   0.874  17.109 -0.0628  0.0439  0.0189
19248W        W38102   2.360   2.978   5.261  0.0305  0.3865 -0.0025
19249W        W38103  12.887   2.933   0.386  0.0142  0.0090 -0.1163
19250W        W38104  16.586   1.721   5.942  0.2810 -0.1520  0.1477
19251W        W38105   2.472   2.656  15.353  0.0310 -0.1221 -0.0924
19252W        W38106  17.095  16.412  16.559  0.0347  0.2135  0.1070
19253W        W38107   4.910  16.340   5.568  0.0032  0.0253 -0.0897
19254W        W38108   6.970  16.653  16.538 -0.0978 -0.0784 -0.0542
19255W        W38109   1.125   5.461  14.980  0.1837  0.1210  0.0491
19256W        W38110  13.171  13.980  16.980  0.0052  0.0702 -0.0396
19257W        W38111   2.644  15.946  12.712  0.2723  0.1143  0.1380
19258W        W38112   1.284   4.309  17.408 -0.1840  0.1270  0.0007
19259W        W38113  12.537  10.856   4.802 -0.0220  0.2183  0.0384
19260W        W38114  10.898   3.267  17.094 -0.1730  0.2603  0.0240
19261W        W38115   4.238  13.683   5.468 -0.1951  0.0532 -0.0678
19262W        W38116   3.023   5.239   1.913 -0.0550 -0.0356  0.3206
19263W        W38117  13.827  13.511   2.483  0.0737  0.0910 -0.2175
19264W        W38118   7.109  13.821  16.465  0.1059  0.1771 -0.4029
19265W        W38119  11.893   1.479   1.262  0.1206 -0.1006  0.1855
19266W        W38120  13.064  13.096   1.303 -0.4013  0.1040  0.0320
19267W        W38121  10.065  12.319   4.933  0.0330 -0.0766 -0.0750
19268W        W38122   4.256  12.282   2.233  0.0065 -0.0591 -0.0066
19269W        W38123   6.742  16.724   2.214  0.0038 -0.2187  0.0128
19270W        W38124   9.493   9.419  13.293 -0.2351  0.0192  0.0105
19271W        W38125  10.389  15.333  12.847 -0.2352 -0.3530 -0.2478
19272W        W38126  17.038   8.087  14.467 -0.0005 -0.0031  0.0608
19273W        W38127  10.855   7.599   5.187 -0.2377  0.2668  0.3844
19274W        W38128  17.269  17.359   2.968  0.0281  0.1553 -0.0482
19275W        W38129  15.847   2.539   5.341  0.3811 -0.1296 -0.2852
19276W        W38130   7.976  16.223   0.440  0.1023  0.0311  0.0026
19277W        W38131  16.901   7.652   0.659  0.2428  0.1228 -0.2091
19278W        W38132   9.484  10.562   3.814  0.1109 -0.0286 -0.1145
19279W        W38133   6.821  12.563  15.321 -0.3183 -0.0736  0.1057
19280W        W38134   9.179  12.906   5.373  0.0733  0.1261 -0.3161
19281W        W38135   8.423   5.383  14.028  0.0335 -0.0198 -0.2941
19282W        W38136  16.807   2.751  13.247  0.2078  0.1493 -0.1186
19283W        W38137   9.311   0.374   1.545 -0.0391 -0.1928 -0.0940
19284W        W38138  14.262   3.496   2.245  0.0471  0.0955 -0.1073
19285W        W38139   8.216  13.660   3.091 -0.0801  0.0653  0.0759
19286W        W38140  11.234   8.505  17.040 -0.0240 -0.0794  0.0788
19287W        W38141   8.336   1.458   4.421  0.0999  0.2259 -0.1088
19288W        W38142   3.656  11.992  14.009 -0.3561  0.0192  0.0152
19289W        W38143  16.517  14.481  15.906 -0.1898 -0.3443 -0.0084
19290W        W38144  13.839  17.368  15.035  0.0197 -0.0107  0.1410
19291W        W38145   3.668   3.273  15.225  0.1696  0.2478  0.2145
19292W        W38146  15.192  13.283   2.430  0.1057  0.0415 -0.1950
19293W        W38147   8.470  17.233  16.664  0.2513  0.1702 -0.0736
19294W        W38148  17.331   5.509   4.880 -0.1673  0.0221  0.0573
19295W        W38149  16.141  11.850  16.918  0.0223  0.3851 -0.0513
19296W        W38150   5.820   8.242  16.423 -0.0917 -0.1084 -0.0079
19297W        W38151  13.591   1.524   4.378 -0.1994 -0.1594  0.1264
19298W        W38152   4.918   4.558   4.594 -0.1090  0.0956 -0.0584
19299W        W38153  10.602   4.388  15.405 -0.0350  0.1595  0.0555
19300W        W38154   0.512  16.834   2.954 -0.3863 -0.1953 -0.0060
19301W        W38155  12.028  10.948   2.298  0.0477  0.1394 -0.0617
19302W        W38156   4.549   8.896   1.271  0.0874 -0.1734 -0.0404
19303W        W38157   3.464  11.081   5.228  0.1308  0.2597 -0.0291
19304W        W38158   9.856   5.950  15.479 -0.3895  0.3357 -0.0975
19305W        W38159  16.257   0.793   0.084 -0.1751  0.1438  0.0627
19306W        W38160   1.936   4.741   5.415  0.1054  0.2876 -0.3625
19307W        W38161   8.125  13.523  13.204 -0.1845  0.0758 -0.1972
19308W        W38162  15.655   0.156  15.176 -0.1174  0.1172  0.2009
19309W        W38163  12.653   9.172   4.930  0.1295  0.0010 -0.1880
19310W        W38164  10.828  14.697  16.770  0.0235 -0.0908  0.1200
19311W        W38165   4.855   7.571   0.916 -0.1541  0.0102  0.2294
19312W        W38166   3.246   0.934  13.300  0.0976 -0.1319  0.0040
19313W        W38167  14.044   0.298   4.841  0.0366 -0.1412 -0.2498
19314W        W38168   2.051   5.735  14.518 -0.0656 -0.2467  0.2008
19315W        W38169  13.388  12.343   5.040 -0.0410  0.1453  0.1337
19316W        W38170  10.280  12.084   2.335  0.1702 -0.3113  0.0589
19317W        W38171   2.821  10.401   4.809  0.3370 -0.0296  0.1954
19318W        W38172   3.635   5.351  16.776  0.2588  0.0024 -0.2028
19319W        W38173   5.988  15.169  13.756  0.1274 -0.1382 -0.3166
19320W        W38174  15.223   0.567   3.118  0.3174  0.0592 -0.1315
19321W        W38175   7.037   9.387   1.131 -0.0945 -0.0133 -0.0588
19322W        W38176   3.458  14.248   0.624  0.0457  0.2944 -0.1152
19323W        W38177   8.110  10.877   1.555 -0.2115 -0.0740  0.0936
19324W        W38178   7.547   6.786   0.087 -0.1205 -0.0016  0.1381
19325W        W38179   3.064  11.598   4.472 -0.4027  0.0028 -0.0529
19326W        W38180   4.337   7.431  17.391 -0.2274 -0.1268 -0.0676
19327W        W38181   0.394   8.821   2.908 -0.0132  0.2063  0.2738
19328W        W38182   6.860  13.258   4.651  0.0103  0.0647  0.0796
19329W        W38183  15.958   3.718   0.113 -0.0605  0.1025 -0.2214
19330W        W38184   5.363   9.431   3.209  0.1778  0.3869  0.0085
19331W        W38185  17.343  13.467  14.540 -0.0098  0.2064  0.2563
19332W        W38186   8.640   3.516   0.766  0.1538 -0.2577 -0.0826
19333W        W38187  13.801   9.158  16.797  0.2173  0.0282 -0.0546
19334W        W38188   3.618   8.135   2.313 -0.1129 -0.2729 -0.1818
19335W        W38189  16.775  12.501   2.024 -0.1731  0.0106 -0.0563
19336W        W38190  15.902   2.523  15.699 -0.1760 -0.3038  0.0285
19337W        W38191  16.251  15.397  16.768  0.0623 -0.3006 -0.0813
19338W        W38192   6.041   9.603   4.584 -0.0337  0.2285 -0.1205
19339W        W38193  10.447  14.772  17.087  0.0105  0.1877  0.2333
19340W        W38194   7.294  13.290   3.229  0.0424 -0.0974  0.1945
19341W        W38195   3.503  10.796  15.682 -0.2726  0.0418  0.3125
19342W        W38196   4.796  14.699   2.363  0.0055 -0.0385 -0.0515
19343W        W38197   0.254   3.971   1.883  0.0034  0.2427  0.0028
19344W        W38198   3.499   3.221   2.225  0.1793  0.1039 -0.0581
19345W        W38199  15.293  16.605  12.621  0.1400 -0.0913 -0.0525
19346W        W38200   3.317   3.047   5.336  0.1876 -0.0832 -0.0028
19347W        W38201   8.969  15.875   2.734  0.0648  0.0939  0.2680
19348W        W38202  14.473  12.131   0.528  0.1087  0.0194 -0.2186
19349W        W38203  16.588   9.231   1.976  0.2582 -0.4407  0.0629
19350W        W38204   5.776   5.428  13.697  0.0530 -0.1665  0.0961
19351W        W38205  15.514   6.444   4.033  0.2867 -0.4109  0.0345
19352W        W38206   4.414   4.300   4.649 -0.0549 -0.0199 -0.1151
19353W        W38207  12.027  17.240  14.858  0.0052  0.2852 -0.1242
19354W        W38208   4.253  10.585  13.674 -0.0812  0.4334  0.1145
19355W        W38209   4.261   3.611   1.969 -0.1166 -0.2496 -0.1721
19356W        W38210  10.096   2.554   3.254  0.1308 -0.0674  0.3025
19357W        W38211  12.365   9.900  17.424 -0.0904  0.2718  0.0877
19358W        W38212  11.650   2.725   0.719 -0.0475  0.0683 -0.2522
19359W        W38213   0.968   3.314   2.373 -0.0909  0.0400  0.0891
19360W        W38214   6.588  10.515  12.039 -0.2849  0.1061  0.0045
19361W        W38215   5.053   2.634   4.826 -0.0219  0.0734  0.1228
19362W        W38216   9.052  10.272  14.810  0.0912 -0.2653  0.1716
19363W        W38217   7.636   3.520   1.183 -0.1928 -0.1225  0.0128
19364W        W38218   9.485   6.510   2.838  0.1745  0.0584 -0.2215
19365W        W38219   7.848  13.258  16.041  0.2221  0.0463  0.2985
19366W        W38220   5.926   6.275  12.054  0.0149 -0.2630  0.2028
19367W        W38221  12.048  14.837   3.495 -0.0762 -0.0177 -0.2524
19368W        W38222  17.035  16.439   1.179  0.1186 -0.1944  0.2178
19369W        W38223  12.238   2.283  17.406 -0.1018  0.2753 -0.0714
19370W        W38224   9.009  10.372   3.257  0.0846  0.0457  0.0569
19371W        W38225  13.168   9.244  13.410 -0.3588 -0.2202 -0.3188
19372W        W38226  11.161  13.522   4.474  0.0941  0.0590  0.1331
19373W        W38227  15.707   2.590   4.245  0.0192  0.3306 -0.1312
19374W        W38228   5.423  11.252   3.811  0.1475  0.0236 -0.1629
19375W        W38229  11.642   2.976   4.104  0.1396  0.2530  0.5226
19376W        W38230  15.561   8.931  14.579  0.0558  0.0001 -0.0552
19377W        W38231  16.352   7.571   0.713 -0.1564 -0.0696  0.4312
19378W        W38232  11.282   7.889  14.317 -0.2949 -0.1243  0.0002
19379W        W38233   1.148  10.623   4.839 -0.0096 -0.0473 -0.2662
19380W        W38234   7.802   5.230  15.978 -0.1663 -0.1268 -0.0639
19381W        W38235  17.079   8.527  13.767 -0.1571  0.0633 -0.0214
19382W        W38236   2.417  11.634  12.718 -0.0762  0.3398  0.0844
19383W        W38237   4.778  16.332  14.822 -0.0805 -0.2712 -0.1182
19384W        W38238   0.825   0.154   4.049 -0.3280 -0.2178  0.0273
19385W        W38239  12.869   7.928   1.583  0.0068  0.0515 -0.0176
19386W        W38240   1.375   0.569  14.909  0.1133 -0.2112 -0.2267
19387W        W38241   2.999  12.544   4.100  0.0991  0.0390  0.1724
19388W        W38242  10.494   3.322   2.133 -0.0544 -0.0272 -0.0898
19389W        W38243   9.448  15.028   4.568 -0.0852 -0.1752 -0.0033
19390W        W38244  12.126  15.996  16.000 -0.0288 -0.0112 -0.0752
19391W        W38245  11.737   0.354   0.876  0.1869  0.2329 -0.1499
19392W        W38246  17.133  12.192   4.049  0.2186  0.0429  0.1654
19393W        W38247  11.011   8.435   1.124  0.0608 -0.0182 -0.1824
19394W        W38248  14.061  16.132   3.458 -0.1555  0.4100  0.0069
19395W        W38249   2.353   1.510  12.425  0.1388  0.0809 -0.1901
19396W        W38250  11.449  17.287  16.946 -0.1015  0.2252  0.3293
19397W        W38251  13.286   0.811   3.086  0.1108 -0.1332 -0.2143
19398W        W38252  14.998   3.551   0.904  0.1430 -0.0471 -0.1241
19399W        W38253  13.233  15.697  14.777  0.0464  0.2641 -0.0528
19400W        W38254  15.140   3.789  12.629 -0.0841  0.0130 -0.1966
19401W        W38255   0.901   5.445  15.542  0.0153  0.1003 -0.0445
19402W        W38256  10.766   3.479   1.329  0.2716 -0.1832  0.2528
19403W        W38257  15.751  10.289  17.365  0.1778 -0.2274 -0.2602
19404W        W38258   2.825  10.290   0.977 -0.2799  0.4950  0.0425
19405W        W38259  14.191   3.512   1.155 -0.2033  0.0265 -0.2328
19406W        W38260   5.236   0.793   1.304 -0.0766 -0.0524 -0.1976
19407W        W38261   0.827   3.100  15.145  0.3592 -0.0473 -0.1155
19408W        W38262   3.272   3.974   3.568 -0.0946 -0.2622 -0.0572
19409W        W38263   7.396   3.377   5.003  0.0959  0.1264  0.0156
19410W        W38264  15.559   0.478   3.555 -0.0583 -0.2488 -0.2450
19411W        W38265  14.856   4.010   1.125  0.2035  0.0195  0.0752
19412W        W38266   6.726  16.867   0.890  0.0084 -0.0883  0.0280
19413W        W38267   3.151   9.399  12.443  0.2532  0.1635 -0.0949
19414W        W38268   9.685   4.737   4.580 -0.1072  0.0604 -0.0072
19415W        W38269   1.854   7.864  11.150  0.0044 -0.2916 -0.0479
19416W        W38270   2.889  12.334   4.837  0.1905  0.1166  0.0870
19417W        W38271  16.790  11.458   1.012 -0.2070 -0.1300  0.3167
19418W        W38272   9.741   7.982   5.154 -0.1349  0.0086  0.0110
19419W        W38273   0.361   4.261  15.195 -0.2279  0.2489 -0.2530
19420W        W38274   5.684  12.202  15.657  0.3345 -0.1573  0.1582
19421W        W38275   3.133  13.505  14.284 -0.1356 -0.0843 -0.2077
19422W        W38276   9.761   3.603  16.467  0.3805  0.2148 -0.0090
19423W        W38277  10.730  12.364   1.714 -0.2445  0.0144 -0.0565
19424W        W38278   1.147   6.557   1.497 -0.2339  0.0621 -0.1384
19425W        W38279  15.881  11.053  14.524 -0.1156  0.3748  0.2493
19426W        W38280   2.279   2.708   3.665  0.1483  0.2480  0.0480
19427W        W38281  15.693   8.675   4.596  0.2716  0.2341 -0.0087
19428W        W38282   5.305   2.948  16.182 -0.2968  0.1087 -0.0770
19429W        W38283  11.208   5.833  13.960  0.2309 -0.2709  0.0157
19430W        W38284   4.947  16.886  16.010 -0.0379  0.1367  0.1236
19431W        W38285   9.913   0.995  14.844 -0.0449 -0.0935 -0.1216
19432W        W38286   9.528   9.939   1.004 -0.2484  0.0662  0.1776
19433W        W38287  17.367  15.362   1.029 -0.1193 -0.2342 -0.1792
19434W        W38288  13.685   8.032  12.281  0.0716  0.1352  0.0087
19435W        W38289  16.598  13.364   3.389 -0.0519  0.1343  0.1567
19436W        W38290  10.571  10.556   2.174  0.0281  0.0737  0.0643
19437W        W38291  13.400   2.578   0.853  0.1002 -0.0343  0.3794
19438W        W38292  10.703  10.513   4.940 -0.1076 -0.0310  0.2187
19439W        W38293  15.017  11.891   0.104  0.4376  0.2321  0.1794
19440W        W38294   8.161   3.363  14.920  0.0894 -0.0642  0.0920
19441W        W38295   3.668  10.804   0.022 -0.2673 -0.2249  0.1460
19442W        W38296  12.967  12.459  11.996 -0.2058  0.0681  0.3521
19443W        W38297   0.621   8.852  16.224  0.3901  0.0152 -0.1233
19444W        W38298   3.676   2.350   1.529  0.0010  0.1998 -0.2602
19445W        W38299  12.186   6.380   2.438  0.2254 -0.0675  0.0435
19446W        W38300   9.961  15.131   3.140 -0.3660 -0.1534  0.3742
19447W        W38301  10.668   8.630   2.824 -0.2073  0.0746 -0.2645
19448W        W38302   5.948   9.887   3.767 -0.2486 -0.1807  0.3448
19449W        W38303   9.034  12.914  12.520 -0.3153 -0.1457  0.1678
19450W        W38304  12.264   1.430  12.820  0.0354 -0.0636 -0.0885
19451W        W38305   4.593  13.851  13.809 -0.1460  0.1632  0.2856
19452W        W38306   1.381  15.389   0.619 -0.1691 -0.1046  0.0391
19453W        W38307  13.603   6.697  15.826 -0.0089 -0.3506  0.2543
19454W        W38308   9.022   9.903   3.425  0.0353 -0.2457  0.0765
19455W        W38309   4.667   9.449  12.629  0.0998 -0.3031 -0.0024
19456W        W38310   4.949  13.154  13.440  0.1499 -0.1660  0.5369
19457W        W38311   5.793   3.232  16.315  0.2602 -0.0483  0.1929
19458W        W38312  12.626  10.399  15.545 -0.0621  0.0839  0.1222
19459W        W38313  10.780   4.788  13.728  0.0511 -0.2652  0.0340
19460W        W38314  10.928   5.509  13.081 -0.1837  0.1290  0.2080
19461W        W38315   1.753   8.184  15.562 -0.3769  0.1325 -0.2339
19462W        W38316   0.724   3.130  16.871  0.0304  0.2599 -0.0136
19463W        W38317  15.471   8.810   2.457 -0.3143 -0.2216 -0.1021
19464W        W38318   5.189  14.332   4.650  0.0464 -0.1438 -0.1602
19465W        W38319   4.806  14.490   0.974  0.3236  0.0664  0.1894
19466W        W38320  16.438   4.769  15.583  0.1402  0.0006  0.1455
19467W        W38321   7.637   9.877  13.319  0.0713  0.1047  0.1886
19468W        W38322  14.659   4.973   0.195 -0.1192  0.1600  0.1477
19469W        W38323   2.181   7.447  12.606 -0.0850 -0.0103 -0.3466
19470W        W38324   8.136   8.250  15.896 -0.0232 -0.0262  0.0634
19471W        W38325   3.029   6.842   3.503 -0.0487 -0.0626 -0.2499
19472W        W38326  16.615  15.392  14.773  0.0791 -0.0642  0.2193
19473W        W38327   3.037  12.877  12.981  0.0723 -0.2022 -0.3215
19474W        W38328   5.996  16.161   4.870  0.4901  0.3617 -0.3887
19475W        W38329  10.029   1.882  16.391  0.0097  0.3311  0.1545
19476W        W38330  13.750  11.192  14.418 -0.1773  0.2154  0.1314
19477W        W38331   4.111   5.677  15.779 -0.1754  0.1936  0.0992
19478W        W38332  12.710   5.026  17.203  0.4144 -0.1746 -0.1738
19479W        W38333   6.492   3.290   5.221 -0.1756  0.0842  0.0724
19480W        W38334  11.444  15.502   3.922 -0.0254  0.0585  0.1939
19481W        W38335  17.187   8.637   4.107  0.0653  0.2473 -0.3015
19482W        W38336  17.322   6.016   0.223  0.0865  0.2152 -0.5500
19483W        W38337  15.674  13.864  12.554  0.0472  0.2349 -0.1860
19484W        W38338  10.716   2.458   3.213 -0.1900  0.1889 -0.1659
19485W        W38339  14.428  10.185   0.660 -0.1356 -0.0728  0.1145
19486W        W38340   2.653   5.069   2.260  0.0374  0.0143 -0.0993
19487W        W38341  10.897  12.396   3.783  0.1484 -0.0013  0.3044
19488W        W38342   7.329   2.759  13.116  0.1130  0.2837 -0.1502
19489W        W38343   6.959  11.131  15.260 -0.1490  0.0701  0.0632
19490W        W38344   2.493   2.151   0.049  0.0884 -0.1524  0.1923
19491W        W38345   2.812   7.839   2.199  0.0464 -0.0194  0.2652
19492W        W38346   0.623  15.289   6.217 -0.0256 -0.2139  0.1579
19493W        W38347   7.829   6.497   0.819 -0.1862  0.2595  0.4064
19494W        W38348  12.696  15.987   2.973 -0.0329 -0.2964 -0.0030
19495W        W38349   3.132   7.950  17.100  0.2167  0.0544  0.0467
19496W        W38350   3.234  13.916   2.697  0.0228 -0.0188 -0.0833
19497W        W38351  12.615   4.149  16.507 -0.1137 -0.1258 -0.0701
19498W        W38352   1.063   0.077  16.959  0.1403  0.1051 -0.2422
19499W        W38353   1.074  14.006  13.808 -0.1263  0.1614 -0.1591
19500W        W38354   3.621   1.982   4.628 -0.1267 -0.2447 -0.0566
19501W        W38355  17.055  10.990   1.711 -0.0739  0.3333 -0.0174
19502W        W38356   4.636  11.477  14.885  0.2226 -0.1793  0.2762
19503W        W38357  15.505  14.704  13.719  0.1091 -0.0966 -0.0009
19504W        W38358  14.584  11.013   2.823 -0.0113 -0.0722 -0.1745
19505W        W38359   6.868  14.798  16.320  0.1174  0.1174 -0.0245
19506W        W38360  10.588   6.589   4.353 -0.0951  0.2036  0.0206
19507W        W38361  16.078   5.421  17.360 -0.0685 -0.1233 -0.2365
19508W        W38362   7.759   9.328   2.222  0.2201 -0.0686  0.2132
19509W        W38363  14.359   5.952   3.871 -0.0546 -0.0331  0.1294
19510W        W38364   9.091   2.764   3.210 -0.1335 -0.3184  0.1268
19511W        W38365  13.228  17.173   4.512  0.1970 -0.2017  0.1720
19512W        W38366   6.499   7.053  16.576  0.0929  0.0405  0.0112
19513W        W38367   6.154   5.390   1.160  0.2079 -0.1429  0.3018
19514W        W38368   8.916   6.219   0.401  0.1165 -0.4428 -0.1910
19515W        W38369  11.043   0.859   1.440 -0.1940  0.1622 -0.3743
19516W        W38370   7.182  14.029   2.537  0.0510 -0.1566  0.0352
19517W        W38371  15.981  17.324  12.744  0.2800 -0.1737 -0.1046
19518W        W38372   6.137  11.907   3.008  0.1101 -0.1963 -0.2563
19519W        W38373   4.647   3.915   2.529  0.2254 -0.0516  0.0763
19520W        W38374   8.284  12.355  13.618  0.0612  0.5615  0.0180
19521W        W38375   2.847   2.096  13.447 -0.0768  0.1222  0.0579
19522W        W38376   3.524  17.114   4.538 -0.1869 -0.2270  0.1094
19523W        W38377   3.667  13.544  16.782  0.0339 -0.2947 -0.1561
19524W        W38378   1.389   2.667   5.146 -0.0131  0.1105 -0.0783
19525W        W38379  15.985  11.591  14.616  0.0345 -0.0102  0.0989
19526W        W38380  16.565   9.981  15.580 -0.1141 -0.0487  0.0143
19527W        W38381   7.612   2.176  13.603 -0.0711  0.1371 -0.2528
19528W        W38382  14.329  14.673   0.129  0.0210  0.0170 -0.1863
19529W        W38383   6.554  14.616  14.690 -0.1092 -0.2636  0.0876
19530W        W38384   1.200  14.980   2.141 -0.0469  0.0916 -0.2138
19531W        W38385   6.798  15.000   4.057  0.1158  0.0182 -0.0666
19532W        W38386  14.970   2.404  16.202  0.2080  0.0575  0.2788
19533W        W38387   5.018   8.173   2.785  0.3981 -0.0487 -0.5471
19534W        W38388  14.225   0.057  16.606  0.1367 -0.2918 -0.1175
19535W        W38389   2.137  12.764  12.098  0.1512 -0.4216 -0.1452
19536W        W38390   3.090  16.830   0.899 -0.1749  0.1032 -0.0499
19537W        W38391   8.258  13.192   5.046 -0.0630 -0.0828 -0.1728
19538W        W38392  10.031   4.338  12.904 -0.1432  0.2238  0.1700
19539W        W38393   0.229  17.339   5.306  0.3983  0.2478 -0.0198
19540W        W38394   1.779   8.711   4.162  0.1647  0.3978  0.1211
19541W        W38395   8.545  13.500  12.821  0.4270 -0.1035 -0.0713
19542W        W38396  11.227   9.118  17.179  0.2032 -0.0692  0.1727
19543W        W38397  17.088   3.628  15.214 -0.3011  0.2996 -0.2897
19544W        W38398   7.288  11.365   1.206  0.2257 -0.4012 -0.1689
19545W        W38399  13.912  12.253  15.937 -0.1280  0.2203 -0.0382
19546W        W38400   6.672   6.966   3.206  0.1632  0.0663 -0.1578
19547W        W38401   6.486   1.285   2.840  0.1567 -0.1654 -0.2592
19548W        W38402   0.302   5.209   0.318  0.1297 -0.1066 -0.0971
19549W        W38403  12.545  11.431   4.161  0.2292 -0.3048 -0.1360
19550W        W38404  16.135   4.505   2.396  0.0541  0.1730 -0.0061
19551W        W38405  15.775  15.957  12.918  0.0429  0.2229  0.0698
19552W        W38406  15.295  16.080   4.117 -0.0156 -0.0114 -0.1456
19553W        W38407   2.524  10.089   0.029  0.1365  0.0328  0.2142
19554W        W38408  12.442   7.391  12.655  0.2018  0.0613  0.2076
19555W        W38409   9.922  12.375  12.937 -0.1723  0.0214  0.1634
19556W        W38410   6.347   5.735  13.751  0.1712 -0.2105 -0.2407
19557W        W38411  16.829   8.299   0.561 -0.0114  0.0679 -0.1938
19558W        W38412   2.401   7.935   1.828  0.1692 -0.3061 -0.2368
19559W        W38413  15.423   2.641   5.131 -0.0421 -0.0463 -0.0279
19560W        W38414   6.120   1.384  16.664  0.2775  0.2364 -0.0564
19561W        W38415   3.541  11.259   4.154 -0.0692 -0.0577 -0.1843
19562W        W38416   0.039   5.281  14.166  0.1127 -0.0987  0.0723
19563W        W38417   1.180  15.307   4.880 -0.1733 -0.1045  0.3407
19564W        W38418  12.595   1.086  12.637 -0.1018  0.0270  0.1679
19565W        W38419   0.730   2.497  12.429  0.0024 -0.1113 -0.3019
19566W        W38420  14.999  17.172  12.478  0.2636  0.0592  0.0402
19567W        W38421   3.446   4.436  14.488  0.1559 -0.1551  0.1917
19568W        W38422   4.561   5.453   4.546  0.2891 -0.1422 -0.1039
19569W        W38423   3.778  16.883   3.216 -0.1319 -0.1646  0.2331
19570W        W38424  13.267   4.880  11.293 -0.4099  0.0138 -0.2206
19571W        W38425   2.036   5.889   4.265  0.4084 -0.0694  0.1239
19572W        W38426   3.251   1.111   4.311  0.1001 -0.0383  0.1615
19573W        W38427  11.169   7.096  12.526 -0.0889  0.0284 -0.2192
19574W        W38428   6.082   4.638   1.538 -0.2500  0.1756  0.0922
19575W        W38429   4.086  17.182   4.850  0.0419  0.1167 -0.1535
19576W        W38430   2.334  12.471  17.351  0.1846 -0.0739 -0.1152
19577W        W38431   0.723   2.496  13.888 -0.1120 -0.4655 -0.0572
19578W        W38432   7.358   8.455   3.373 -0.1240 -0.3475 -0.4271
19579W        W38433  13.928  15.036  14.720 -0.2032  0.0340  0.0236
19580W        W38434   4.586   1.541  14.593  0.2233  0.0963  0.0314
19581W        W38435   7.799   6.617   4.701  0.2186  0.1687  0.1248
19582W        W38436  17.233  15.926  15.328  0.0220  0.0657  0.5792
19583W        W38437   6.832  15.833   2.825  0.1198 -0.0056  0.1122
19584W        W38438   4.110  17.289  17.039  0.0145 -0.3596  0.2254
19585W        W38439   0.003  15.470   5.751  0.0014  0.2249 -0.2050
19586W        W38440  15.974  15.197   2.715 -0.1917  0.1181  0.2880
19587W        W38441  13.102  10.296  15.176  0.2871  0.2919 -0.1277
19588W        W38442  14.370  13.570   4.037 -0.1309 -0.0599 -0.0151
19589W        W38443  16.281   1.912   2.720  0.1176 -0.0177 -0.4084
19590W        W38444   5.847   2.181   4.146  0.0877  0.4298 -0.1533
19591W        W38445  10.886   9.333  16.102 -0.1297  0.1235 -0.1370
19592W        W38446  17.365   5.041  14.589 -0.0169 -0.1527  0.1314
19593W        W38447  17.024   4.334   5.344  0.0350 -0.0785  0.0922
19594W        W38448   0.578  10.121   0.971 -0.1033  0.0444 -0.2528
19595W        W38449   0.879  10.984  13.786 -0.1521  0.2421  0.1738
19596W        W38450   0.212   8.589  17.041 -0.0781  0.1064  0.2120
19597W        W38451   0.182  15.664  14.881  0.1150  0.0137  0.1388
19598W        W38452  13.981   3.981   0.863  0.1118 -0.2580  0.4004
19599W        W38453  12.264  14.024  15.842  0.0553  0.0158 -0.1328
19600W        W38454  16.891   3.959  16.359 -0.1172 -0.0416  0.1151
19601W        W38455   0.570   9.286   0.656 -0.2139 -0.0977 -0.0092
19602W        W38456  12.963  16.285  15.938  0.1927 -0.0565 -0.0935
19603W        W38457  12.393   5.904  15.646  0.1721  0.1338 -0.1098
19604W        W38458   0.989   3.073   5.006  0.3081 -0.1048 -0.2183
19605W        W38459   7.147  16.518   3.441 -0.1977 -0.2049 -0.2671
19606W        W38460   0.127  15.459  13.518 -0.5167  0.1417 -0.2003
19607W        W38461  15.875  10.953   0.365 -0.3919  0.1500  0.1604
19608W        W38462  16.289   7.465   4.211 -0.1179  0.0055 -0.0181
19609W        W38463  12.412   1.314   4.291  0.4060  0.0719  0.1594
19610W        W38464   5.109  11.593   4.525  0.1321 -0.2642  0.1402
19611W        W38465  13.191   7.535   2.509 -0.1798 -0.1507 -0.1150
19612W        W38466  16.846  15.103  16.606  0.1503 -0.3039 -0.0466
19613W        W38467  14.754   3.001  14.981 -0.1012 -0.2100  0.1203
19614W        W38468   7.165   3.187   1.766  0.0747  0.2846  0.2886
19615W        W38469   1.471   7.314   2.358  0.4343  0.0454  0.2230
19616W        W38470   0.608   1.063   5.144  0.2732 -0.4611 -0.1476
19617W        W38471   8.459  15.384   2.130  0.0231 -0.0502  0.0467
19618W        W38472   5.852   0.138  13.325  0.1294 -0.1256 -0.0485
19619W        W38473   4.702  15.770  16.726 -0.1361 -0.1419  0.0362
19620W        W38474   3.278  14.930  14.333 -0.2103 -0.0240  0.0153
19621W        W38475  16.164   5.834   2.893 -0.1932 -0.4767 -0.2144
19622W        W38476   5.358   5.965   1.524 -0.3031 -0.3007 -0.1755
19623W        W38477   7.820  11.651   5.164 -0.1162  0.1269  0.1109
19624W        W38478   0.602   6.044   0.911 -0.0457  0.0008 -0.0771
19625W        W38479   8.035  12.178  16.172 -0.0021 -0.0966  0.1587
19626W        W38480   0.608  15.740   0.627  0.2817  0.3604 -0.0902
19627W        W38481   2.214   9.040   3.271  0.1000 -0.0676  0.0011
19628W        W38482  11.579   9.564   2.391 -0.1455 -0.3293 -0.1443
19629W        W38483  16.343   8.821  15.120  0.0672  0.0329 -0.1730
19630W        W38484   9.932   4.124  16.150  0.3419 -0.1119  0.1804
19631W        W38485   0.903  16.685  14.448  0.0640  0.1932  0.1474
19632W        W38486   3.362   5.866  13.756 -0.0092 -0.0899  0.0221
19633W        W38487   3.475   3.059   0.473 -0.1647  0.0022  0.0870
19634W        W38488   4.141  11.312   0.598  0.0026 -0.0852  0.0380
19635W        W38489   7.544  10.890  12.745 -0.0999  0.0092  0.1195
19636W        W38490  12.814   9.292   1.921  0.1570  0.0928 -0.1330
19637W        W38491   4.998   5.071  15.742  0.1556 -0.2445 -0.0099
19638W        W38492  17.259   5.177   1.580 -0.2718  0.0758 -0.1189
19639W        W38493   5.850   6.760  12.352 -0.1044 -0.1447  0.2525
19640W        W38494  11.021   3.891   2.558 -0.2515 -0.0066  0.0286
19641W        W38495  10.744  15.519   4.231  0.0231  0.2285 -0.0444
19642W        W38496   7.524   5.542   1.101  0.2397  0.1800 -0.0613
19643W        W38497   7.154   7.884   3.474 -0.3549  0.0751  0.0431
19644W        W38498   2.149   4.933  14.340 -0.0291 -0.1822  0.1352
19645W        W38499  12.923  13.033  12.879 -0.2117  0.1486 -0.1035
19646W        W38500   3.404  10.857   1.230  0.1432  0.3315  0.0611
19647W        W38501  12.632   1.778   1.622  0.1310  0.0142  0.0714
19648W        W38502  12.702   3.247   3.299 -0.1223 -0.0964  0.2346
19649W        W38503  16.016  14.133  14.971  0.2456 -0.0607  0.1479
19650W        W38504   0.112   0.139  12.814 -0.1191  0.0167 -0.0192
19651W        W38505   4.716   0.733  12.913 -0.1452 -0.4204  0.2148
19652W        W38506   6.248  17.050   2.207  0.0323  0.0290  0.3714
19653W        W38507   1.809  12.701  16.667  0.0784 -0.1700  0.1541
19654W        W38508   6.975   0.674   4.457 -0.2232  0.0397  0.0509
19655W        W38509   3.356  11.249  12.986 -0.1172  0.1041 -0.0830
19656W        W38510  13.128  15.387   3.449 -0.0521  0.1836 -0.1196
19657W        W38511   3.016   0.052   1.572  0.1368  0.1021 -0.1046
19658W        W38512  12.948  13.953  12.932 -0.0531  0.3170  0.0584
19659W        W38513   0.422  15.222  12.698 -0.1320 -0.2156 -0.2051
19660W        W38514   6.894   1.512   2.542 -0.0753 -0.0233 -0.2304
19661W        W38515   6.530   0.624   3.552  0.1104 -0.2021  0.2211
19662W        W38516   8.357   6.844   2.216  0.3327 -0.0182  0.2707
19663W        W38517   0.527   0.491   1.836  0.3159  0.0468 -0.0323
19664W        W38518  10.775   9.130   2.742  0.0313 -0.2182 -0.0220
19665W        W38519   7.621   4.557  16.712  0.2840  0.3860 -0.3141
19666W        W38520   0.132   8.567  14.503 -0.1411  0.2229 -0.0194
19667W        W38521   2.940   8.905  13.499 -0.0152  0.0532 -0.2713
19668W        W38522   0.791  11.461  14.692  0.1228  0.2537  0.1623
19669W        W38523   1.811   1.935   4.634 -0.0919 -0.0456  0.1623
19670W        W38524   9.928   1.784   0.440 -0.2778 -0.0140 -0.2952
19671W        W38525  11.480  11.455   0.294 -0.3349  0.1661  0.1028
19672W        W38526   7.855  14.697   1.948 -0.2050  0.0022 -0.1090
19673W        W38527   7.171   9.947  14.661  0.1053  0.1188  0.6951
19674W        W38528   1.717  12.255  16.092  0.0773 -0.0158 -0.0889
19675W        W38529  11.549  16.094   1.366 -0.2254 -0.1404 -0.1601
19676W        W38530  11.295  11.644  17.030  0.0033 -0.1074 -0.0917
19677W        W38531   4.049  10.590   3.569 -0.0313  0.1532 -0.3485
19678W        W38532   7.727   6.016  12.483 -0.2255 -0.1940 -0.0718
19679W        W38533   2.922  15.659   1.919  0.1647  0.0844 -0.0154
19680W        W38534   8.146  15.592  13.138 -0.1271  0.1374 -0.0037
19681W        W38535  15.095  16.834   4.292  0.0464 -0.2996  0.2675
19682W        W38536  14.001   3.485  16.633  0.1750 -0.1770 -0.3263
19683W        W38537  15.083   8.539   4.169 -0.0162 -0.1053  0.2755
19684W        W38538   9.618   5.258  12.289 -0.0489  0.1139 -0.3375
19685W        W38539   8.134   9.044  13.039  0.1044  0.0509  0.1920
19686W        W38540   3.895   4.833   1.935  0.1538 -0.0538 -0.5912
19687W        W38541   0.120  15.770   1.866 -0.2052  0.4660 -0.1644
19688W        W38542  17.347   9.605  12.227  0.1387 -0.1951  0.3611
19689W        W38543   0.993   5.085   1.672 -0.0330 -0.0454  0.1171
19690W        W38544  15.432  10.297   2.897  0.0806  0.1223  0.2337
19691W        W38545   4.980  11.109  12.434  0.0234 -0.0491  0.0920
19692W        W38546   4.454  12.403  13.916  0.2429 -0.3125  0.1984
19693W        W38547  11.092  13.711   2.666  0.3804 -0.2407  0.0227
19694W        W38548  13.232   8.454   3.445  0.1859  0.1145  0.1495
19695W        W38549  15.109   8.845   3.684 -0.3460 -0.0751  0.1011
19696W        W38550  14.929   6.756   3.309  0.0094  0.3858  0.3478
19697W        W38551   4.716  15.139   0.649  0.2009  0.1351 -0.1980
19698W        W38552  13.359  10.548   2.575  0.1828 -0.0696 -0.1176
19699W        W38553   4.369  12.889  14.116  0.0594 -0.0915  0.0193
19700W        W38554  10.397   7.149  15.148 -0.2316  0.0150 -0.1945
19701W        W38555  13.442   5.639   0.675 -0.2108  0.0806 -0.0569
19702W        W38556  10.169   9.678  12.196 -0.0097 -0.0835  0.1395
19703W        W38557  12.254   3.112  15.760 -0.0905 -0.0786  0.0701
19704W        W38558   0.292   7.287   2.237 -0.0776  0.0663  0.1261
19705W        W38559   9.982   3.995  12.546 -0.0406 -0.1668 -0.0519
19706W        W38560   4.796   4.920   0.877 -0.1083 -0.1919 -0.1841
19707W        W38561   7.112  10.443  14.724 -0.1348 -0.0208 -0.3622
19708W        W38562   2.230   5.183   0.434 -0.2893 -0.1085 -0.1828
19709W        W38563  10.971   7.325   1.692 -0.0307 -0.1625 -0.0831
19710W        W38564   3.547   4.864  13.238 -0.1575  0.1357  0.0269
19711W        W38565  13.940   4.946  12.458 -0.2143 -0.1660 -0.1419
19712W        W38566  11.706   0.489  14.542  0.0534 -0.1220  0.1000
19713W        W38567  13.087  11.865  14.859 -0.0644 -0.1094  0.1289
19714W        W38568   4.427  10.340  17.172 -0.0621 -0.0109 -0.3836
19715W        W38569  11.203   7.706  13.748 -0.0886 -0.2644  0.1419
19716W        W38570   1.107  11.900   2.213 -0.0313 -0.2785 -0.1440
19717W        W38571   7.660  12.883   3.394 -0.1185 -0.0232  0.0229
19718W        W38572  14.192  15.565   2.317  0.1335 -0.1030 -0.3108
19719W        W38573   7.487   1.785  14.916 -0.1299  0.0089 -0.0114
19720W        W38574  14.460   0.951   3.554  0.1945  0.1790  0.0525
19721W        W38575  11.761   1.217  13.112 -0.0698  0.0510 -0.0178
19722W        W38576  15.742   3.042   5.353 -0.3647  0.0822  0.1125
19723W        W38577  11.520  10.529  14.670  0.0222  0.1823 -0.0492
19724W        W38578   2.983   6.791  14.422 -0.1950 -0.0914 -0.1312
19725W        W38579   6.856   6.207   0.083  0.1179  0.0108  0.1573
19726W        W38580   8.419   6.215   0.296  0.1463 -0.0923  0.1675
19727W        W38581  11.021   5.809   4.095 -0.3594 -0.0679 -0.2625
19728W        W38582   0.191   6.117   3.351  0.4822 -0.0366  0.0724
19729W        W38583   8.963  16.670   5.035 -0.1061  0.0898 -0.2139
19730W        W38584   5.569   3.771  16.102 -0.0029  0.1309 -0.4531
19731W        W38585  10.876   0.229   0.939  0.2815  0.0996 -0.1386
19732W        W38586   6.674  12.378  13.947  0.0561  0.1173  0.0880
19733W        W38587   5.017   4.289  12.321 -0.0896 -0.1158 -0.0389
19734W        W38588  10.572  10.765   1.145 -0.0596 -0.1720  0.2126
19735W        W38589   1.705  10.135   2.695 -0.0627  0.0421 -0.1185
19736W        W38590   3.998  14.447   2.171 -0.0307 -0.0861  0.0109
19737W        W38591   8.558  16.190  14.588 -0.2138  0.1075  0.0445
19738W        W38592  12.536   0.365   4.235  0.2313 -0.0891 -0.1516
19739W        W38593  15.222  10.544  14.261 -0.0643 -0.0517  0.0447
19740W        W38594  16.444  13.845   0.371  0.0768 -0.0143  0.0816
19741W        W38595  15.855   2.126   3.935  0.0441  0.1456 -0.0029
19742W        W38596   7.014  15.039   3.470 -0.1730  0.1387 -0.0168
19743W        W38597  10.599   0.620   4.828 -0.0931 -0.0722  0.1675
19744W        W38598   3.913   3.439  14.757  0.1706  0.0790  0.2924
19745W        W38599   6.085   9.054  13.668  0.0560 -0.1530  0.0690
19746W        W38600  17.059   0.980  13.194  0.2367  0.0878 -0.3448
19747W        W38601  15.347   9.385   3.601 -0.2064  0.0488 -0.2381
19748W        W38602   3.284  15.963  12.844 -0.1040 -0.1017 -0.0223
19749W        W38603   8.795   0.555   0.428 -0.0170 -0.1253  0.0231
19750W        W38604  15.991   7.334   1.036  0.2758 -0.0538 -0.2617
19751W        W38605   9.314   9.666  16.343 -0.0793 -0.1909  0.4095
19752W        W38606  16.642   0.859  13.412 -0.1350 -0.0770 -0.0614
19753W        W38607   4.843   9.616   0.131  0.2808  0.2397 -0.3900
19754W        W38608   9.677  11.067  13.358 -0.1758 -0.0583  0.0967
19755W        W38609   2.837  11.642  14.293  0.0267  0.1120 -0.1699
19756W        W38610   5.092  14.733  16.652 -0.2990 -0.0657  0.1840
19757W        W38611   9.386  15.503  12.841  0.0195  0.0794  0.0845
19758W        W38612   9.065  14.155   2.099  0.0434 -0.2347 -0.0129
19759W        W38613   1.770   9.268   3.081  0.0450  0.2609  0.1232
19760W        W38614   7.063   0.146   0.411 -0.0934 -0.0684  0.0630
19761W        W38615   9.138   5.019  12.073  0.0682 -0.0994  0.1287
19762W        W38616  14.539   8.967  14.761  0.2442 -0.0485 -0.2563
19763W        W38617   9.589  12.259  13.300  0.1463 -0.0626 -0.1383
19764W        W38618   6.221  12.055  14.072  0.0179 -0.1172 -0.3287
19765W        W38619  12.655   8.762   5.387 -0.3452  0.0289  0.0491
19766W        W38620   7.861  13.399  16.754  0.1559 -0.0912 -0.0445
19767W        W38621  14.290  10.458  17.280  0.2762 -0.0210 -0.2322
19768W        W38622  16.040  14.135   1.657 -0.1168  0.0661 -0.1053
19769W        W38623  16.273   5.940  13.926 -0.0754  0.0545 -0.3099
19770W        W38624   2.521  16.101  15.725  0.1353 -0.0205 -0.2160
19771W        W38625  10.666  16.476   4.507 -0.1004 -0.0838 -0.0770
19772W        W38626   0.231   5.767   0.599  0.2005  0.0127  0.0698
19773W        W38627   5.988  17.022  17.260  0.1447 -0.0772 -0.0783
19774W        W38628  14.286   3.669   1.708  0.2370  0.1950  0.1430
19775W        W38629   8.653  12.796  12.829 -0.1758 -0.1397 -0.1770
19776W        W38630  16.781   8.469  17.172  0.2306  0.1154 -0.1593
19777W        W38631  15.555   2.500   3.727  0.1318 -0.1924  0.1800
19778W        W38632   6.600  15.243   1.981 -0.0579  0.2296  0.2208
19779W        W38633  15.299   0.674  16.405 -0.1824  0.0985 -0.1232
19780W        W38634   7.041   4.712  15.121 -0.0673 -0.2633 -0.2592
19781W        W38635  13.059   5.168  16.780 -0.0563 -0.4178  0.0679
19782W        W38636   4.313   2.259  17.379  0.1056  0.0272 -0.0245
19783W        W38637   1.092   8.662  12.837 -0.3907  0.0885  0.1425
19784W        W38638  11.901  16.320  15.718  0.0880 -0.0753 -0.2142
19785W        W38639   8.567   6.225  16.975  0.0544 -0.2503  0.4731
19786W        W38640   7.404  11.033   4.256 -0.1088 -0.3426  0.1161
19787W        W38641  16.138   0.147   4.230  0.0678  0.0005  0.1556
19788W        W38642  14.468  15.155   2.190 -0.1870  0.0852 -0.3258
19789W        W38643  16.347  12.230  17.263  0.1098 -0.1686  0.0701
19790W        W38644   2.692  17.323   0.032  0.0940  0.0801  0.4224
19791W        W38645   7.746  12.659  14.326  0.1709 -0.0923  0.1411
19792W        W38646   6.268   9.972  17.008 -0.3141 -0.1686  0.0589
19793W        W38647   2.224   8.853   4.912 -0.0636 -0.2493 -0.2758
19794W        W38648  11.869   7.398  15.865  0.1855  0.1072 -0.1866
19795W        W38649   1.560  13.213   0.763  0.0175 -0.0945  0.0485
19796W        W38650  10.847  11.571   4.969 -0.0654 -0.2468 -0.2082
19797W        W38651  13.293  16.162  13.063  0.3350 -0.1355  0.3831
19798W        W38652  16.719   4.950  16.583  0.2064  0.0443 -0.0296
19799W        W38653   7.447   0.428  12.094  0.1316  0.0981  0.2206
19800W        W38654   4.376  15.304   5.188  0.0819  0.0468  0.1020
19801W        W38655   7.384  15.653  15.878 -0.3317  0.2001 -0.1987
19802W        W38656  10.206  16.362  13.268  0.0565  0.1988 -0.0832
19803W        W38657   7.303   7.437   0.018 -0.0957  0.0415  0.3052
19804W        W38658   9.491   3.314  17.308  0.0983 -0.0594  0.3338
19805W        W38659   8.226   2.617  12.293 -0.1170 -0.0765 -0.0606
19806W        W38660   6.919   9.486  16.782 -0.1017 -0.0075  0.1429
19807W        W38661   5.706   5.923  12.204  0.3439 -0.4528  0.0630
19808W        W38662  11.306   9.994   2.320  0.0125 -0.1681  0.0328
19809W        W38663   5.207   1.083  16.475 -0.1268 -0.2151  0.2421
19810W        W38664  13.880   1.168  15.762  0.0235  0.1563  0.0498
19811W        W38665   2.064   6.062  14.983  0.3143  0.0944  0.2406
19812W        W38666   0.385  13.048  17.110  0.1756  0.2202 -0.2470
19813W        W38667   0.948   4.051  13.179 -0.2878 -0.1683  0.2097
19814W        W38668  10.844  12.160   0.551 -0.2089 -0.3107 -0.1320
19815W        W38669   5.149   3.103   0.560 -0.3181 -0.1788  0.2318
19816W        W38670   8.486  13.555   4.793 -0.0734 -0.3925 -0.0114
19817W        W38671  10.026   3.315   1.978 -0.0463 -0.2932 -0.0778
19818W        W38672   1.803   1.832  13.568 -0.2251 -0.0430 -0.0508
19819W        W38673  14.874  15.722   4.077 -0.1717 -0.2221 -0.3120
19820W        W38674   9.734   9.160   3.715  0.1799  0.1195 -0.4334
19821W        W38675  10.563  15.251  17.298 -0.0687 -0.0940  0.1135
19822W        W38676  11.202   9.996   3.268  0.0725  0.2614 -0.1017
19823W        W38677   7.214   0.676  14.315 -0.4563 -0.0851 -0.2972
19824W        W38678  12.243   4.131   2.782 -0.0815 -0.1678  0.2586
19825W        W38679  10.461   2.935  14.882  0.2170  0.0689  0.0071
19826W        W38680  10.037   6.761   4.380  0.2600  0.3157  0.1341
19827W        W38681  15.074  13.760   2.315  0.3553  0.2114  0.0031
19828W        W38682   1.821   9.722   4.458  0.1614  0.3204  0.1581
19829W        W38683  13.957   8.693   1.555  0.1952 -0.0373 -0.1235
19830W        W38684  14.684   5.321  13.642  0.2136  0.1040 -0.2332
19831W        W38685  11.264   5.473   4.393 -0.1466  0.0223  0.0416
19832W        W38686   0.211  15.360  15.333  0.1897 -0.1243 -0.0835
19833W        W38687   8.057   7.687  16.667  0.1676  0.0224  0.3384
19834W        W38688   6.113   1.630   0.542 -0.0959  0.1545 -0.2369
19835W        W38689  12.731   0.944   5.144 -0.0913  0.1029 -0.2771
19836W        W38690  17.307   4.778   2.727  0.0697  0.1768 -0.0170
19837W        W38691   7.213   9.771   5.116 -0.3494  0.0872  0.1731
19838W        W38692   2.367   2.079  15.585 -0.1355 -0.2354 -0.0747
19839W        W38693   7.877   5.814  15.079  0.2122  0.0135  0.2835
19840W        W38694   9.512  10.269   0.056  0.0849  0.1422  0.0484
19841W        W38695  13.279  11.849   2.054 -0.1348  0.1305  0.1427
19842W        W38696  12.324   7.929  13.481  0.0054 -0.2376 -0.3128
19843W        W38697  14.725  16.641  16.253  0.0780  0.0587 -0.1888
19844W        W38698   6.586   4.534  15.380  0.4034  0.2470  0.0589
19845W        W38699   4.296   3.868   2.941 -0.1269  0.2211 -0.3053
19846W        W38700  16.679  11.524  13.804 -0.2485  0.0136 -0.0120
19847W        W38701   2.810   5.634  17.189  0.3941  0.4096 -0.0618
19848W        W38702   6.227  11.328  14.411 -0.1648 -0.0720 -0.3080
19849W        W38703   0.698  16.678   3.668  0.2400 -0.0159  0.0270
19850W        W38704   1.922   7.555   2.338 -0.1408 -0.0798 -0.2095
19851W        W38705   7.134   4.488  14.666  0.2170  0.1106 -0.2281
19852W        W38706  15.263  17.294   1.947 -0.3633 -0.0841 -0.0403
19853W        W38707   2.069  14.852  17.349  0.1955 -0.1699 -0.0897
19854W        W38708  16.046   3.784  16.653  0.0615  0.0213  0.2116
19855W        W38709  14.895   8.544  12.908  0.2123  0.1363 -0.0615
19856W        W38710  12.547   7.578  13.804 -0.1032  0.0048 -0.1731
19857W        W38711   7.368   5.288   1.652 -0.2574 -0.2886 -0.1914
19858W        W38712   3.081   1.674  13.254  0.0431 -0.1100  0.0022
19859W        W38713   9.657   1.316   4.418 -0.2846 -0.0185  0.1002
19860W        W38714  12.145   5.516  14.793  0.1222  0.1713  0.3015
19861W        W38715   8.967  16.436   1.342 -0.3267  0.0088 -0.2196
19862W        W38716  11.385  15.051   5.159 -0.3958  0.0018  0.0612
19863W        W38717  13.863   6.689  13.090 -0.3513 -0.1352  0.0733
19864W        W38718  15.874   9.133   2.531 -0.2514  0.0944 -0.0629
19865W        W38719   7.296   6.386  12.373 -0.1344 -0.2086 -0.0976
19866W        W38720  13.322   2.227  14.080  0.0153  0.1269 -0.0616
19867W        W38721  15.961   0.603   0.396  0.0241 -0.1623  0.0440
19868W        W38722  10.950   7.475  14.097  0.4397  0.3834  0.1036
19869W        W38723   8.971  13.818  15.932 -0.0833 -0.2836  0.0796
19870W        W38724   2.046   3.197  16.212  0.1076  0.0071 -0.2002
19871W        W38725   7.567   0.006   0.245  0.1144  0.0625  0.1397
19872W        W38726   6.484   4.347   3.442  0.1026  0.2469  0.0808
19873W        W38727  14.400   4.608   2.521  0.0383 -0.2801  0.1399
19874W        W38728   2.475   0.487   3.184  0.1416  0.1263  0.0864
19875W        W38729   2.523   6.035   0.947  0.1301  0.0629 -0.0889
19876W        W38730  14.532  11.360  15.692  0.2678  0.0293  0.0533
19877W        W38731  14.647   6.825   1.597  0.2410 -0.0583  0.1913
19878W        W38732  13.000  10.575   0.025 -0.0058 -0.1337 -0.2927
19879W        W38733   2.500   0.470   4.728 -0.1800 -0.1658  0.0886
19880W        W38734   4.787   4.032  12.756  0.2910 -0.1427 -0.0936
19881W        W38735   2.798   1.257  13.195 -0.2048 -0.3048  0.2525
19882W        W38736  15.524  15.488   3.398  0.0138 -0.1901 -0.0667
19883W        W38737  12.290  11.885  12.697  0.2100 -0.1307 -0.1630
19884W        W38738   1.958   3.676  16.097 -0.3726  0.0314 -0.3545
19885W        W38739   4.340   2.629  15.078 -0.1080 -0.1770 -0.3104
19886W        W38740  12.899  15.227  12.693  0.1915  0.1728 -0.1366
19887W        W38741  16.903   8.229   0.071 -0.0449 -0.0069  0.1927
19888W        W38742   2.908   7.350  15.084  0.0798 -0.1497 -0.3307
19889W        W38743   3.871   0.575   2.652 -0.2942 -0.0324 -0.1470
19890W        W38744   7.115   4.272  12.210 -0.3002  0.0545  0.0626
19891W        W38745  11.118  13.219  17.174  0.0634 -0.1627  0.3057
19892W        W38746  17.241   3.776   0.885  0.0720 -0.4483 -0.1079
19893W        W38747  15.085   7.126  15.160 -0.3466  0.0485 -0.1249
19894W        W38748   4.861   5.906  15.315  0.2374 -0.0077 -0.0045
19895W        W38749   6.413   5.066   3.026 -0.0383  0.1946  0.1280
19896W        W38750   7.192   1.814   1.681 -0.4327  0.0799  0.0841
19897W        W38751  13.744   9.849   1.112  0.0415  0.4167  0.0465
19898W        W38752  15.253   5.011   3.977  0.1450 -0.2738  0.3084
19899W        W38753  13.695  14.846   0.154  0.1076  0.1645 -0.1527
19900W        W38754   2.299  11.747   1.556  0.1814 -0.2206 -0.0958
19901W        W38755   7.391  14.831   1.848  0.2169  0.2137  0.1163
19902W        W38756   2.509  16.067   0.320  0.0662 -0.1403 -0.0086
19903W        W38757  15.493   7.272  15.428 -0.0482 -0.0733 -0.1759
19904W        W38758   9.665  10.922   2.090 -0.1912 -0.0602  0.0458
19905W        W38759  16.284   3.323  17.359 -0.1536  0.0842 -0.0462
19906W        W38760   9.013   9.838   2.900  0.1346  0.2357 -0.0106
19907W        W38761  15.270   4.611  16.882 -0.1969  0.1619 -0.2343
19908W        W38762  12.653   9.905  15.746  0.1107  0.0404 -0.2998
19909W        W38763  11.673   5.416   5.618  0.1094 -0.0241 -0.1460
19910W        W38764   0.814  14.534  15.809 -0.1291  0.1164  0.0386
19911W        W38765  16.148  14.716  16.705 -0.0779 -0.1323 -0.1127
19912W        W38766   2.893  11.816   4.046 -0.1637 -0.0384 -0.0406
19913W        W38767   5.618   0.569   4.640  0.2627  0.2861  0.1055
19914W        W38768   0.382   3.395  13.894 -0.1470 -0.1356  0.1894
19915W        W38769   7.188   9.912   0.969 -0.2064  0.0480  0.0218
19916W        W38770   3.855  14.449   1.575 -0.0193  0.4717  0.1342
19917W        W38771   3.684  10.501   1.571  0.1588 -0.3416 -0.0923
19918W        W38772   5.845  14.655  13.946 -0.0598  0.1779 -0.2322
19919W        W38773  10.308   8.037   2.053  0.1883  0.1709  0.1040
19920W        W38774   9.960   8.138   1.596 -0.0070 -0.1546 -0.2648
19921W        W38775  10.453  14.538   1.286 -0.1699 -0.2065 -0.1263
19922W        W38776   3.634   0.399   3.652 -0.1241 -0.0383  0.0510
19923W        W38777   6.594   2.439  14.821  0.0917  0.0351 -0.2237
19924W        W38778  12.313   7.687  13.044 -0.0599 -0.0247 -0.1014
19925W        W38779   5.947   0.672  17.250 -0.0922 -0.0354  0.0783
19926W        W38780   3.147  17.245  17.203  0.1943  0.2439 -0.1008
19927W        W38781  17.260   5.424  16.442  0.1585  0.1733  0.0288
19928W        W38782   4.610  11.223  14.449  0.0348  0.0713  0.0744
19929W        W38783  13.446   3.821   3.379  0.0657 -0.0035 -0.1357
19930W        W38784  12.909  13.578   1.082  0.3001 -0.1469  0.3871
19931W        W38785  13.062   7.183   1.239 -0.0506  0.0438  0.0492
19932W        W38786  15.689   6.264   5.197 -0.1179 -0.1800 -0.0656
19933W        W38787  14.927   6.366   1.926 -0.2970 -0.1338 -0.0332
19934W        W38788  11.160   1.465   6.243  0.1350 -0.1682 -0.1010
19935W        W38789  11.429   6.592  13.743  0.2931  0.0320 -0.3014
19936W        W38790   9.583   7.636  14.907 -0.2045 -0.2123 -0.1814
19937W        W38791  16.229  10.135   0.025  0.1891  0.0093  0.1043
19938W        W38792   7.353   4.321  13.098  0.0762 -0.1570  0.1817
19939W        W38793   9.520   8.525   3.013 -0.0018  0.0053 -0.0608
19940W        W38794   7.219  11.843   4.371 -0.0255  0.0765 -0.0028
19941W        W38795  11.838  12.155   3.637  0.1352 -0.3019  0.2261
19942W        W38796   7.583  15.595  12.988  0.0197  0.0596  0.1257
19943W        W38797   7.447   4.910   1.289  0.1596  0.1745 -0.0078
19944W        W38798   2.634  16.323  17.304 -0.1068  0.2091 -0.1868
19945W        W38799   3.211   8.558  14.770  0.1039  0.1751 -0.1860
19946W        W38800   4.360   7.506   0.704  0.2547  0.1178 -0.1805
19947W        W38801   9.256   1.135  14.775 -0.0798 -0.2990 -0.1912
19948W        W38802   4.659   2.215  13.873  0.0690  0.0901 -0.0111
19949W        W38803  12.640   9.815   3.464  0.3117  0.0663  0.1269
19950W        W38804  13.767  10.543  14.678  0.1608 -0.1492  0.1670
19951W        W38805  15.200   0.333   3.908  0.2347 -0.0560  0.1571
19952W        W38806  10.271   6.411  16.631  0.1764 -0.1607 -0.0508
19953W        W38807  11.281  16.639  15.187  0.1978  0.2951  0.1562
19954W        W38808   1.944   6.470   5.108 -0.2115  0.1345 -0.0155
19955W        W38809   7.813   4.185  14.253  0.1876 -0.1109 -0.1922
19956W        W38810  12.860  13.613  13.438  0.0430  0.0054  0.1219
19957W        W38811   8.307   1.447  12.559 -0.3576 -0.0160  0.1200
19958W        W38812  14.093  12.280  14.025 -0.0499 -0.1989  0.1548
19959W        W38813  16.072   7.123   0.562 -0.2265  0.1839 -0.4614
19960W        W38814  10.975   3.126  15.112 -0.0743 -0.3454 -0.2668
19961W        W38815  10.903   8.289   3.809  0.3745  0.0214 -0.2519
19962W        W38816   4.975  15.384  13.312 -0.3382  0.1779  0.1533
19963W        W38817  16.534  15.939   4.692  0.1039 -0.0983  0.0285
19964W        W38818  16.606  10.250   1.949  0.0573  0.0021  0.0264
19965W        W38819  13.581   4.291   2.391 -0.0273  0.0713  0.3528
19966W        W38820   9.594   3.113  12.246  0.0948 -0.3981 -0.0176
19967W        W38821   1.559  10.221   5.228  0.1877  0.0875  0.2708
19968W        W38822   3.551  16.856  16.552  0.0090  0.1212 -0.2041
19969W        W38823   5.268   0.540   0.393 -0.0148  0.4495 -0.0627
19970W        W38824   5.143   7.538  16.218 -0.1352  0.0883 -0.2927
19971W        W38825  16.029   2.401   2.897 -0.2323  0.1700  0.1961
19972W        W38826   3.532   6.956  16.738  0.0674  0.1965 -0.0841
19973W        W38827  11.213   2.416   3.312  0.2449 -0.1898  0.1251
19974W        W38828   4.655   3.645   1.644 -0.0380 -0.2705  0.1197
19975W        W38829  12.554   9.701  13.920  0.1215  0.0561 -0.1549
19976W        W38830   9.662  11.362  13.822  0.1153  0.0608 -0.2854
19977W        W38831  11.875   4.960   0.768 -0.0452 -0.0563  0.2727
19978W        W38832   3.210  16.190   2.060 -0.0781 -0.0947 -0.0390
19979W        W38833   0.652   3.616   5.659 -0.0938  0.0657  0.1260
19980W        W38834   2.246  10.773  12.458 -0.0039 -0.3683 -0.0929
19981W        W38835   2.176  10.372  15.143 -0.1792  0.1536  0.0273
19982W        W38836   2.593   2.435   1.850  0.0132 -0.0835  0.0493
19983W        W38837  10.022   0.057  12.432  0.1827 -0.1421  0.0122
19984W        W38838  13.510  12.631   3.632 -0.1223 -0.2245 -0.1707
19985W        W38839  11.901   4.677  14.318 -0.3664  0.0566 -0.1443
19986W        W38840   3.329  13.652  13.373  0.0427  0.1193 -0.2544
19987W        W38841   1.810  16.520   5.256 -0.0895 -0.2505 -0.0248
19988W        W38842   6.322  16.217  15.402  0.1871 -0.2697 -0.1031
19989W        W38843  14.596  11.457  14.087 -0.1163  0.4677 -0.1227
19990W        W38844   9.389   6.158   0.135  0.0221 -0.2786 -0.3604
19991W        W38845  17.133   5.810   4.513  0.0015 -0.0912  0.0240
19992W        W38846   6.239   8.034   4.652  0.2649 -0.2662 -0.0915
19993W        W38847   6.849   6.290  14.994 -0.0823  0.3485 -0.1846
19994W        W38848  10.504   2.063  14.123 -0.1398  0.1674  0.0148
19995W        W38849  10.791  12.805   1.926  0.4231  0.1537  0.0345
19996W        W38850   9.368  11.397  15.007  0.0723  0.1606 -0.2757
19997W        W38851  12.964  14.313  12.588  0.0842 -0.1072  0.0631
19998W        W38852   0.584   3.643  15.976 -0.1815 -0.2713  0.0209
19999W        W38853   0.825   1.132  15.299  0.1862  0.2492  0.0888
20000W        W38854   7.394   8.932  15.979  0.2621 -0.0776 -0.0008
20001W        W38855  15.140  13.461   1.472  0.0826  0.2909  0.1569
20002W        W38856   5.695   1.043  16.589 -0.0011  0.4344 -0.0307
20003W        W38857   2.883  16.154   3.854  0.1611 -0.0444  0.1951
20004W        W38858   8.387  13.344   1.753 -0.2759  0.0983  0.1744
20005W        W38859   3.160  16.759   2.210 -0.3698  0.1290  0.0594
20006W        W38860  15.524   4.701   3.066  0.0769  0.0693  0.0172
20007W        W38861   5.781  10.548  14.766  0.0966  0.0520  0.2209
20008W        W38862   6.695   5.238   2.515 -0.2556 -0.2877  0.0085
20009W        W38863   3.009   7.332   1.024 -0.1174  0.1199 -0.1065
20010W        W38864   4.927  11.899  15.962  0.1699 -0.0243  0.0751
20011W        W38865   2.194   0.113   0.308 -0.2035  0.0750 -0.2197
20012W        W38866  15.867  15.871   3.251 -0.1428 -0.0029 -0.1081
20013W        W38867   8.532  17.070   3.447 -0.2463 -0.1229 -0.1417
20014W        W38868   5.304   4.576  14.715 -0.1621 -0.1891 -0.1127
20015W        W38869  14.829   3.079   5.636  0.4208  0.0575  0.4682
20016W        W38870   2.961  16.517  14.577  0.0019 -0.0945  0.0878
20017W        W38871   2.000   5.692   0.572  0.0169  0.1041  0.0722
20018W        W38872  13.681  10.570   2.952  0.1628 -0.0777  0.2314
20019W        W38873  11.157   0.375  14.604 -0.0483  0.1541  0.0642
20020W        W38874   3.367   9.535  12.886 -0.3691  0.1334  0.2517
20021W        W38875   1.742  17.282  14.306 -0.0689  0.2475  0.0474
20022W        W38876  11.829   1.317   1.991 -0.1016 -0.1522 -0.0883
20023W        W38877   8.141   7.173  15.939  0.0777 -0.0959 -0.0666
20024W        W38878   7.341  13.133   4.813 -0.1544  0.0492 -0.2037
20025W        W38879   0.440  10.295  13.915 -0.2779  0.1096  0.2497
20026W        W38880   4.288   0.860   2.367  0.2355  0.2982  0.1149
20027W        W38881  14.492  14.712   1.793  0.2716  0.0237 -0.0282
20028W        W38882   8.874   0.286  16.217  0.0791  0.0498 -0.1174
20029W        W38883  15.942   8.735  12.867  0.1121 -0.0203  0.0978
20030W        W38884  12.846   6.909   5.266 -0.1140 -0.2038  0.2729
20031W        W38885  14.177  11.235  15.121 -0.0103 -0.1243 -0.0165
20032W        W38886  16.835  16.446  13.295 -0.0064 -0.0833 -0.3381
20033W        W38887   8.550  12.931   3.044  0.0386 -0.1159 -0.0103
20034W        W38888   2.725   7.608   2.673 -0.0232  0.1432 -0.0618
20035W        W38889   7.944   8.368   0.925 -0.1626 -0.2455  0.2315
20036W        W38890   8.358   5.448  15.259 -0.3895  0.0705 -0.2394
20037W        W38891   0.916  10.767   4.426  0.0117  0.2659  0.0414
20038W        W38892  13.271   3.817  12.587  0.0018  0.0769  0.1143
20039W        W38893   6.366   3.008  14.222 -0.0259 -0.2281 -0.0645
20040W        W38894   8.097   0.254   3.807 -0.0199 -0.1096  0.0447
20041W        W38895   6.589  14.699   2.157 -0.0281 -0.1642  0.2022
20042W        W38896   5.033  13.944   2.969  0.2743  0.2454  0.1497
20043W        W38897   7.283   5.678  15.203 -0.1289  0.0257 -0.0883
20044W        W38898   2.265   2.491   4.857 -0.0502  0.0570 -0.0196
20045W        W38899   2.734   3.358   3.953  0.0460 -0.0882 -0.0518
20046W        W38900   3.876  11.817  12.438  0.0119  0.0425 -0.0139
20047W        W38901  11.084   4.229  15.175  0.2322 -0.1420  0.0922
20048W        W38902  13.942  16.816   1.737 -0.1937  0.1648 -0.3111
20049W        W38903   3.135   7.709  14.352  0.3793 -0.1099 -0.0853
20050W        W38904   8.377  12.109  15.723  0.0787  0.1905 -0.1581
20051W        W38905   1.030   2.477  15.139 -0.0453 -0.1639  0.1006
20052W        W38906   5.230   6.301   0.744  0.1552 -0.0881  0.1430
20053W        W38907   9.479   5.666  16.659  0.1705 -0.0748 -0.0756
20054W        W38908  16.676  15.428  17.422 -0.0501  0.3135  0.3190
20055W        W38909  15.441  14.316  15.966 -0.0173  0.0460 -0.0940
20056W        W38910  16.671  13.397   0.437  0.1051  0.0417  0.1385
20057W        W38911  14.685   5.662   1.850  0.0688  0.1762 -0.2654
20058W        W38912  10.439   1.779  15.486  0.3585  0.0332 -0.0345
20059W        W38913  13.081  13.639   4.686  0.2464 -0.1913 -0.0402
20060W        W38914   9.228   5.403   1.003 -0.0278  0.0070  0.2986
20061W        W38915  13.152  12.713   1.574  0.2188 -0.2270  0.2090
20062W        W38916   6.622   1.401   3.352  0.1042 -0.0909 -0.1400
20063W        W38917   7.665   4.884   4.010 -0.0298 -0.2948 -0.0360
20064W        W38918   4.267   3.673   0.629 -0.1808  0.1692  0.4756
20065W        W38919  10.877   0.660  13.341  0.0155  0.1451  0.0351
20066W        W38920  15.545  10.947   2.673 -0.0398 -0.2782  0.2032
20067W        W38921  14.226   0.944   1.487  0.0594 -0.0995 -0.1367
20068W        W38922   1.293   5.051   0.379  0.0360 -0.0305  0.2679
20069W        W38923  16.776  15.856  14.937  0.0773  0.1355 -0.1921
20070W        W38924  13.558   9.501  13.640  0.0454 -0.1836 -0.1209
20071W        W38925  13.893  10.801   1.094  0.0869  0.0554  0.1205
20072W        W38926   0.994  13.675  12.985  0.0013 -0.1381 -0.2251
20073W        W38927   1.033  11.660   0.528 -0.3804  0.0798 -0.0533
20074W        W38928   5.812   9.584   5.194  0.1886 -0.2825  0.1639
20075W        W38929   7.293   7.664  12.685  0.2562 -0.0113  0.2457
20076W        W38930  14.707   9.895  15.163 -0.0059 -0.0777 -0.1645
20077W        W38931  12.127  13.490   6.214  0.0508  0.2180 -0.2309
20078W        W38932  14.663   8.656   4.567 -0.1796  0.1984  0.0554
20079W        W38933   6.787  12.505  17.474 -0.1170 -0.2559 -0.1354
20080W        W38934   7.043  16.652  15.567 -0.0079  0.3175  0.1502
20081W        W38935  13.623  16.726   0.197 -0.0117 -0.0591  0.1644
20082W        W38936   4.126  10.282   1.474  0.0094  0.3648  0.1559
20083W        W38937   7.300  12.438  15.285 -0.0354 -0.1750  0.3132
20084W        W38938   2.572  15.234   0.585  0.0960 -0.2906 -0.0720
20085W        W38939  17.045   2.107   1.658  0.0076 -0.2354 -0.3103
20086W        W38940  11.697   4.312  15.156 -0.1355 -0.5027 -0.2807
20087W        W38941   9.546   5.327  16.303 -0.1341 -0.2517 -0.4754
20088W        W38942  11.495   4.446  16.067 -0.1682  0.1218 -0.0562
20089W        W38943   2.629   7.899  13.769 -0.0659  0.0749  0.2193
20090W        W38944  13.606  16.566   1.385 -0.1763  0.2100  0.0896
20091W        W38945   3.962   5.484  15.240  0.1004  0.0486  0.0863
20092W        W38946   7.994   0.215  16.897 -0.0184 -0.1919 -0.1440
20093W        W38947   0.001   8.103   0.606 -0.1757 -0.0881  0.3149
20094W        W38948   3.140  13.335   2.762 -0.1956  0.2173  0.0046
20095W        W38949  11.057  13.262   1.615  0.2235  0.1466 -0.2647
20096W        W38950   2.607   2.308   3.538 -0.0320  0.1759  0.2779
20097W        W38951   1.266   0.476  15.442  0.0536 -0.2049  0.0423
20098W        W38952   7.696  14.065  14.201 -0.1103 -0.0716  0.3948
20099W        W38953   1.498   3.296  13.119  0.1919  0.2493  0.0454
20100W        W38954   3.018  14.602   4.798  0.1853 -0.0276  0.2026
20101W        W38955  14.340  13.990  12.607  0.1224  0.1522 -0.1191
20102W        W38956  16.082   2.459   3.499 -0.2554 -0.0423  0.3269
20103W        W38957   3.219   1.332  13.633  0.0522  0.1705  0.3642
20104W        W38958   3.713   7.612   2.393 -0.2100  0.2584 -0.2101
20105W        W38959   5.757  12.943  17.385  0.0226 -0.1272 -0.1874
20106W        W38960   1.277   9.040   4.923 -0.0458  0.0575 -0.1057
20107W        W38961   8.011   1.208  16.114 -0.1010  0.0758 -0.1304
20108W        W38962   9.862   0.655  14.214 -0.2461  0.2005  0.0184
20109W        W38963   7.799  16.498  14.336  0.1063  0.2495 -0.1448
20110W        W38964   6.837  17.097  17.236  0.2096 -0.1866  0.0656
20111W        W38965  16.689  11.999   0.360 -0.0552  0.0743  0.3098
20112W        W38966   8.560   2.422  13.038 -0.0698 -0.1127  0.0520
20113W        W38967  14.843  12.432  16.704 -0.1738  0.0078 -0.1961
20114W        W38968   4.483  13.628   4.216 -0.0671  0.1064  0.0839
20115W        W38969  14.974   0.360  15.642 -0.1970 -0.2020  0.1359
20116W        W38970  12.876  17.234  16.198  0.2046 -0.0760 -0.0157
20117W        W38971  12.545  13.338   1.316  0.3073 -0.1939 -0.1538
20118W        W38972   9.392   7.666   5.084 -0.1192 -0.0011 -0.3333
20119W        W38973  15.328   8.513  16.882  0.0605  0.1165 -0.0018
20120W        W38974  12.059  12.973   4.179  0.0618  0.1340  0.3141
20121W        W38975   2.923  16.992   2.814 -0.0821  0.0882 -0.1307
20122W        W38976   0.100   0.276  14.411  0.1260  0.1748  0.1146
20123W        W38977   1.123   2.549  13.565  0.0954 -0.0783  0.0882
20124W        W38978   3.399  17.086   0.614 -0.0738  0.1957  0.1118
20125W        W38979  16.390  17.216   0.975 -0.3596 -0.3334  0.1180
20126W        W38980  12.031  16.200  12.361 -0.0683  0.0609  0.0146
20127W        W38981   5.539   9.005   3.006 -0.0303 -0.1874  0.3155
20128W        W38982   7.024   8.331  17.418 -0.0982 -0.0320  0.1330
20129W        W38983  11.660  17.206   1.041 -0.2485 -0.0345 -0.0177
20130W        W38984  10.756   3.976   4.105 -0.0151  0.0391 -0.0885
20131W        W38985  13.207  11.103   1.668  0.1133  0.2721  0.0431
20132W        W38986   9.350   0.257  14.644 -0.1603  0.3279 -0.2305
20133W        W38987   3.529   0.983  14.843 -0.0557 -0.0737  0.3044
20134W        W38988   6.309   6.278   0.128  0.1073  0.0289  0.0531
20135W        W38989   8.682  10.929   0.937 -0.1946  0.3141 -0.0610
20136W        W38990   8.052   1.221  12.169 -0.1370 -0.0322 -0.3140
20137W        W38991  14.698   3.728  15.759  0.2994 -0.0376 -0.1361
20138W        W38992   9.133  12.765  13.000  0.1043 -0.0531  0.1133
20139W        W38993   2.958   0.980  12.797  0.0246 -0.0035 -0.1299
20140W        W38994  12.835  14.288  16.981  0.1660  0.0115 -0.0854
20141W        W38995   2.287  16.842  17.374 -0.0383 -0.0144  0.1587
20142W        W38996  10.440  14.101  15.224 -0.1563 -0.2945  0.1937
20143W        W38997  12.334  12.926  12.993  0.1086  0.1136  0.1658
20144W        W38998   6.551  11.694  12.337  0.0222  0.0160  0.0661
20145W        W38999   6.168  14.834   3.977 -0.0281 -0.1113  0.0957
20146W        W39000  11.272  11.094  16.980  0.0973  0.0422 -0.1067
20147W        W39001  16.184   6.247  15.206 -0.0037 -0.0413 -0.0487
20148W        W39002   7.788   2.372  12.333  0.5273  0.1864 -0.1095
20149W        W39003  13.184  13.549   5.658  0.0069  0.1703  0.2213
20150W        W39004  10.352  12.629   2.103 -0.1424 -0.0777  0.1523
20151W        W39005  10.291   3.732  14.592  0.1884  0.0316 -0.0856
20152W        W39006   6.058   4.892  14.430  0.0724  0.0500 -0.4277
20153W        W39007   0.053  11.453  13.791 -0.2670 -0.0675  0.1719
20154W        W39008   5.233   2.682   4.100 -0.2008 -0.0629 -0.2629
20155W        W39009   8.133  14.580  13.172  0.1066 -0.0196  0.1885
20156W        W39010  14.392   8.806   2.293 -0.0994 -0.2142 -0.1204
20157W        W39011  14.051   6.248  14.476  0.3693  0.0404 -0.0741
20158W        W39012   5.165   1.117   1.828 -0.2056  0.2825 -0.2214
20159W        W39013  13.307  14.512  16.994 -0.0561 -0.1716 -0.1177
20160W        W39014   6.779  11.944  16.776  0.2458  0.0992 -0.5094
20161W        W39015  12.478  17.248   5.059  0.1846 -0.1745  0.3459
20162W        W39016  11.205  17.072  17.416 -0.1449  0.1624  0.2410
20163W        W39017   6.732   2.689  16.181  0.0121 -0.2579 -0.1194
20164W        W39018   4.815   5.150  15.269  0.0540 -0.2898  0.0510
20165W        W39019  12.166   9.376   0.071  0.2657  0.2070  0.1644
20166W        W39020  11.147   3.569  14.148 -0.0457  0.1751  0.2254
20167W        W39021  13.467   3.705  14.531  0.3365  0.0915 -0.1374
20168W        W39022   3.188   9.109   1.017  0.3261 -0.1519 -0.0320
20169W        W39023   0.109  16.913   1.941  0.0446  0.1138  0.0397
20170W        W39024  11.181   4.830  17.353 -0.2007  0.2494  0.0426
20171W        W39025  15.008  10.714   3.569  0.0246 -0.0374  0.1109
20172W        W39026   0.255   5.738  12.622 -0.0294  0.4449  0.3625
20173W        W39027   3.364   7.974   0.052 -0.0570 -0.0747  0.2610
20174W        W39028  13.678   9.462  14.550 -0.0465 -0.1283 -0.2486
20175W        W39029  13.760  16.497  13.881 -0.0525 -0.0840 -0.1111
20176W        W39030  12.455   2.109   1.932 -0.0746 -0.0701 -0.0964
20177W        W39031   7.921   1.576   3.844  0.2769 -0.1334 -0.0723
20178W        W39032   0.078  13.375  17.203  0.0426  0.1466 -0.3972
20179W        W39033  16.831  13.127  12.937 -0.0547  0.0119  0.0338
20180W        W39034   8.176  11.933  14.932 -0.0351 -0.3324  0.0184
20181W        W39035   9.233  13.221  15.112  0.1658  0.1803  0.0023
20182W        W39036   9.916  17.079   5.081 -0.0302  0.3153  0.0457
20183W        W39037   0.279  10.375   3.715 -0.1557  0.4356 -0.0045
20184W        W39038  12.918  16.499  14.200 -0.0164 -0.1165  0.1408
20185W        W39039   0.960  11.028   3.454 -0.0013 -0.1308  0.1176
20186W        W39040   5.317   7.681  16.658 -0.1604 -0.0064  0.2592
20187W        W39041  17.044   5.935  13.078 -0.2142  0.2179  0.0380
20188W        W39042   9.544  13.859   3.371  0.0900  0.1765  0.0170
20189W        W39043   0.636   3.391   5.186 -0.0146  0.1784 -0.2157
20190W        W39044   2.993  13.911   1.336  0.3639  0.0502 -0.0662
20191W        W39045   1.167   8.199   5.249  0.1281 -0.1732 -0.0169
20192W        W39046  11.109  13.438  13.743 -0.2101  0.1474 -0.1625
20193W        W39047   8.505  14.501   3.681 -0.0466  0.2810 -0.0872
20194W        W39048   3.598   2.269  13.919 -0.0225  0.0484  0.1085
20195W        W39049   8.381   4.791  12.310 -0.0324  0.1254  0.5779
20196W        W39050  11.552   4.829  14.583  0.1695 -0.1463  0.2438
20197W        W39051   1.989  16.045  16.611  0.0826  0.0633  0.2028
20198W        W39052   3.510   8.229  13.820 -0.3381 -0.0535  0.0060
20199W        W39053   5.248   8.351  14.246 -0.0655 -0.1119 -0.0545
20200W        W39054   3.602  16.991   1.115 -0.2446  0.1850 -0.0104
20201W        W39055   6.172  13.767   0.790  0.2260  0.1157 -0.1188
20202W        W39056   9.778  12.347  16.630  0.1541 -0.2679  0.1462
20203W        W39057  12.025   1.110   3.334 -0.0897  0.3376 -0.2530
20204W        W39058   4.689   8.166  13.193 -0.0113 -0.0194 -0.5451
20205W        W39059  13.487   0.093   2.611  0.0187 -0.0241  0.1848
20206W        W39060   7.936  14.131   4.219  0.1963 -0.0123 -0.1928
20207W        W39061  16.623   9.216  13.212 -0.1774 -0.1318 -0.0621
20208W        W39062   1.295   2.671  11.980 -0.1751 -0.2656 -0.0124
20209W        W39063  13.745   5.186   3.627  0.0640 -0.2328  0.0477
20210W        W39064   6.709  14.726   1.265  0.4027  0.0185 -0.2947
20211W        W39065   1.660  12.790  12.951  0.1852 -0.0852  0.3088
20212W        W39066   8.904  12.644  13.883 -0.2228  0.0275  0.2039
20213W        W39067  12.546   5.192   2.374 -0.2740  0.0131 -0.2706
20214W        W39068  10.787   3.592  12.317  0.1149 -0.2501 -0.0148
20215W        W39069   2.810  12.015  13.501 -0.0979 -0.0333 -0.0657
20216W        W39070  16.285  16.197  13.982 -0.3970  0.2375  0.0746
20217W        W39071   3.712  10.620  14.980  0.1390 -0.1020 -0.0104
20218W        W39072  16.274   1.086   5.274 -0.0050 -0.2799  0.2194
20219W        W39073  11.920   6.245   2.031  0.0135  0.0918 -0.1299
20220W        W39074   0.557  16.191   1.547 -0.1677 -0.1022  0.1573
20221W        W39075   8.196   9.120   4.008  0.0052  0.1916 -0.0511
20222W        W39076   5.128  13.510   5.121 -0.0727 -0.0232 -0.1264
20223W        W39077  10.232  16.100   3.738 -0.1044 -0.1487 -0.1118
20224W        W39078   6.821   9.623  14.472  0.0251 -0.1510 -0.1829
20225W        W39079   4.395   3.938   4.271  0.0765  0.1201  0.0928
20226W        W39080   6.550   9.067  13.924 -0.1419  0.0366  0.0184
20227W        W39081   4.932   2.250   3.651  0.0285 -0.2305 -0.0429
20228W        W39082   0.363   2.850   3.154  0.0160  0.1774 -0.1348
20229W        W39083   1.173  16.437   3.650  0.1380 -0.1972 -0.1675
20230W        W39084   6.839   1.230  15.631 -0.0652  0.1994  0.2323
20231W        W39085   5.715  11.920  16.507 -0.0058 -0.1308  0.2366
20232W        W39086  13.481  13.554  14.474  0.0501  0.2841 -0.0582
20233W        W39087   6.087  10.430   3.740  0.0711 -0.1673 -0.0358
20234W        W39088   3.184   3.606   2.049 -0.2665  0.2454  0.0574
20235W        W39089   8.298   3.763  14.085 -0.0872  0.2202  0.0917
20236W        W39090  15.171  10.145  15.095  0.1435 -0.2515 -0.0655
20237W        W39091   9.684  12.758  16.162 -0.1559 -0.0429 -0.1253
20238W        W39092   0.558   5.422  14.369  0.2898  0.1987  0.0107
20239W        W39093   3.046  13.753   4.835 -0.2696  0.1381 -0.2065
20240W        W39094  15.515  10.721   1.537 -0.1147 -0.2252 -0.1207
20241W        W39095   8.560  10.790  16.916 -0.0077 -0.0817 -0.1602
20242W        W39096   2.736   6.319  12.463 -0.1991  0.2337 -0.3906
20243W        W39097   5.176   4.152  16.822  0.0252 -0.0240 -0.0019
20244W        W39098  14.065   6.917  13.604  0.2552 -0.2399 -0.1522
20245W        W39099   6.801  16.384  13.212  0.1747 -0.1247 -0.1305
20246W        W39100  14.750  12.797  17.207 -0.1583  0.2555 -0.0344
20247W        W39101  17.120   1.244  15.489  0.0222  0.0587 -0.1568
20248W        W39102   1.185   4.449   3.606 -0.0188  0.0526  0.0153
20249W        W39103  13.456  16.953  14.012  0.1894 -0.0903 -0.2057
20250W        W39104   0.675   2.296   1.771  0.0152  0.0106  0.3352
20251W        W39105   0.618   4.212  16.849 -0.0287 -0.0502 -0.0866
20252W        W39106  14.682  12.150  12.998  0.1856 -0.1222 -0.2810
20253W        W39107   4.501   6.024  16.271 -0.3176 -0.1748 -0.0067
20254W        W39108  14.489  13.648  15.115  0.1464  0.1204 -0.0973
20255W        W39109  10.217  15.454   0.897 -0.1579  0.0536 -0.0640
20256W        W39110   3.880  13.855  15.579  0.3657  0.0937  0.0184
20257W        W39111   0.034   4.752   4.263 -0.0400 -0.2209 -0.1093
20258W        W39112   7.413  11.818  13.418 -0.1994 -0.1433 -0.1474
20259W        W39113   1.572   4.266   1.056  0.0329  0.0387 -0.3433
20260W        W39114  16.309   6.834  17.079 -0.0657  0.0810 -0.0134
20261W        W39115  16.135   7.695   1.930  0.3014  0.0379  0.0663
20262W        W39116  13.303  15.817   4.338 -0.1921 -0.1581 -0.0569
20263W        W39117  14.570   0.640  14.215  0.0644  0.3041 -0.0075
20264W        W39118   8.640  16.149  14.073  0.0499  0.1189 -0.1813
20265W        W39119   9.910   3.092  17.307  0.0994 -0.0446 -0.0031
20266W        W39120   1.885  11.005   4.205  0.0988 -0.0367 -0.1347
20267W        W39121   1.921  15.121  13.114  0.1859 -0.1082  0.0738
20268W        W39122   4.447   0.545   1.890 -0.1499 -0.0577 -0.0725
20269W        W39123   6.770   4.800  17.070 -0.0367 -0.1826  0.0698
20270W        W39124  12.699   8.716   3.978  0.1472 -0.1703  0.3182
20271W        W39125  15.409  11.257  16.296 -0.1147 -0.0572  0.0763
20272W        W39126   4.942   3.052   2.238 -0.0184  0.2235  0.1502
20273W        W39127   8.232  13.632   3.582  0.0853 -0.1224  0.0087
20274W        W39128   4.145   5.837   2.680 -0.3940  0.0984  0.2281
20275W        W39129  13.092  10.116  13.411 -0.3145  0.1724  0.0394
20276W        W39130   1.185   1.212  16.428  0.1412 -0.1149 -0.0469
20277W        W39131   1.695   1.636   1.483 -0.0264 -0.0576  0.0371
20278W        W39132  11.401   0.667  17.246 -0.3275  0.1780  0.1287
20279W        W39133  14.537  10.938  14.969 -0.4095  0.2168 -0.0143
20280W        W39134   2.751  12.972   5.377  0.0038 -0.0979 -0.1054
20281W        W39135   6.377   8.754   4.418  0.0772 -0.0728 -0.1780
20282W        W39136   8.494  13.281  14.940 -0.1354 -0.1143  0.2576
20283W        W39137   6.074   8.593  13.588 -0.0899  0.2834 -0.0076
20284W        W39138  12.956   5.185  12.602  0.0933  0.0422  0.0875
20285W        W39139  12.264  15.181  14.249 -0.0045 -0.1106 -0.1863
20286W        W39140   9.870   5.570  14.330 -0.2226  0.1345  0.0724
20287W        W39141   9.507  14.299  13.730 -0.0609 -0.3601  0.0005
20288W        W39142  11.899   6.178   4.452  0.1935 -0.2709  0.3301
20289W        W39143   8.321   4.929  15.133 -0.0841 -0.1818  0.0458
20290W        W39144  11.143  13.944  13.447  0.1542 -0.1772 -0.2673
20291W        W39145   3.229   7.661  16.058  0.2049  0.0318  0.0969
20292W        W39146   2.921   3.766   2.711 -0.1078 -0.1461  0.1594
20293W        W39147  16.032   1.239  11.639 -0.0624 -0.1722 -0.1560
20294W        W39148  14.933   3.834  16.729 -0.0801  0.0130 -0.2633
20295W        W39149   2.624   3.138  15.314 -0.2304 -0.0002 -0.0949
20296W        W39150  16.074  17.372  15.175  0.1212  0.0883  0.1920
20297W        W39151   5.046   5.672  13.572 -0.3136  0.3117 -0.0907
20298W        W39152   3.610   8.256  13.195 -0.0349  0.3335 -0.2504
20299W        W39153  11.570   2.816  14.684 -0.0852  0.0281  0.1441
20300W        W39154  14.770   4.050   6.217 -0.0158 -0.1506 -0.0682
20301W        W39155   7.515   9.579   1.837 -0.0715  0.3985 -0.1769
20302W        W39156   5.173   1.796  16.979 -0.1141 -0.2147 -0.0662
20303W        W39157   3.856  11.959   5.016 -0.0783 -0.0198  0.0939
20304W        W39158   0.301   3.005  15.569  0.0681  0.0827  0.3373
20305W        W39159  11.157  16.683  14.106 -0.0245  0.2846  0.0593
20306W        W39160   8.364  15.264  14.392 -0.1769  0.1388  0.2138
20307W        W39161   9.566   0.075   1.152 -0.2100 -0.1965  0.2931
20308W        W39162  10.999  15.658  15.456 -0.1646  0.0304 -0.0071
20309W        W39163  16.270  11.177   4.087 -0.2005 -0.0684 -0.2251
20310W        W39164   0.157  12.615   3.765 -0.1438 -0.0991  0.0909
20311W        W39165   7.660  15.204  13.287  0.3166  0.2022  0.1199
20312W        W39166  14.837   7.273   0.846  0.3568  0.1986  0.0015
20313W        W39167  14.760   5.830   2.802  0.3098 -0.2041 -0.1281
20314W        W39168   9.222   4.300   1.885 -0.1273 -0.2271  0.1044
20315W        W39169   4.875  17.271  17.032  0.1207  0.0855  0.1496
20316W        W39170   6.124   3.509  15.919  0.1265 -0.3783 -0.0994
20317W        W39171  11.004  11.063  15.966  0.3132  0.2350 -0.1527
20318W        W39172  17.195  10.461  16.550 -0.2378  0.0681  0.2801
20319W        W39173   4.448  10.576  15.872  0.2512 -0.2419 -0.0978
20320W        W39174   1.579   6.736  16.472  0.2184  0.3529  0.1305
20321W        W39175   8.755   5.040  13.022  0.0143 -0.0805 -0.1395
20322W        W39176   1.851  14.588   3.571  0.0991 -0.3390 -0.0046
20323W        W39177  11.991   1.539   4.255  0.0697  0.1113 -0.2491
20324W        W39178   8.255  15.625  14.075 -0.1805  0.1478 -0.5034
20325W        W39179   2.389  15.405  14.019  0.0424 -0.1106  0.1121
20326W        W39180  15.237  13.826  12.927 -0.0613  0.1265 -0.0445
20327W        W39181   4.040   1.427   3.494 -0.0288 -0.2937  0.0472
20328W        W39182   5.692   0.543   1.337  0.1753 -0.2059 -0.0574
20329W        W39183   5.935   8.044  12.915 -0.1352 -0.3821 -0.1330
20330W        W39184  16.060   2.919   4.320  0.0735  0.1187  0.0249
20331W        W39185  13.397  15.264   2.760 -0.1255  0.1362 -0.0168
20332W        W39186   0.336   1.420   3.269  0.1854  0.2460 -0.0859
20333W        W39187   9.539  10.593  15.336  0.1831  0.2891 -0.0439
20334W        W39188   7.576   7.811   4.573  0.2317 -0.0029 -0.1960
20335W        W39189   9.186   8.559  13.392  0.1603  0.1577  0.0930
20336W        W39190   3.828  15.986  14.060  0.0498 -0.1490  0.0157
20337W        W39191  10.149   2.514   5.133  0.2657  0.2422 -0.0369
20338W        W39192  13.558  11.150   0.819 -0.2313 -0.1024  0.4223
20339W        W39193  14.846   5.432  16.447 -0.0496 -0.0514  0.1214
20340W        W39194  11.263  12.144  15.658 -0.0214 -0.0363 -0.1182
20341W        W39195   0.362   7.553  12.838  0.1853 -0.0550 -0.1028
20342W        W39196   1.148  10.915   0.990  0.1260 -0.0136 -0.3088
20343W        W39197   3.810  13.106  15.310 -0.0825 -0.3541  0.0659
20344W        W39198  14.466   5.083   2.390  0.2470  0.1357  0.1388
20345W        W39199  12.817  13.776   3.382 -0.2117  0.0531  0.0574
20346W        W39200   5.002  10.120  14.741 -0.1344 -0.3261  0.4300
20347W        W39201   4.164  17.049   3.583  0.2652  0.1193  0.2765
20348W        W39202   2.601   3.204   1.202  0.0917 -0.0268 -0.1076
20349W        W39203   9.272   7.305  17.412  0.0356  0.0793  0.0648
20350W        W39204  15.982  16.491  16.749  0.1000 -0.1047  0.1555
20351W        W39205   5.648  14.718   4.587 -0.1465  0.0161  0.0454
20352W        W39206  10.907  14.307  17.070  0.3316  0.0786  0.1554
20353W        W39207   4.552   2.676  13.980  0.3263  0.0314  0.0285
20354W        W39208  16.498  15.722  13.812  0.2342  0.0251  0.0409
20355W        W39209   8.593  11.931   4.667  0.0649  0.1737 -0.0157
20356W        W39210  13.713  10.516   2.008  0.3369 -0.1197  0.1448
20357W        W39211   5.985   2.088   2.722  0.0790  0.1781  0.0126
20358W        W39212   1.252   0.258  16.173 -0.0448  0.2836 -0.2640
20359W        W39213   3.435   5.745  16.298 -0.0781  0.1542 -0.0330
20360W        W39214   8.436   0.570   2.556  0.3791  0.1617  0.0909
20361W        W39215   4.502  16.581   1.340  0.3156 -0.0395  0.0744
20362W        W39216   3.558   3.020  14.771 -0.2184 -0.4158  0.3518
20363W        W39217  16.442  14.230  16.904  0.0767  0.0695 -0.3768
20364W        W39218   3.543  13.688   3.941  0.1099  0.2042  0.0089
20365W        W39219   9.528  10.907  13.821  0.0141 -0.0871 -0.0028
20366W        W39220  10.666   8.803   0.931 -0.3744 -0.1833  0.2877
20367W        W39221  10.217  15.959   4.254  0.1201 -0.1565  0.1466
20368W        W39222  17.355   8.656  15.644 -0.0182 -0.1483  0.1223
20369W        W39223   9.275  13.163   2.365 -0.0039  0.0336 -0.1993
20370W        W39224  15.723  10.142   1.217 -0.3257  0.1456 -0.0041
20371W        W39225   8.293  13.541   1.108  0.0231  0.1995 -0.3511
20372W        W39226  10.106  16.209  17.270  0.0214 -0.1856 -0.0769
20373W        W39227  16.750   9.302   0.723  0.3521  0.0743  0.3776
20374W        W39228  13.963  12.280  14.803 -0.0100 -0.0862 -0.3212
20375W        W39229   0.173   0.149  17.075  0.2030  0.0366  0.1856
20376W        W39230   9.733   3.419   3.365 -0.3485  0.0043 -0.0139
20377W        W39231  16.410   9.776  12.381  0.0941 -0.1834  0.0726
20378W        W39232   7.988   4.177   2.219 -0.0428 -0.0716 -0.1597
20379W        W39233   9.566   9.801   3.889 -0.0054 -0.2755  0.2693
20380W        W39234  16.128  11.881   1.733  0.0797 -0.6295  0.0551
20381W        W39235   9.260  15.264  16.788 -0.0362 -0.1642 -0.0975
20382W        W39236   6.668  16.932   3.595  0.2826  0.4563 -0.0503
20383W        W39237  12.477   5.660   2.617 -0.1151  0.2055  0.0336
20384W        W39238   0.669   8.233   4.167 -0.0934  0.1396 -0.1858
20385W        W39239   1.149   4.771  15.143 -0.0601  0.0089 -0.2774
20386W        W39240   8.806   2.935  13.187  0.2286 -0.1380  0.0153
20387W        W39241   6.299   6.914   4.189 -0.0513 -0.1502 -0.4505
20388W        W39242  16.925   6.760   0.824 -0.0165 -0.1857 -0.1200
20389W        W39243  13.782   1.461  13.948  0.0765 -0.1155 -0.0582
20390W        W39244   0.106   5.019  15.852  0.0446 -0.1808  0.0186
20391W        W39245  15.654   2.702   0.404 -0.1056  0.1541 -0.0503
20392W        W39246   2.150  13.428   3.892 -0.1729 -0.2825 -0.1250
20393W        W39247  17.013   4.698   2.283 -0.0276  0.0471  0.1822
20394W        W39248  13.067   0.541  14.744 -0.1072  0.2810 -0.1373
20395W        W39249  14.232  11.669   2.967  0.2113  0.1358  0.1556
20396W        W39250   8.494  10.979  12.257  0.0036  0.0741 -0.0586
20397W        W39251   7.969  17.116   3.349  0.0886  0.0283 -0.1663
20398W        W39252   5.897   0.203   0.648  0.0653 -0.0347  0.0812
20399W        W39253  12.452  17.241  16.392  0.2864  0.2415  0.0404
20400W        W39254  17.033  12.240   1.670  0.4773 -0.0419 -0.1978
20401W        W39255   4.471  13.417  12.832  0.2882  0.2726 -0.0039
20402W        W39256   3.656   5.315  13.104  0.1838  0.1300  0.1518
20403W        W39257  16.306   8.043  13.796 -0.2519  0.0496 -0.1887
20404W        W39258  15.883   7.232  15.135 -0.1208 -0.1111  0.1297
20405W        W39259  11.915   0.232  15.600  0.3010  0.1025 -0.1042
20406W        W39260   8.976   1.954   4.782 -0.1344 -0.3460 -0.2538
20407W        W39261   1.797  10.116   3.273 -0.1430 -0.1190  0.0819
20408W        W39262   7.452   5.734  16.332 -0.0070  0.1331 -0.1092
20409W        W39263  14.809  17.158   4.562 -0.1411 -0.1602 -0.0880
20410W        W39264   1.820  13.146   0.119 -0.1122 -0.0047  0.5140
20411W        W39265  15.213  11.604   2.791  0.0819 -0.4773  0.0349
20412W        W39266  13.595   6.798  13.622  0.0680  0.0446 -0.0417
20413W        W39267  10.494   7.923   0.581 -0.1679 -0.0206  0.2105
20414W        W39268   3.756   0.773  13.967 -0.1222  0.1634 -0.0584
20415W        W39269  17.217  13.385   0.454  0.1222 -0.3547  0.3540
20416W        W39270  12.583   4.641   3.192  0.1138  0.1423  0.1412
20417W        W39271   9.538   3.209   1.889 -0.0161  0.0908  0.1019
20418W        W39272   0.118   3.945  13.723  0.2551 -0.0566  0.1507
20419W        W39273  13.409   2.697   0.319  0.1374  0.2590 -0.1556
20420W        W39274   4.389  11.910   2.535 -0.2172 -0.0317 -0.1142
20421W        W39275  10.236   2.962   4.921 -0.1225  0.3526  0.0271
20422W        W39276   5.249   8.523   1.459 -0.2143 -0.2853  0.1836
20423W        W39277  10.943   1.495   4.162  0.0783  0.0620  0.2180
20424W        W39278  16.827  15.855   5.231  0.3237  0.0038 -0.2534
20425W        W39279  14.672   0.317  13.793  0.1988  0.3068  0.0840
20426W        W39280   5.956  13.605   5.381 -0.0969  0.1716  0.1531
20427W        W39281   9.643   1.384  16.102 -0.2968 -0.1200 -0.0567
20428W        W39282   1.116   4.107   1.875  0.2107  0.2898  0.2947
20429W        W39283  15.889   7.757  17.197  0.1697  0.2845  0.0196
20430W        W39284   3.537   2.131   1.981  0.0587  0.1286  0.0900
20431W        W39285   7.848   8.770   4.177  0.4436 -0.2372  0.1547
20432W        W39286   5.703   1.975   4.672 -0.0745  0.0896  0.0912
20433W        W39287   9.282  10.468  15.723  0.0486  0.1239 -0.3510
20434W        W39288   7.798   0.967   1.199  0.2747 -0.0582  0.0779
20435W        W39289   3.817  17.393  12.870 -0.1902  0.0830  0.1351
20436W        W39290   3.312   5.298  14.633 -0.1966  0.1049  0.3053
20437W        W39291  16.160   6.942   0.105 -0.0162  0.0018  0.0126
20438W        W39292   2.535  12.377  16.032 -0.2211 -0.2139  0.4958
20439W        W39293  14.140   3.595  15.702  0.0801 -0.2233 -0.1364
20440W        W39294   2.979  15.997  16.871  0.1074 -0.1513  0.1174
20441W        W39295   0.676  12.033  13.590 -0.1059  0.0003 -0.0022
20442W        W39296   9.692  11.921  12.172 -0.1459  0.0656 -0.3074
20443W        W39297  10.723   3.192   2.617 -0.1451  0.1267  0.0748
20444W        W39298   1.710   3.741   3.455 -0.1248 -0.0260  0.2569
20445W        W39299   5.980  11.065   2.060 -0.1824 -0.2014 -0.0683
20446W        W39300   5.650   3.897   0.568  0.0661 -0.3181 -0.1082
20447W        W39301   9.140   0.862  16.989 -0.0627 -0.3040 -0.1945
20448W        W39302   3.842   6.456   3.948 -0.1291  0.1355  0.2229
20449W        W39303   4.585   9.638  15.643  0.2299 -0.0199  0.3348
20450W        W39304  17.348   7.690  15.985 -0.2597 -0.3766  0.1028
20451W        W39305  17.297  13.830   3.463  0.1432 -0.2022 -0.2984
20452W        W39306   7.248   1.983  16.847 -0.0245  0.1229  0.0545
20453W        W39307   5.472   5.098   3.198 -0.2594 -0.1256  0.0082
20454W        W39308  11.844  16.907  13.164  0.2988 -0.0579  0.0191
20455W        W39309   9.992  15.005  14.819  0.0596  0.0784  0.2792
20456W        W39310   3.363  16.784   2.831 -0.3050 -0.0169  0.1070
20457W        W39311   4.934   2.335   1.557 -0.3358  0.0826  0.4167
20458W        W39312   7.477  10.106   0.504 -0.1599 -0.2094  0.3146
20459W        W39313  13.856  11.168  13.073  0.2510 -0.3275 -0.0218
20460W        W39314  11.076  15.531  16.573  0.0082 -0.1431 -0.0472
20461W        W39315   9.093   5.185   1.445 -0.0725 -0.0899  0.0211
20462W        W39316  11.080   6.886   1.973  0.2581 -0.0633 -0.0356
20463W        W39317   6.969   2.675   1.647  0.0237  0.1008 -0.4093
20464W        W39318  10.813  10.854   0.722 -0.0613  0.0835  0.0552
20465W        W39319   8.565   2.877  16.522  0.3683 -0.0207 -0.1295
20466W        W39320  16.631  16.935   1.918 -0.0786  0.0085  0.1030
20467W        W39321   9.610   1.731   0.844 -0.1308  0.0493 -0.0178
20468W        W39322   2.350   6.132   3.490  0.2798  0.2747 -0.2201
20469W        W39323   7.123   3.695  15.675 -0.2207 -0.0237  0.0382
20470W        W39324   5.649   1.060   1.035 -0.1151 -0.0277 -0.1384
20471W        W39325  11.080   8.016   1.426  0.2132 -0.1546  0.0176
20472W        W39326   8.652   6.870   3.635 -0.3332  0.2638  0.0061
20473W        W39327   1.016   8.140  11.448 -0.0896 -0.2944  0.0063
20474W        W39328   6.803   5.415   0.380 -0.4730  0.2888 -0.1814
20475W        W39329   7.320   6.993  15.680 -0.0744 -0.0864 -0.4389
20476W        W39330   6.315   6.470   1.950 -0.3150 -0.0776  0.0110
20477W        W39331   5.219   5.148   2.155  0.2149 -0.0421 -0.2379
20478W        W39332   6.257  14.282   0.946 -0.1015 -0.0063 -0.1565
20479W        W39333   6.386  13.836   2.689 -0.0288 -0.2077  0.0783
20480W        W39334   9.819   6.343   3.835  0.0081  0.0337  0.1027
20481W        W39335   0.506   3.253  13.405  0.1692  0.2740 -0.0146
20482W        W39336  10.510  15.090  14.096  0.0181  0.4100 -0.0665
20483W        W39337   7.945  16.568  16.300  0.1002 -0.3681 -0.0445
20484W        W39338   4.933   4.992  12.404  0.0088  0.0038 -0.0212
20485W        W39339   1.157   5.723   1.967 -0.2044  0.2609  0.3563
20486W        W39340   9.697   2.296   2.167 -0.1531 -0.2315  0.1071
20487W        W39341   8.075   1.780  15.527  0.1221 -0.1333  0.1487
20488W        W39342   7.732  16.891   2.257 -0.1051  0.1883 -0.0773
20489W        W39343   5.677  10.962   4.189 -0.0183 -0.1535 -0.1036
20490W        W39344  13.902  12.923   3.814  0.0218  0.0438  0.0074
20491W        W39345   3.352   3.641  17.263 -0.0517 -0.1083  0.0079
20492W        W39346   6.515  11.421   5.335 -0.1509 -0.3390 -0.0246
20493W        W39347  10.544   9.493   4.742  0.3004  0.0462 -0.0253
20494W        W39348  14.142   1.372  16.256  0.2586 -0.1264 -0.1135
20495W        W39349   2.645  13.442  12.585  0.0753  0.2098  0.3140
20496W        W39350   4.115  13.458   4.996 -0.0668 -0.0678 -0.0188
20497W        W39351   9.256   5.133  13.263  0.0809 -0.2638  0.1958
20498W        W39352  13.837  16.905   5.240 -0.2192 -0.1004  0.2372
20499W        W39353  16.070   4.091   4.685 -0.2687  0.2201 -0.0363
20500W        W39354   1.362   8.606  17.400 -0.1496  0.0066 -0.0643
20501W        W39355  14.960   2.942  13.599  0.2552 -0.1024  0.1822
20502W        W39356   5.848  16.139  13.691  0.0004 -0.1874 -0.2205
20503W        W39357   7.925   6.607  13.175 -0.2603  0.0970 -0.0840
20504W        W39358   8.654   1.777  12.338 -0.4788 -0.1149  0.1861
20505W        W39359  16.114   6.793   1.004  0.0410 -0.1748 -0.1858
20506W        W39360  16.103  11.876  15.057 -0.1236  0.3490 -0.2085
20507W        W39361   8.391   6.405   1.515 -0.2084 -0.0486 -0.1266
20508W        W39362   6.938  16.319   1.114  0.0001 -0.3759  0.0459
20509W        W39363  15.213  12.364   5.076  0.1665  0.1420  0.0959
20510W        W39364  16.996   9.939  13.053  0.2733 -0.1048  0.0158
20511W        W39365   9.799  14.851   1.832  0.0831  0.1880  0.2574
20512W        W39366   9.633   0.495   1.921 -0.0432 -0.3700 -0.1070
20513W        W39367   9.629   2.898  16.437 -0.0434  0.3392  0.3481
20514W        W39368  11.414   8.185   5.226 -0.0191  0.0169  0.0529
20515W        W39369  16.772   1.543   1.726 -0.4816 -0.2164  0.0860
20516W        W39370  16.601   1.613  16.591 -0.1312 -0.0815 -0.0096
20517W        W39371   3.423   8.214   0.775 -0.1559  0.1140 -0.1997
20518W        W39372  11.003  10.075  12.754  0.3482 -0.1801 -0.2274
20519W        W39373   3.523   1.697  16.581  0.2045 -0.2080 -0.3010
20520W        W39374  16.170   7.702  12.642  0.1060 -0.3072  0.0939
20521W        W39375  13.665   0.499   5.081  0.1243 -0.0996  0.0659
20522W        W39376   9.412   3.508   4.158  0.0951 -0.0990 -0.2054
20523W        W39377  15.932   8.642  15.425  0.1771 -0.3997  0.4216
20524W        W39378  15.747   7.870   3.086 -0.0126  0.0573  0.1473
20525W        W39379   7.448   8.767  17.382  0.2000  0.1733 -0.0960
20526W        W39380  16.718   6.183   0.545  0.3591  0.0891  0.0847
20527W        W39381   3.838  16.136  12.028  0.1134  0.0962 -0.1645
20528W        W39382  15.040  13.562   2.872 -0.0640 -0.1009  0.2249
20529W        W39383   7.807   0.063   2.951 -0.1225 -0.2421 -0.2685
20530W        W39384   8.141   9.631  12.957 -0.2261  0.1841  0.1761
20531W        W39385   2.040  16.487  12.571 -0.1987 -0.1127 -0.1765
20532W        W39386  17.370  15.825   3.014  0.3067 -0.3685  0.2325
20533W        W39387  15.010   9.960   3.010 -0.0078  0.2042 -0.0375
20534W        W39388   7.947   1.830   1.395 -0.3969 -0.0288  0.3906
20535W        W39389  16.229  13.603  15.733  0.0779  0.0153  0.0773
20536W        W39390   1.160   4.201   0.821  0.1107 -0.2042  0.3946
20537W        W39391   1.377  12.024  14.573 -0.0627 -0.0187 -0.0752
20538W        W39392   5.981   2.129  16.994  0.2548  0.0630  0.1803
20539W        W39393  14.935  14.023   4.668  0.1347 -0.1775 -0.1540
20540W        W39394   3.904  13.474  12.067 -0.3204 -0.2562 -0.3899
20541W        W39395   1.960  15.289  14.343 -0.2003 -0.1053 -0.4667
20542W        W39396  14.181   9.436  15.624  0.0285 -0.2081  0.3497
20543W        W39397  10.404   9.181   0.923 -0.1334  0.0266  0.4628
20544W        W39398   3.367  16.361  13.307  0.0676  0.0791  0.1330
20545W        W39399   9.675   1.433  14.862 -0.3215 -0.1146 -0.0421
20546W        W39400   3.820  10.989  12.148  0.3584  0.2733  0.0691
20547W        W39401   0.356  12.380  13.950  0.0743  0.1802 -0.0388
20548W        W39402   9.367  14.161  17.286 -0.2023 -0.3319 -0.2239
20549W        W39403   3.979  13.311  14.902 -0.3269  0.2416 -0.1805
20550W        W39404   9.712  16.804   1.489  0.2348 -0.0923  0.0395
20551W        W39405   4.106   4.169  16.916  0.1150  0.0603 -0.1493
20552W        W39406  10.935   9.162  14.820  0.1524  0.4022 -0.0268
20553W        W39407   5.725  15.311   2.249  0.0440  0.1593 -0.0286
20554W        W39408   9.079   8.239   0.396  0.0622  0.2282  0.1620
20555W        W39409   4.602  13.502  13.417  0.0481  0.0491 -0.5344
20556W        W39410   5.412   2.845  14.895 -0.2899 -0.1399 -0.3283
20557W        W39411  13.309   9.336   5.579 -0.0744  0.0666  0.5264
20558W        W39412   7.919  16.704   3.023  0.0416  0.0409 -0.0828
20559W        W39413   9.791   6.864   3.764  0.0812 -0.2358  0.1489
20560W        W39414  12.385   8.249  13.070  0.0338 -0.3530 -0.0415
20561W        W39415  17.166   9.131   0.315  0.0170  0.0955 -0.1852
20562W        W39416  16.726  13.710  17.004 -0.0866  0.0508  0.1094
20563W        W39417   2.444   5.221   4.588 -0.1072 -0.0999 -0.3549
20564W        W39418   0.730   3.422  15.497 -0.3660  0.0877 -0.1588
20565W        W39419   8.079   2.053  13.673 -0.3155 -0.0331  0.2244
20566W        W39420  12.652  10.766   5.656 -0.1110 -0.2083 -0.1004
20567W        W39421   2.077   9.796   1.217  0.0920  0.4814  0.0754
20568W        W39422   1.681  12.339   5.302 -0.0374 -0.2008 -0.2013
20569W        W39423   2.947   5.916  13.294 -0.0868 -0.1148  0.1442
20570W        W39424  14.487   0.727  16.325  0.3655  0.1125 -0.0014
20571W        W39425  12.665  14.548   3.060 -0.1462 -0.2684  0.3632
20572W        W39426   5.166  16.272  13.073  0.0124  0.1230  0.1314
20573W        W39427   1.916  11.947  13.861 -0.0751 -0.1192  0.2299
20574W        W39428   6.443   5.194  15.377  0.0014  0.0832 -0.0147
20575W        W39429   1.163   1.521   1.588  0.1403 -0.0385  0.0224
20576W        W39430  10.117   4.224  15.345 -0.0746  0.0611  0.1737
20577W        W39431   2.481  10.223   5.091  0.0257  0.2322 -0.1250
20578W        W39432   9.566  12.977  15.422  0.0274  0.1324 -0.0534
20579W        W39433  10.609  13.669  15.491  0.0076  0.1700 -0.0860
20580W        W39434   6.768   6.313   4.694 -0.1553  0.0365  0.1379
20581W        W39435   4.378  15.398   2.802  0.2166 -0.4435  0.1402
20582W        W39436  10.664  11.254   1.944  0.0652  0.0082  0.3097
20583W        W39437   8.689  10.189   1.262  0.0562  0.1095 -0.0585
20584W        W39438  17.065  11.851   0.773  0.2228 -0.1483 -0.0070
20585W        W39439   6.114  11.465  12.483  0.0155 -0.0922 -0.2727
20586W        W39440  10.224   1.955   1.404 -0.0950 -0.0187  0.0195
20587W        W39441   1.302   9.873  15.973  0.2843 -0.2756  0.1704
20588W        W39442   7.314   8.545   0.890  0.0085 -0.2970  0.2352
20589W        W39443   9.228  15.029  16.346 -0.1931  0.0057  0.5304
20590W        W39444  15.516  16.685  15.801  0.0962  0.1413 -0.1229
20591W        W39445   7.629   4.551  14.568 -0.1556 -0.0319 -0.1716
20592W        W39446   5.712   3.460   2.487 -0.1117 -0.2488  0.0407
20593W        W39447  15.644   7.973   0.087  0.2049 -0.0053 -0.1140
20594W        W39448  13.605   9.737   1.646 -0.1641  0.0539  0.0454
20595W        W39449  12.500   7.643  15.649 -0.1574  0.0708 -0.0541
20596W        W39450   4.313   1.713   4.328 -0.2279  0.3162 -0.1564
20597W        W39451   4.856  11.977  17.402 -0.2878  0.3090 -0.1847
20598W        W39452  16.756  12.758   1.592 -0.0292  0.2363  0.0171
20599W        W39453  10.128   4.931  13.626  0.0461  0.4931  0.1017
20600W        W39454   3.095   8.063  16.272 -0.2513 -0.0151  0.3511
20601W        W39455  16.940   4.134  15.436 -0.0615  0.2171  0.1069
20602W        W39456  16.819  14.172   0.675 -0.0680 -0.1804  0.1521
20603W        W39457  17.129   0.925  12.684  0.0768  0.1014  0.1117
20604W        W39458   6.524   7.991  12.901 -0.2370 -0.0617  0.0558
20605W        W39459   9.740  11.302   3.344  0.1270 -0.2933  0.1556
20606W        W39460   1.814   4.535  13.117 -0.1877  0.1927 -0.1505
20607W        W39461   2.492  10.715   0.111 -0.0729  0.0282  0.4482
20608W        W39462   2.728   0.233  13.185 -0.3030 -0.4229 -0.0073
20609W        W39463  11.311   4.609   4.400  0.0396 -0.2767 -0.1019
20610W        W39464  15.834   4.288  16.429 -0.5236 -0.2257  0.1926
20611W        W39465  10.581  10.898  13.660  0.2922  0.0099  0.0503
20612W        W39466  17.104   2.291  15.384  0.1877 -0.3981 -0.1107
20613W        W39467  12.657  15.946   0.662  0.2942 -0.1350 -0.0397
20614W        W39468   3.711  11.064   1.536  0.3495 -0.0162  0.1257
20615W        W39469  11.620   3.877   1.861  0.0568 -0.2252 -0.1494
20616W        W39470   4.442   2.967  15.571 -0.1658  0.0599  0.0624
20617W        W39471   3.325  10.383  13.469  0.1404  0.2021 -0.1726
20618W        W39472   8.112  12.688   3.234 -0.1932  0.1096  0.0625
20619W        W39473   1.661  17.138   2.923 -0.0709  0.0170  0.0062
20620W        W39474   4.069   4.427  16.528 -0.0586 -0.4230  0.1188
20621W        W39475   6.314  13.059  17.328  0.1620  0.0878 -0.0867
20622W        W39476   8.303  13.299   2.347 -0.3401 -0.0888  0.1541
20623W        W39477   1.262   5.816  13.215 -0.1189 -0.0062 -0.1426
20624W        W39478   2.530   0.453   0.180  0.0935  0.1933  0.1049
20625W        W39479   1.756   3.628  13.406  0.0710 -0.1683 -0.0696
20626W        W39480   9.736   6.792  15.926 -0.1478  0.1037  0.0762
20627W        W39481   8.777  11.577   4.413  0.2709 -0.0324  0.1206
20628W        W39482   2.802  11.297   3.698  0.1338  0.0410  0.1249
20629W        W39483   6.564  12.325   2.278 -0.0790  0.1560 -0.2572
20630W        W39484   9.629   7.117  11.982  0.1827  0.0392 -0.0516
20631W        W39485  14.259   4.499  15.422  0.0489 -0.1792 -0.0659
20632W        W39486   0.707   2.199  15.455 -0.3592  0.2017 -0.0206
20633W        W39487   9.986   4.197  14.444 -0.1946  0.0988 -0.2351
20634W        W39488  15.805  14.381   4.110  0.0177  0.1001 -0.1534
20635W        W39489  10.115  14.498  16.669 -0.1630 -0.0921 -0.0100
20636W        W39490   8.271   5.382  13.202 -0.3659 -0.3010 -0.1188
20637W        W39491  16.033  10.303   4.409 -0.0399  0.2929  0.3346
20638W        W39492   8.268   1.887  15.033 -0.5124  0.4262  0.0743
20639W        W39493   1.956   3.807   1.627  0.1598  0.1249  0.0347
20640W        W39494   9.914   1.629   1.363  0.2052 -0.1038  0.0706
20641W        W39495  14.741  10.947   2.038  0.1871  0.0596  0.0752
20642W        W39496   4.712  14.906   2.849 -0.3709  0.1303  0.1759
20643W        W39497   5.573   9.571  14.890  0.0450  0.2135  0.3598
20644W        W39498  13.290  11.530   0.562  0.0305  0.1600  0.0434
20645W        W39499  13.395   7.766  15.319 -0.0197  0.0241  0.2822
20646W        W39500   2.833   2.816   1.611 -0.0826  0.0307 -0.0438
20647W        W39501  10.026  13.115   3.270 -0.0768  0.2782 -0.0869
20648W        W39502   8.031  15.988   1.178 -0.2237  0.0701 -0.0384
20649W        W39503  15.243   9.176   1.149  0.0401 -0.1208 -0.0495
20650W        W39504  12.349   6.065  13.602  0.0229 -0.1379 -0.2798
20651W        W39505   7.952   8.069  15.422  0.1183 -0.2628 -0.0050
20652W        W39506  10.616  11.727  12.111  0.1790 -0.1743  0.0495
20653W        W39507   2.074   4.184  13.350 -0.0023  0.0887  0.0545
20654W        W39508   7.918  12.031  13.477  0.1076  0.1909  0.0903
20655W        W39509  11.634  11.802  13.360 -0.0271 -0.3502  0.0782
20656W        W39510   2.633   5.249   1.402 -0.0583  0.0208  0.2442
20657W        W39511   5.726   9.009  12.797  0.0122  0.3390  0.0060
20658W        W39512  12.955  15.915   3.501 -0.1631 -0.0025  0.2935
20659W        W39513  13.378   6.017   0.972  0.0496  0.0120  0.2254
20660W        W39514   5.205  12.469  17.168  0.2977 -0.2692  0.3572
20661W        W39515   6.819   3.264   3.738  0.1341 -0.2143  0.2070
20662W        W39516   8.529  13.044  14.476  0.2238 -0.0723 -0.2834
20663W        W39517   8.334   5.235   1.266 -0.0882 -0.1551  0.0814
20664W        W39518   3.870  11.755   2.361 -0.0659 -0.3506 -0.0581
20665W        W39519  14.839  11.496   4.745  0.0514  0.1228 -0.0295
20666W        W39520   4.727   1.402   6.059  0.0719  0.0790 -0.1473
20667W        W39521  10.129  11.688  12.201 -0.0151  0.3216  0.3887
20668W        W39522  13.597   4.541  14.292  0.0913  0.0235 -0.1518
20669W        W39523  11.339   0.108   1.698 -0.0165 -0.4403 -0.1044
20670W        W39524   4.918   8.198   3.631 -0.3440 -0.0748  0.0187
20671W        W39525   5.544   0.106  15.429  0.1782  0.2442  0.2149
20672W        W39526   9.006  12.439   1.277  0.2330  0.0626 -0.4128
20673W        W39527   3.473   6.082  13.341  0.3650 -0.3173  0.1566
20674W        W39528  15.854  12.582   0.069  0.1219  0.3653  0.1178
20675W        W39529  17.292   9.638  16.156  0.0868  0.0407  0.0808
20676W        W39530  10.919   2.699   1.728 -0.1523 -0.3315 -0.1324
20677W        W39531   3.008  16.569   1.784  0.1110 -0.1391  0.3231
20678W        W39532   4.378  12.497  14.460 -0.1531  0.0936 -0.0430
20679W        W39533   9.145  11.710  15.396 -0.1532 -0.0538 -0.4133
20680W        W39534  14.666   4.762  14.720 -0.1303  0.0751  0.0231
20681W        W39535  16.738   8.993  14.165 -0.2337 -0.0581  0.3173
20682W        W39536   3.191   7.625   5.169 -0.2852  0.3682 -0.0331
20683W        W39537   5.828  17.062  16.238 -0.0784 -0.0779 -0.2993
20684W        W39538  14.288   1.089  16.669  0.0148 -0.0439 -0.1812
20685W        W39539   9.867   0.402  14.700  0.0773  0.1099 -0.1542
20686W        W39540   0.494   4.930   2.810  0.0129 -0.0704 -0.2162
20687W        W39541  13.849   5.934   2.103  0.1336 -0.0431  0.1057
20688W        W39542   6.567   0.371   4.378 -0.1299 -0.2228 -0.0147
20689W        W39543  14.872   1.744   0.749  0.1041 -0.0986 -0.2334
20690W        W39544   3.261   6.257  16.169  0.0004  0.1128 -0.0151
20691W        W39545   8.080   0.056  15.143  0.1090 -0.1893  0.1606
20692W        W39546   1.519  16.088   3.985  0.4200  0.4010 -0.2096
20693W        W39547   7.789   7.386  17.357  0.3586  0.0723  0.1949
20694W        W39548  10.884  10.742  16.920 -0.0197 -0.1313  0.0670
20695W        W39549  12.341  11.291   0.370  0.0463  0.1716 -0.2215
20696W        W39550  12.926   3.671  13.570  0.1982  0.1534 -0.1466
20697W        W39551   2.645  14.528  13.175 -0.1653  0.0478  0.1445
20698W        W39552  11.432  11.297   2.552  0.0819  0.1303  0.0546
20699W        W39553   6.392  17.339  13.402 -0.0697 -0.1506  0.2435
20700W        W39554   1.577   9.820  14.643  0.1940 -0.1258  0.0962
20701W        W39555   2.235   7.288  14.495  0.0226 -0.0079  0.1222
20702W        W39556  15.068  11.374   1.957  0.4544 -0.0556  0.1163
20703W        W39557   3.332   8.123   3.786  0.0694 -0.0661 -0.1219
20704W        W39558   5.163  14.143  12.195 -0.1333  0.0581  0.1933
20705W        W39559   0.561   8.962  13.506 -0.2332  0.3232  0.1935
20706W        W39560  10.144  10.423   4.752 -0.0573  0.0158 -0.0705
20707W        W39561  15.189   4.307   2.660  0.0310  0.0474  0.0221
20708W        W39562  11.856   5.670  13.487  0.7164 -0.0307  0.0116
20709W        W39563   9.507   0.679  13.520 -0.1846 -0.1518 -0.0780
20710W        W39564   1.567  16.708  13.307 -0.0524  0.0602 -0.0866
20711W        W39565   7.409  17.179  15.657 -0.2114 -0.1866 -0.2738
20712W        W39566  12.073   6.850   3.297  0.2469  0.0236  0.1719
20713W        W39567  16.911  14.660  14.633 -0.1791 -0.0318  0.1973
20714W        W39568  12.813  14.217   3.628  0.4417 -0.0967 -0.1862
20715W        W39569  11.945   5.163   4.297  0.2306  0.2662  0.2914
20716W        W39570   6.639  16.602  13.634 -0.2933  0.1813  0.1974
20717W        W39571   4.424   1.722   5.235 -0.1335 -0.2657 -0.0141
20718W        W39572  14.172   4.828   1.563  0.2278 -0.0743  0.2452
20719W        W39573  14.869   5.175  14.954  0.0403 -0.0506 -0.1171
20720W        W39574   1.411  13.616  15.075 -0.1232  0.1106 -0.2085
20721W        W39575  10.836   8.301  14.479  0.0335  0.0933 -0.1457
20722W        W39576   1.536  11.768  13.075  0.0284 -0.0286 -0.1419
20723W        W39577  16.908  14.345   5.270 -0.0236  0.0310 -0.0733
20724W        W39578   0.476  12.233   0.049 -0.2048 -0.0673 -0.0460
20725W        W39579  10.157   8.171   4.817  0.0171 -0.2220 -0.1396
20726W        W39580  10.247  11.520   3.201  0.1731 -0.0319 -0.0341
20727W        W39581  17.191  10.639   2.814  0.0423  0.1094  0.0874
20728W        W39582   1.968   1.559  16.399 -0.0766 -0.0970 -0.0493
20729W        W39583   1.606   6.102  12.503 -0.0524 -0.2225 -0.1201
20730W        W39584   0.246   9.760   0.836  0.1249  0.1565 -0.2143
20731W        W39585   5.934   3.478   0.772 -0.1685  0.0691 -0.2407
20732W        W39586   8.814  13.160   4.868  0.2462 -0.0707  0.0081
20733W        W39587   3.137  14.049  14.281  0.0966  0.2982  0.1478
20734W        W39588   1.516  11.135   3.848  0.0729  0.0237 -0.0285
20735W        W39589   2.921   4.326  16.882 -0.0131 -0.1557  0.1175
20736W        W39590  15.491   8.768   1.013  0.0735  0.1520 -0.0282
20737W        W39591   1.621   5.855  16.187 -0.3818  0.0665  0.0117
20738W        W39592   6.627   3.712   3.663 -0.0755 -0.0436  0.0987
20739W        W39593  17.057  14.361   1.130 -0.2768  0.2413 -0.2403
20740W        W39594   6.253  17.138  15.817 -0.0062 -0.0111 -0.2286
20741W        W39595   7.070   5.513   4.836  0.2058 -0.0682 -0.0061
20742W        W39596   2.475   0.863   5.122  0.0767 -0.0182  0.0061
20743W        W39597   9.690   5.724   2.743  0.2422 -0.1680 -0.0902
20744W        W39598  15.037   5.971  15.715  0.1866  0.0983 -0.2311
20745W        W39599   6.236   1.424  13.449 -0.0732  0.0309  0.1553
20746W        W39600   2.944   3.890   0.601 -0.0677  0.1059  0.0006
20747W        W39601   4.900   0.011  14.518  0.0132 -0.0660 -0.0766
20748W        W39602  15.383  11.308  14.712  0.2912  0.1122 -0.2694
20749W        W39603   2.544   8.330  16.100 -0.0263  0.0178 -0.0171
20750W        W39604   0.835  16.030  16.968  0.2982  0.0710  0.0815
20751W        W39605   1.310   0.314  14.415  0.0734  0.2769 -0.0418
20752W        W39606   8.014   9.190  11.716  0.1478  0.0397 -0.1435
20753W        W39607  12.577   1.137  14.334 -0.1743  0.1261 -0.0927
20754W        W39608  12.921   1.177  16.181 -0.2347  0.0201 -0.1780
20755W        W39609  17.317   3.793   4.646  0.3727 -0.3689  0.1191
20756W        W39610  17.129  14.640   0.693  0.1915 -0.1270 -0.0136
20757W        W39611  13.538  14.332   0.847 -0.1470 -0.2653  0.1007
20758W        W39612  15.273   6.908   4.169  0.0426  0.1527  0.1546
20759W        W39613   8.886  11.224   2.074  0.0190 -0.1437  0.0123
20760W        W39614   6.879   4.551  13.241 -0.0996 -0.0825  0.0728
20761W        W39615  13.181   5.347  14.129 -0.0837  0.4685 -0.3498
20762W        W39616   4.883   3.157   0.982  0.1004  0.1423  0.1084
20763W        W39617  10.996  13.543  16.346 -0.2196  0.0585 -0.1739
20764W        W39618   3.749  15.530   0.564 -0.4385 -0.0465  0.2208
20765W        W39619  11.316  12.533   4.687 -0.0137 -0.0394  0.1414
20766W        W39620   1.779   9.159   2.027  0.0378  0.0221 -0.0198
20767W        W39621   2.679  16.146   4.814  0.0463  0.0910  0.0943
20768W        W39622   7.114  10.834   1.276  0.1681  0.1535 -0.2617
20769W        W39623  10.980   0.045  13.417  0.3854  0.0999  0.1040
20770W        W39624   9.307  16.600  16.319  0.2905  0.0770  0.0633
20771W        W39625   1.725  16.621  12.148 -0.1438 -0.1641 -0.2450
20772W        W39626   0.337  12.638   2.490 -0.1801 -0.1817 -0.0755
20773W        W39627  11.695   7.484   1.419  0.0048  0.0163  0.1243
20774W        W39628  12.864  11.558   5.487 -0.2025  0.2496 -0.0599
20775W        W39629   5.410   1.137  14.601 -0.1596 -0.1173 -0.1187
20776W        W39630   4.590   2.705  16.675  0.2286  0.0804  0.0601
20777W        W39631   8.141   1.605  17.331  0.2710  0.0483 -0.3595
20778W        W39632  10.948  10.459  15.285  0.0904  0.0008 -0.1134
20779W        W39633   9.484   7.352  16.742  0.2713  0.2380  0.1701
20780W        W39634   4.089  10.881   0.383 -0.1066  0.0780  0.1580
20781W        W39635   0.861   0.069   1.827  0.1616 -0.0947  0.0997
20782W        W39636   1.419  16.913   4.465  0.2496  0.1115  0.3765
20783W        W39637   2.730  17.304  14.764 -0.0566 -0.1960 -0.0587
20784W        W39638  14.363  10.678   0.426 -0.0760  0.1622  0.0498
20785W        W39639  13.001   2.204   1.596 -0.2244  0.0685 -0.3955
20786W        W39640   4.806  12.768   2.310 -0.0279  0.0118 -0.2432
20787W        W39641   0.071   2.581   2.871  0.1138 -0.0767  0.2596
20788W        W39642   6.268  16.783   2.621  0.1263 -0.0250  0.0474
20789W        W39643   7.964  10.477  17.482 -0.0976  0.0772  0.0779
20790W        W39644   0.236   9.319  14.863 -0.0200 -0.2037 -0.0338
20791W        W39645   4.625   7.009   4.184  0.0267  0.0304 -0.2254
20792W        W39646   6.145   0.061  13.936 -0.3784  0.0643 -0.5988
20793W        W39647  12.616  16.630  16.975  0.0601  0.3905 -0.0643
20794W        W39648  16.186   1.757   3.544 -0.0212 -0.2650  0.1157
20795W        W39649  11.617  13.815   3.301 -0.1039  0.0470 -0.1853
20796W        W39650   1.697   3.725   4.830 -0.0200 -0.1745 -0.1704
20797W        W39651  12.826   4.571  15.570 -0.0637 -0.2683  0.5571
20798W        W39652   1.650   0.768   0.804  0.2137  0.2257  0.2475
20799W        W39653   6.877  17.047   0.349  0.0476 -0.2316 -0.0287
20800W        W39654  14.067   6.086   0.440 -0.1784 -0.2508  0.2268
20801W        W39655   3.155  16.243   2.897 -0.4193 -0.0713  0.2287
20802W        W39656   4.398   5.760   0.359  0.1313 -0.1357 -0.3697
20803W        W39657   8.122   6.020  13.368 -0.1797 -0.0157 -0.0774
20804W        W39658  12.644   1.275   1.996  0.0964  0.2250  0.4285
20805W        W39659  15.085   2.306  12.964 -0.0298  0.0759 -0.2127
20806W        W39660   9.515   3.700   1.579 -0.1403 -0.1043 -0.0566
20807W        W39661   8.763   1.829   3.066  0.1644 -0.0879 -0.0215
20808W        W39662  12.002  11.673   1.658 -0.0256  0.0547 -0.0811
20809W        W39663   2.694   0.209  13.679 -0.5572 -0.1637 -0.5373
20810W        W39664   9.502   4.302  13.659  0.1695  0.0157 -0.1219
20811W        W39665  14.793  15.654   6.223 -0.0341 -0.1731 -0.2345
20812W        W39666   1.465   4.836  13.328  0.0152 -0.1678  0.0879
20813W        W39667   4.168   2.721   5.579 -0.0308  0.0978  0.0610
20814W        W39668  14.734  14.134   5.147 -0.0362  0.0867  0.3885
20815W        W39669   3.184  12.304   0.630 -0.1874 -0.0771 -0.1714
20816W        W39670   7.330  12.706   1.313 -0.1482  0.0594 -0.1733
20817W        W39671   2.348  15.792   4.679 -0.1562 -0.1032  0.2296
20818W        W39672   4.311   8.409   5.132  0.6134  0.0602  0.2657
20819W        W39673   7.077  11.187   2.456 -0.0206 -0.0226  0.0475
20820W        W39674  16.006  16.042  15.358 -0.0697  0.1910  0.0649
20821W        W39675   9.698   0.614   3.324 -0.0046  0.1285  0.1854
20822W        W39676   6.253  14.070   1.719  0.2391  0.4304  0.1437
20823W        W39677  10.285   9.182  12.156  0.2431 -0.1255 -0.0137
20824W        W39678  10.134  12.576   0.446  0.0217  0.0443  0.1895
20825W        W39679   6.481   7.438  17.432  0.2499 -0.2369  0.1626
20826W        W39680   4.692   0.502   4.627 -0.1636 -0.0327 -0.0209
20827W        W39681   8.822  10.148   0.370  0.2346  0.0916  0.0500
20828W        W39682  13.104   8.589  17.015  0.2270  0.1363  0.1571
20829W        W39683  14.331  11.212   3.298  0.0291  0.2508  0.2219
20830W        W39684   9.135   5.583   4.890  0.0906  0.1108 -0.2813
20831W        W39685   1.699   7.553  12.776 -0.1034  0.3418 -0.3007
20832W        W39686   9.514   7.967   1.675  0.1865  0.0601  0.2524
20833W        W39687   2.755  17.063   4.684  0.1467 -0.1963  0.3180
20834W        W39688   9.583   9.100  16.408  0.0515 -0.0210 -0.0692
20835W        W39689  10.343  13.518   3.031  0.3917 -0.1272  0.3517
20836W        W39690   0.383   8.030  13.992  0.0716  0.0797  0.2149
20837W        W39691   9.681   0.117  17.405  0.3316  0.0440 -0.2465
20838W        W39692  17.315  13.445   3.105  0.1490  0.0492 -0.0990
20839W        W39693   1.200   1.993  13.723  0.2335 -0.0600 -0.1763
20840W        W39694  14.669   7.143   3.433  0.0372 -0.1073  0.0709
20841W        W39695   5.269   4.764   1.189  0.1090  0.0065 -0.0053
20842W        W39696   5.296  13.863   3.357 -0.2603  0.1098 -0.0623
20843W        W39697   8.949   2.731   2.742 -0.1767 -0.2214  0.2628
20844W        W39698  11.746   5.520   3.256  0.0826  0.3236 -0.0168
20845W        W39699  13.440  16.668   2.753 -0.0611 -0.0558  0.0534
20846W        W39700   6.647   0.051   1.057  0.1515  0.1725  0.0233
20847W        W39701   4.837   4.025   4.562  0.1242  0.0104  0.0087
20848W        W39702   2.640   6.937  15.774  0.3417 -0.0061  0.1543
20849W        W39703   3.418   2.690  13.179 -0.1267  0.1817  0.3176
20850W        W39704   2.057  15.922  15.881  0.1538 -0.0817  0.0550
20851W        W39705   8.049  14.778  15.223  0.0571 -0.1031  0.2200
20852W        W39706  11.884   8.933  17.477  0.1067 -0.0773  0.0983
20853W        W39707  10.677  16.417  17.314  0.2459  0.0391  0.0749
20854W        W39708   0.671   5.737  16.158 -0.0303  0.0492 -0.4134
20855W        W39709  11.335   0.643  15.001  0.3058  0.1857 -0.0015
20856W        W39710   2.323   4.725   1.320  0.0461 -0.0493  0.0354
20857W        W39711   0.114   6.614  16.200 -0.4246 -0.2172 -0.0125
20858W        W39712  13.176   3.030   4.995 -0.2115  0.0970  0.2961
20859W        W39713   1.576  16.041  16.305 -0.0558  0.2617 -0.0468
20860W        W39714   5.595   2.068  13.837  0.0829  0.3916  0.0725
20861W        W39715  13.899   1.934   1.294  0.1641 -0.5654 -0.3235
20862W        W39716   7.217   8.301   0.413 -0.3228  0.0393 -0.2414
20863W        W39717   6.571   9.605  17.139 -0.3496 -0.0610 -0.0736
20864W        W39718   9.428   2.533   2.498  0.0819 -0.1167  0.0346
20865W        W39719  16.274   2.055  16.805 -0.3234  0.3683  0.1091
20866W        W39720  12.689  11.468   3.604  0.2209  0.0917 -0.1904
20867W        W39721  15.468  11.807  14.525 -0.0063 -0.2336  0.1188
20868W        W39722  10.872   3.157  15.753 -0.0142  0.3902  0.3102
20869W        W39723   1.221   0.412   4.159 -0.1765 -0.0796  0.2986
20870W        W39724   5.943  14.237  17.218  0.1408  0.2504 -0.1097
20871W        W39725  11.100  10.873   3.152 -0.0341 -0.1470 -0.1156
20872W        W39726   3.426  15.742  16.821  0.0156 -0.3543 -0.2513
20873W        W39727   6.867   9.148  14.665  0.1253  0.0848  0.0986
20874W        W39728  14.002  13.846   2.845 -0.0699 -0.0664  0.0190
20875W        W39729  15.593   2.318  14.245 -0.2303  0.0501  0.0207
20876W        W39730   5.868   3.088  15.824  0.2892  0.3667  0.3273
20877W        W39731  16.605  16.726   0.313  0.0779 -0.2803 -0.0542
20878W        W39732  15.978  10.717  16.725 -0.0693 -0.0419  0.0778
20879W        W39733  10.624  16.348   4.974 -0.2564 -0.2247 -0.1575
20880W        W39734  10.848   1.467  17.342 -0.1925  0.0977  0.2588
20881W        W39735   6.796  16.213   4.837 -0.0427  0.0578  0.3753
20882W        W39736   2.220   1.046   1.987  0.1562 -0.0382 -0.3328
20883W        W39737   7.080   2.938  13.928 -0.2154  0.1857  0.1282
20884W        W39738  10.779   0.788  12.484  0.0059 -0.1214 -0.2477
20885W        W39739   7.430   4.588   0.364  0.1966 -0.0730  0.0764
20886W        W39740  11.455  12.884  17.326 -0.0019 -0.0014 -0.1738
20887W        W39741   6.784   8.501  13.128 -0.0457  0.0721 -0.2561
20888W        W39742  10.141  10.683  15.192  0.0651  0.2592  0.0019
20889W        W39743   9.338   0.696   2.343  0.0545  0.1712  0.0883
20890W        W39744  12.742   1.499  13.439 -0.0836  0.0558  0.1329
20891W        W39745   1.069   3.813  15.718  0.2529 -0.0131 -0.0930
20892W        W39746   2.607  16.977   0.839 -0.1966  0.2916  0.0219
20893W        W39747  10.113   3.147  14.099  0.0338 -0.0392  0.4296
20894W        W39748   9.577  15.824  12.298 -0.3530  0.0199 -0.0632
20895W        W39749  14.283   2.804  12.459 -0.0759 -0.0613 -0.0716
20896W        W39750   2.130   8.052   1.423 -0.0950  0.2445  0.2712
20897W        W39751  11.877  12.283   1.686 -0.1922 -0.0064  0.1716
20898W        W39752   3.646   6.197  16.485  0.1460 -0.2475 -0.0708
20899W        W39753   5.321  14.516  14.593  0.3681 -0.0269 -0.1401
20900W        W39754   0.949  13.880   3.645  0.1810  0.0427 -0.2311
20901W        W39755  16.162  11.924  16.434 -0.2469 -0.1515  0.0208
20902W        W39756   3.940   0.816  16.738 -0.1649  0.0587 -0.0611
20903W        W39757   1.600   3.302  16.392  0.0599  0.3212 -0.1594
20904W        W39758   2.847  15.616   3.958  0.1688  0.2590 -0.0799
20905W        W39759   2.362   7.193   1.703  0.1761 -0.1231 -0.1498
20906W        W39760   2.616   5.374  12.535  0.1635  0.2251  0.4068
20907W        W39761   1.083  16.166  12.396  0.1552  0.2951  0.0462
20908W        W39762  11.164   9.569   1.468  0.1164  0.0577  0.0855
20909W        W39763   2.256   6.547   3.206  0.0568 -0.1569 -0.1572
20910W        W39764   1.315   1.336  16.998 -0.1361  0.1679  0.3543
20911W        W39765  16.780   9.700  16.718  0.1533  0.1109 -0.0738
20912W        W39766  15.402   9.421   2.445  0.0077  0.0731  0.0307
20913W        W39767   5.489   9.821   1.839  0.2762  0.1319 -0.3638
20914W        W39768  16.500   6.417   0.036 -0.2405  0.0178  0.1824
20915W        W39769   6.981   6.422   5.148 -0.2144 -0.1066  0.2250
20916W        W39770   6.357   8.392   2.485 -0.2448  0.1336  0.2093
20917W        W39771  13.107   6.642  13.620 -0.1907  0.3298  0.1533
20918W        W39772   9.089  15.221  15.305 -0.1306 -0.0706 -0.3225
20919W        W39773  16.083   9.525   0.210  0.0455  0.1842  0.1658
20920W        W39774   0.673   2.670  11.318  0.0460  0.2809 -0.2981
20921W        W39775   0.567   0.151   3.670  0.2524 -0.0368  0.3167
20922W        W39776   6.750   6.790  14.883 -0.0088 -0.2495 -0.0858
20923W        W39777   5.101   2.571   2.135 -0.0948 -0.1800 -0.0830
20924W        W39778   8.249   8.019   4.488  0.4787 -0.0540 -0.0150
20925W        W39779   9.286   9.606   4.512  0.1222 -0.1549 -0.2471
20926W        W39780   2.937   5.088  15.726  0.2663  0.3085 -0.0281
20927W        W39781   6.906  11.273   1.563 -0.1771 -0.0435  0.0762
20928W        W39782  15.178   1.640  16.195  0.1583 -0.0860  0.0780
20929W        W39783   0.475   5.073   4.522  0.2254 -0.1129  0.0656
20930W        W39784   2.912   2.410  14.314 -0.0165  0.3652  0.1915
20931W        W39785  15.811   6.048  16.096 -0.2214 -0.0578  0.1807
20932W        W39786   1.096  15.838  13.784 -0.2688  0.1856  0.0417
20933W        W39787   2.772  12.970  13.386 -0.2162  0.0271 -0.0791
20934W        W39788  10.531   7.419  12.220  0.0279  0.0032 -0.1667
20935W        W39789  15.737  15.630  17.316  0.0801  0.1147  0.0838
20936W        W39790   9.532  16.314  14.872  0.0368  0.1216  0.2030
20937W        W39791  11.825   7.133   3.748 -0.0772 -0.1030 -0.2509
20938W        W39792   2.222  15.029   0.947  0.3105 -0.0054  0.0842
20939W        W39793  11.553  11.154   4.398 -0.0001  0.2673 -0.1586
20940W        W39794   5.407   9.742   3.863 -0.3184  0.0183  0.1528
20941W        W39795   6.635  10.104   2.450 -0.0728 -0.1348  0.2384
20942W        W39796  11.635  12.778  14.537  0.1005 -0.1193 -0.1507
20943W        W39797   5.948  10.510   1.362 -0.5028 -0.1226 -0.1633
20944W        W39798  11.311   6.600  13.222  0.1520 -0.1513  0.0025
20945W        W39799  15.648   7.624   1.763  0.1534 -0.0451  0.1654
20946W        W39800   1.378   7.120   4.997  0.2118 -0.0168  0.0296
20947W        W39801  10.223   0.075   3.066 -0.0303  0.1205  0.0984
20948W        W39802   3.345   2.816   0.007  0.1845 -0.0854  0.2577
20949W        W39803   0.340  16.957   4.463 -0.2755 -0.1077  0.1894
20950W        W39804   7.081  15.203   2.053 -0.4089  0.1990  0.0637
20951W        W39805  13.955   2.125  16.116 -0.0953  0.2375  0.1017
20952W        W39806  10.377   1.709   4.838 -0.0193  0.1424  0.3225
20953W        W39807  12.551  13.094   3.932 -0.0599  0.1910 -0.0829
20954W        W39808  14.814   0.393   0.409  0.1623 -0.0646 -0.4060
20955W        W39809   2.921  17.049   1.828 -0.0164 -0.2141  0.4780
20956W        W39810  13.204  16.342  15.174  0.3183 -0.0663  0.0036
20957W        W39811   2.644   4.779   0.629  0.2558 -0.1995  0.0023
20958W        W39812  11.041   9.836  16.737 -0.1152  0.2027 -0.1920
20959W        W39813  12.067   2.348   0.859 -0.1625 -0.0241 -0.2971
20960W        W39814   0.925   9.196   4.593 -0.0665 -0.2612 -0.0531
20961W        W39815  15.772  13.619  14.965  0.0927  0.0497  0.3019
20962W        W39816   2.257  17.147   2.079  0.3237  0.0125 -0.1246
20963W        W39817  16.899   8.601   3.686  0.0606 -0.0341  0.0024
20964W        W39818   8.782   8.893  14.637 -0.0738  0.0791 -0.1440
20965W        W39819   5.648   8.960  13.921 -0.1432  0.1599  0.2096
20966W        W39820  14.296   1.749   4.284  0.0183 -0.2129 -0.3075
20967W        W39821   6.793   4.504  16.340  0.0745 -0.0747 -0.2468
20968W        W39822   8.362   4.794   4.975 -0.0338  0.0082 -0.0885
20969W        W39823  10.951  10.903   3.706 -0.4522 -0.1530  0.2594
20970W        W39824   9.637  14.305  12.239 -0.1732 -0.2015 -0.3204
20971W        W39825  15.445  15.227  12.226  0.5416 -0.0126 -0.1569
20972W        W39826   3.456  11.599   0.650  0.3401 -0.2930 -0.1508
20973W        W39827  16.168  14.210  13.593  0.1032  0.1693 -0.2240
20974W        W39828  17.312   2.831   0.524  0.3123 -0.2599  0.0249
20975W        W39829   2.346   7.413   4.650 -0.0889 -0.1783 -0.0452
20976W        W39830   6.448  16.514  12.805  0.2908 -0.2526  0.2128
20977W        W39831  10.936  10.363   3.653  0.4079 -0.3205 -0.0770
20978W        W39832   0.285   7.099  15.989  0.0358  0.2013 -0.1244
20979W        W39833   9.782  10.183   1.370  0.2036  0.0229 -0.1061
20980W        W39834   0.939   0.016   3.169  0.1958 -0.2664 -0.0822
20981W        W39835   4.658   6.456  17.429  0.2221 -0.1607 -0.0281
20982W        W39836  17.199   1.311   3.528  0.0084  0.2056  0.0273
20983W        W39837   6.262   1.865  16.590 -0.0702  0.0279  0.1258
20984W        W39838   4.122   1.147  12.234  0.0336 -0.0484  0.1397
20985W        W39839   8.066  12.480  15.739  0.1774 -0.1837  0.2451
20986W        W39840  11.647   8.764   1.744 -0.0456  0.1908 -0.3063
20987W        W39841   8.627   4.006   5.193 -0.1279  0.0985 -0.2281
20988W        W39842  13.237   4.563  15.937 -0.0076 -0.0051  0.0949
20989W        W39843  17.379   3.833   4.125  0.1972  0.0069  0.1269
20990W        W39844  11.205   9.986  12.350 -0.0015  0.0127 -0.0772
20991W        W39845   4.534  12.762  12.179 -0.0234 -0.2339 -0.1030
20992W        W39846  12.553  15.706  16.594 -0.2585 -0.1999  0.2020
20993W        W39847   4.123   5.242  14.848  0.1164  0.4024  0.0641
20994W        W39848  10.200   5.369  16.674 -0.0134 -0.1051  0.1439
20995W        W39849   5.628  13.658   1.462 -0.0139 -0.0858 -0.0123
20996W        W39850   8.161  16.694  13.110 -0.1790 -0.2492  0.3867
20997W        W39851  10.004  11.785   2.050 -0.0602  0.0223 -0.1638
20998W        W39852  16.173   9.915   4.707  0.3545  0.3074 -0.1530
20999W        W39853  15.042  14.115   0.875  0.2421  0.1255 -0.0373
21000W        W39854  17.169  14.978   3.926 -0.1891 -0.2484  0.0762
21001W        W39855  14.561   6.243   0.659 -0.2592 -0.1034 -0.1202
21002W        W39856  11.393   5.250   2.860 -0.1023 -0.2043 -0.0645
21003W        W39857   8.409   9.112   4.541 -0.0486 -0.0790 -0.0299
21004W        W39858   5.010   5.747   3.653 -0.2253  0.0503  0.2181
21005W        W39859   3.741   0.275   4.474 -0.0670  0.0979 -0.2498
21006W        W39860  14.500  10.933  14.060 -0.1628  0.0498  0.0700
21007W        W39861   4.192   5.174  15.760  0.1698 -0.0976 -0.0017
21008W        W39862   0.588  17.115   5.503 -0.2301 -0.1712 -0.2159
21009W        W39863  16.547   7.075   0.797  0.0135 -0.2157  0.1293
21010W        W39864   3.149   8.477  13.231  0.0379  0.2111 -0.0583
21011W        W39865  12.863   0.676  16.364  0.1581  0.2989 -0.0238
21012W        W39866   0.706  12.270  12.902 -0.0031 -0.0135  0.0208
21013W        W39867   2.935   7.558   1.766 -0.1296 -0.2722 -0.0266
21014W        W39868   9.715  14.816  16.694  0.0552  0.0262  0.1740
21015W        W39869  12.560   9.854  16.952 -0.0607 -0.1206  0.0333
21016W        W39870   9.898   7.344   3.613 -0.2117  0.0991 -0.1050
21017W        W39871   9.584  10.855  16.923 -0.2009  0.1711  0.0982
21018W        W39872  15.589   5.390   1.162 -0.0829  0.1209  0.2465
21019W        W39873   8.189   9.619   0.630 -0.4550 -0.0752  0.0583
21020W        W39874  10.321   9.768   1.045  0.1518 -0.0438 -0.1659
21021W        W39875   4.964   6.873   2.068  0.0113  0.1225  0.0272
21022W        W39876  16.252   8.305   1.192 -0.0067 -0.2514  0.2580
21023W        W39877   7.382   2.579   1.270  0.1116 -0.0067 -0.2458
21024W        W39878   4.543   0.526  13.368 -0.1473 -0.1128  0.0315
21025W        W39879  13.049  13.791   2.177  0.0963  0.0657  0.1130
21026W        W39880   5.005  13.027  12.902  0.0434 -0.0277 -0.1775
21027W        W39881   5.918  11.159  13.121 -0.0386 -0.0920  0.4000
21028W        W39882   9.633   8.902   0.170 -0.0475 -0.0310 -0.0834
21029W        W39883  13.596   2.361  13.291  0.2766 -0.0633 -0.2401
21030W        W39884  12.314   3.703   4.499  0.1030  0.2636  0.0270
21031W        W39885  15.421  14.490   2.747 -0.1280 -0.3273  0.2770
21032W        W39886  15.942   8.195  12.877  0.3396 -0.1433 -0.1108
21033W        W39887   8.502  10.611  16.073 -0.1751  0.0021 -0.1592
21034W        W39888  14.796  16.685   1.993 -0.0844  0.2349 -0.1517
21035W        W39889   6.647  13.720   1.489 -0.4859  0.0043 -0.0455
21036W        W39890  17.048  10.616   4.850  0.0570 -0.0588 -0.0351
21037W        W39891   7.225  11.832  16.570  0.0593 -0.4128  0.1562
21038W        W39892   4.091   8.784  15.693 -0.2320 -0.1468 -0.0142
21039W        W39893  11.030  13.012  15.071 -0.2682  0.2231  0.1523
21040W        W39894   3.105   9.892   3.928 -0.2240 -0.0922 -0.0005
21041W        W39895   0.316   1.621   0.748  0.0343 -0.1377 -0.3492
21042W        W39896   5.660  12.664  15.367  0.0160 -0.2048  0.0889
21043W        W39897  12.990  11.242  15.354 -0.1601  0.0948 -0.0061
21044W        W39898   7.109   3.333  16.923  0.0084  0.2658  0.1627
21045W        W39899  14.338  13.739   2.379 -0.0953  0.0692  0.1775
21046W        W39900   5.982   1.209  12.835 -0.0258 -0.0202  0.0173
21047W        W39901   7.853   3.096  15.652 -0.1504 -0.2029  0.0388
21048W        W39902   1.822   7.271   1.478  0.1382 -0.0695 -0.1502
21049W        W39903  15.127   5.396   2.242  0.1096 -0.0988 -0.1416
21050W        W39904  16.162   3.774   0.597 -0.0182 -0.1501 -0.1169
21051W        W39905  17.095  10.507  11.955  0.0540  0.3200 -0.2605
21052W        W39906  11.930   4.462  13.316 -0.1058  0.0889 -0.3084
21053W        W39907   8.726   8.370   5.026  0.1876  0.3016  0.1371
21054W        W39908  16.218  10.251  12.510  0.1094 -0.2094  0.3425
21055W        W39909  10.131   2.383  15.804  0.2470 -0.0156  0.0338
21056W        W39910  17.374  12.054  17.413 -0.1563  0.0916  0.2203
21057W        W39911  14.515  12.328   0.006 -0.2661  0.2405 -0.0641
21058W        W39912  13.673   7.292  15.146 -0.2232  0.1826 -0.0553
21059W        W39913   7.912  16.318   5.390  0.1916 -0.0612 -0.0667
21060W        W39914  12.682   5.613  16.672  0.1199  0.1699 -0.0303
21061W        W39915   4.644   9.259  15.914 -0.0510 -0.1086  0.0885
21062W        W39916   9.123  14.199   4.998  0.0987 -0.1511 -0.0468
21063W        W39917   1.518   1.540   2.579  0.0178 -0.2783  0.1232
21064W        W39918   1.328   9.705  15.504 -0.0639 -0.0462  0.0088
21065W        W39919   2.863   6.439  16.466 -0.0701 -0.2980 -0.0241
21066W        W39920   8.408   4.047  17.323 -0.0694  0.1792  0.4709
21067W        W39921   8.285   7.368   0.936  0.0384 -0.3017  0.0467
21068W        W39922  11.172   8.753   1.927  0.0126  0.0923  0.2120
21069W        W39923  11.037   9.548   4.983  0.0510  0.1053 -0.0593
21070W        W39924  11.542   8.084  15.328  0.1662  0.3953  0.1699
21071W        W39925   9.161   7.982  14.631  0.0864 -0.0231 -0.0714
21072W        W39926  13.917  13.794   1.985 -0.0225 -0.0268  0.0149
21073W        W39927   6.601  15.696   5.211  0.2790  0.1339 -0.3242
21074W        W39928  14.723   0.265  12.845  0.1672 -0.0757  0.0589
21075W        W39929   0.239   2.118  15.834 -0.2707 -0.0749  0.1430
21076W        W39930   6.293  16.870  14.710 -0.2546  0.2543 -0.3656
21077W        W39931  11.837   9.201   0.393  0.0424 -0.0955 -0.0128
21078W        W39932  14.889   7.943   5.252 -0.2416  0.0655  0.1523
21079W        W39933   9.081  12.717  15.312 -0.1258 -0.1360 -0.1337
21080W        W39934   8.074   0.065   1.559 -0.1117  0.1066 -0.0660
21081W        W39935   5.547   8.668  13.470  0.2347  0.2462  0.1956
21082W        W39936  15.871   4.037   3.623  0.2231  0.1469 -0.1095
21083W        W39937  15.768   5.907   2.556  0.0245 -0.1177 -0.0899
21084W        W39938   8.534  14.877   4.563  0.0799  0.0628  0.2560
21085W        W39939  13.873   0.011   3.795  0.0788  0.2191  0.1303
21086W        W39940   9.672   8.420  12.144 -0.1762  0.0264 -0.1874
21087W        W39941   5.662  14.899   5.067  0.0210 -0.1889  0.3832
21088W        W39942  10.924  12.738  12.605 -0.2180 -0.5147 -0.0833
21089W        W39943   1.860   4.059  13.770 -0.0221 -0.0650 -0.0363
21090W        W39944   6.902  16.226   0.225  0.0904 -0.0796  0.1485
21091W        W39945  15.274   0.472   0.454 -0.0912 -0.1844 -0.1155
21092W        W39946   0.907   4.717   4.969 -0.0619 -0.1213  0.0661
21093W        W39947  14.509   6.097   2.120 -0.2797  0.0489  0.1137
21094W        W39948   0.477  10.768   5.246  0.1709 -0.0749  0.1590
21095W        W39949   7.123  14.052   1.510 -0.4017 -0.1052 -0.0118
21096W        W39950   7.615  16.489   2.579 -0.0786  0.3540 -0.1313
21097W        W39951   9.993   2.775   4.530 -0.0390 -0.1100 -0.1183
21098W        W39952   3.545   1.791  13.047  0.1431 -0.0899  0.3389
21099W        W39953  10.657  12.988   5.087 -0.1028  0.4893  0.1762
21100W        W39954  15.098   1.118  15.919  0.1861  0.3255 -0.1002
21101W        W39955  11.193   3.423   1.130 -0.0552  0.1128  0.0713
21102W        W39956  16.945   0.361   1.406  0.0020  0.1253 -0.0416
21103W        W39957  15.410   1.516  12.505  0.2372  0.0644 -0.1413
21104W        W39958  14.742   6.972  17.391 -0.2170  0.3210  0.5137
21105W        W39959   5.034   3.333  17.248 -0.2690 -0.0793 -0.0629
21106W        W39960   1.731   3.390  17.383  0.1096  0.2647  0.2082
21107W        W39961  13.131  13.479  13.024 -0.1524 -0.1406 -0.0853
21108W        W39962  12.177   5.554   4.615  0.1633  0.2181 -0.2676
21109W        W39963  10.689  10.146  14.006  0.0792  0.1787 -0.1995
21110W        W39964   0.766   9.217  16.491 -0.3189  0.0963  0.1418
21111W        W39965  14.647  10.850  12.930 -0.0579  0.1209 -0.1386
21112W        W39966   6.453   2.180   2.207  0.2350 -0.2269  0.0656
21113W        W39967   8.293   8.344   1.259 -0.0646 -0.1696  0.0118
21114W        W39968   9.759   0.618  17.268 -0.0154 -0.0935 -0.3993
21115W        W39969   6.580   6.723   5.134  0.1425  0.1509  0.2167
21116W        W39970  15.456   3.505  12.215 -0.1022  0.2771 -0.2481
21117W        W39971  10.503   8.889  15.127 -0.2141  0.0185  0.0480
21118W        W39972  10.259  14.001   3.789  0.1525 -0.3699 -0.2274
21119W        W39973  11.613   5.683  16.345 -0.0965 -0.1207 -0.2436
21120W        W39974   4.485  10.998  13.631 -0.0373  0.1343  0.0814
21121W        W39975   2.544   5.454   0.118  0.3656  0.1335  0.1125
21122W        W39976   3.061   4.766  14.569  0.0975  0.2340 -0.0303
21123W        W39977  15.325  10.954  13.449 -0.0904 -0.0998 -0.0897
21124W        W39978  11.065  14.931   0.579  0.2173 -0.1252  0.1200
21125W        W39979   1.369  12.257  17.374 -0.4545  0.3496  0.1516
21126W        W39980   8.327  16.946  16.255  0.2410  0.1295 -0.0339
21127W        W39981   3.841   5.817  16.763 -0.0314  0.0478 -0.0620
21128W        W39982  14.229   6.706  17.279  0.0195 -0.0325 -0.0290
21129W        W39983  15.559  10.579   4.628 -0.1675 -0.0079 -0.0198
21130W        W39984   2.993   2.144   2.112 -0.1900 -0.1700  0.0766
21131W        W39985  14.557   1.512  12.664 -0.1159  0.3386  0.3713
21132W        W39986   7.225  14.516   4.751  0.3658  0.1361  0.1817
21133W        W39987  11.923   7.221  12.730 -0.0327 -0.1445  0.0298
21134W        W39988   2.725  12.050   1.800  0.0372  0.1308 -0.0502
21135W        W39989  16.441   1.157   1.613 -0.1079  0.1309  0.1741
21136W        W39990  12.284  16.381  13.794  0.0762 -0.1437 -0.1104
21137W        W39991   9.040  11.455   1.593  0.4541  0.0481 -0.0901
21138W        W39992  13.187  16.535   5.925  0.0212 -0.2161 -0.2041
21139W        W39993   1.818   9.153  15.890  0.0077 -0.0858  0.0929
21140W        W39994  15.598  14.556  17.263 -0.0700 -0.1372  0.3906
21141W        W39995  12.064  12.189  15.347 -0.0233  0.0669 -0.2351
21142W        W39996  11.587  16.750   3.243 -0.4242  0.3886  0.1398
21143W        W39997   2.701  16.386  14.953 -0.1299  0.0698 -0.1291
21144W        W39998   6.354   7.692  13.866 -0.0939 -0.0413 -0.0418
21145W        W39999   0.466  14.489  13.415  0.1927 -0.2395  0.0792
21146W        W40000   3.627   7.757   4.946  0.1341 -0.1378 -0.1751
21147W        W40001   5.372   8.834  14.985 -0.1454  0.3002 -0.2956
21148W        W40002  10.619  11.142  16.332  0.1041  0.1104  0.1134
21149W        W40003  17.293   6.157   3.778  0.1594  0.0999 -0.0304
21150W        W40004  12.595  12.575  14.442  0.0790 -0.2287 -0.2504
21151W        W40005  14.645  15.639  17.220  0.4786  0.0344  0.1966
21152W        W40006  13.522   8.241  16.253 -0.0262  0.0728  0.0156
21153W        W40007  11.571   4.397   0.754  0.1013  0.0205  0.0240
21154W        W40008   9.872  11.060  14.184 -0.0997  0.1086 -0.2382
21155W        W40009  15.292  14.220   2.229  0.1134  0.0536  0.1395
21156W        W40010   3.496  14.737  15.652  0.1070  0.4731  0.0902
21157W        W40011   8.482  10.443   0.854  0.3668  0.0866  0.2373
21158W        W40012  10.471   7.448  15.981 -0.0914  0.0149  0.1188
21159W        W40013   3.928  11.949  15.732  0.0952 -0.2795  0.0236
21160W        W40014  10.331   3.604  13.268 -0.1799 -0.0165 -0.1317
21161W        W40015   3.338   9.289   0.422 -0.2594  0.0834  0.0707
21162W        W40016   0.077  14.200   0.270 -0.1548  0.1800 -0.3297
21163W        W40017  11.232   7.762   3.977 -0.1521  0.5410  0.1026
21164W        W40018   7.576   0.125   1.558 -0.2040 -0.3125  0.1874
21165W        W40019   0.074   9.817  16.991 -0.0435  0.1487  0.3494
21166W        W40020  12.361   5.069   3.855  0.3425 -0.2838  0.1521
21167W        W40021  13.062  16.015   1.610 -0.0937 -0.1697  0.2719
21168W        W40022   6.083   9.525  13.984 -0.3043  0.0119  0.0318
21169W        W40023  16.585   9.124  15.976  0.3096  0.0149 -0.3628
21170W        W40024  12.641   6.866  14.644  0.1409 -0.0145  0.1781
21171W        W40025  13.608   6.326  17.113  0.0663  0.0739  0.0065
21172W        W40026  12.658  12.631   4.766 -0.2427 -0.0655 -0.0741
21173W        W40027  15.031   7.273  12.722 -0.1058 -0.2068  0.2796
21174W        W40028   4.267  16.444  12.864  0.0697 -0.1631  0.0719
21175W        W40029  14.096   0.539  17.222  0.5820 -0.0023  0.1617
21176W        W40030  14.572  12.680   1.489 -0.1648  0.2476 -0.1347
21177W        W40031  16.907  16.035  15.736  0.1075  0.1006 -0.1419
21178W        W40032   2.559   2.150   0.905 -0.2424  0.0801 -0.2355
21179W        W40033   2.475  16.047   1.018  0.0481  0.2895  0.1771
21180W        W40034   5.450  12.913  16.396 -0.0679  0.1250 -0.0001
21181W        W40035   7.195  13.966  12.279  0.1691 -0.4517 -0.1967
21182W        W40036   9.530  12.218  13.790 -0.0840  0.0378 -0.0627
21183W        W40037   9.438   2.565  12.502 -0.0165 -0.0148 -0.0230
21184W        W40038   5.443   4.351   0.880 -0.0403  0.0157 -0.0348
21185W        W40039  10.328   3.869   3.021  0.2084  0.2653 -0.3159
21186W        W40040  13.215   7.126  13.801  0.3595 -0.0026 -0.0960
21187W        W40041  11.401   6.002   4.493 -0.0905  0.1099 -0.1414
21188W        W40042  17.029   4.061  16.915 -0.0540 -0.0895  0.0263
21189W        W40043   5.603   4.483   1.476  0.2185  0.2087  0.1136
21190W        W40044   4.525  10.350  13.220 -0.2740  0.0620 -0.1689
21191W        W40045   0.826   1.436  13.710 -0.0032 -0.0165 -0.2241
21192W        W40046   9.596   1.330   4.968 -0.1947  0.0956 -0.2296
21193W        W40047  12.678   0.269   3.268  0.0149 -0.1834  0.0287
21194W        W40048  10.552   9.435   0.015 -0.0295 -0.0488 -0.1193
21195W        W40049   4.274  13.788   0.510  0.1674  0.5457  0.2616
21196W        W40050  16.802   6.131  14.115 -0.0833 -0.2426 -0.3312
21197W        W40051   2.708   1.075   2.194  0.0938 -0.0111  0.2103
21198W        W40052   9.903   9.102  13.288 -0.2841  0.0168  0.0992
21199W        W40053   1.379   6.316  15.994  0.0748  0.0909  0.1150
21200W        W40054  13.956  12.469   4.688  0.0913 -0.1182  0.0569
21201W        W40055   2.209   1.213   2.995 -0.1758 -0.2189 -0.2236
21202W        W40056  12.423   5.311   0.036  0.0713  0.2457 -0.0534
21203W        W40057   8.846   6.696  12.844  0.1915 -0.3632 -0.1468
21204W        W40058  11.459   8.864   0.260  0.3221 -0.0226  0.0619
21205W        W40059  12.984   7.071  12.375  0.3856  0.0296  0.0051
21206W        W40060  11.703   2.789   2.506 -0.0148 -0.0272 -0.3825
21207W        W40061  15.429  12.304  14.642  0.1142 -0.0301 -0.1115
21208W        W40062  14.744   3.145  17.480  0.0907 -0.1742  0.0885
21209W        W40063  16.241   6.645  12.935  0.0015  0.3253 -0.1220
21210W        W40064  14.284   9.959   5.093  0.2346  0.0687 -0.0422
21211W        W40065   9.034  14.838  15.864 -0.2248  0.3437  0.0665
21212W        W40066   9.550   8.938   2.188  0.1704  0.2739 -0.0977
21213W        W40067  13.038   9.597   1.587 -0.1318  0.1394  0.0134
21214W        W40068   3.738   0.677   0.275  0.1120  0.0407 -0.0667
21215W        W40069  10.294  15.563   2.961 -0.2727 -0.3062 -0.1836
21216W        W40070  12.619   8.853  12.698  0.0302  0.0941 -0.2183
21217W        W40071  12.406  15.004  17.387 -0.0331 -0.0761  0.0075
21218W        W40072  15.660   4.738   1.532 -0.2720 -0.0567  0.2004
21219W        W40073   2.712  14.592   2.697 -0.2351  0.4625  0.1999
21220W        W40074   0.160  14.787  12.612  0.1261  0.0992  0.1962
21221W        W40075   4.624   8.587   3.602 -0.0138  0.0213  0.0423
21222W        W40076   8.344  17.038   0.823 -0.1086  0.1032  0.0009
21223W        W40077   9.497   8.400  12.604  0.0885  0.1511 -0.3185
21224W        W40078  15.632   8.063  14.877  0.0368 -0.1752  0.2099
21225W        W40079  15.184  13.163  14.566  0.0567 -0.3063 -0.1055
21226W        W40080  12.202   4.638   1.289 -0.0813 -0.0141  0.2888
21227W        W40081   0.488   5.953   2.984 -0.0286  0.2606 -0.0084
21228W        W40082   5.791   8.217   4.196  0.0201 -0.2260  0.0524
21229W        W40083  14.244   9.521   4.832  0.0365  0.1361 -0.2648
21230W        W40084   8.957   8.179  11.579 -0.1227 -0.2525 -0.0556
21231W        W40085  11.602  14.159   3.729 -0.2111  0.0133  0.4807
21232W        W40086   2.491  15.881   2.278  0.1178  0.0687 -0.0779
21233W        W40087  10.368  15.457   0.321 -0.2865  0.2326 -0.0509
21234W        W40088  10.159   2.013   2.309  0.1324 -0.3219 -0.1779
21235W        W40089  15.762   4.118   0.333  0.1375  0.3027  0.0232
21236W        W40090   1.778   0.976   3.216  0.1148  0.2577  0.2404
21237W        W40091   1.586   2.694  17.148  0.1127  0.1456  0.3513
21238W        W40092   4.945  16.668   3.126  0.0363  0.0655 -0.2289
21239W        W40093   9.419   0.714   3.733 -0.0871  0.1983  0.1557
21240W        W40094  11.024  11.552  16.253  0.1885 -0.0718  0.0035
21241W        W40095  13.259  16.592   4.758  0.2625 -0.3268  0.2208
21242W        W40096   0.373  12.056  12.460  0.0428 -0.0602  0.2215
21243W        W40097   3.784   0.477   5.331  0.0673  0.0767 -0.0321
21244W        W40098   7.262  12.875  14.390 -0.0050 -0.3628  0.2303
21245W        W40099   2.180  16.365   1.929 -0.2250  0.2086 -0.0605
21246W        W40100   3.893  15.661   2.368 -0.1058  0.2025 -0.0158
21247W        W40101   5.626  15.518   4.328  0.0392  0.2638  0.0683
21248W        W40102  13.200  12.662  13.596  0.2712 -0.1738 -0.0230
21249W        W40103   1.716  10.709  15.836  0.0650  0.2955  0.3247
21250W        W40104  16.161   9.000   0.049 -0.2045 -0.0318 -0.1228
21251W        W40105   9.190   1.563  14.547 -0.1835 -0.0945  0.1478
21252W        W40106   1.666  15.856   3.084  0.0574 -0.0975 -0.0788
21253W        W40107  12.841   1.543  16.573  0.0172 -0.2432 -0.1884
21254W        W40108  15.000  10.128  12.293 -0.3007 -0.2545  0.0822
21255W        W40109   5.828   0.689   2.255  0.3052  0.0593  0.3015
21256W        W40110   5.283  13.496  13.294 -0.0336 -0.3240  0.3689
21257W        W40111   2.180   8.391   3.895 -0.5273  0.0571  0.0544
21258W        W40112   0.352  11.763  17.449  0.1389  0.0877  0.1245
21259W        W40113  15.734  16.743   2.262  0.2387  0.1693 -0.4490
21260W        W40114   9.133   7.102   1.936 -0.1543  0.3388  0.0875
21261W        W40115  11.994  14.935  12.536  0.1502  0.0839 -0.0202
21262W        W40116  14.302  14.061   0.281 -0.0566 -0.2258 -0.1860
21263W        W40117   5.547  14.235  14.955 -0.2504 -0.1170  0.0548
21264W        W40118  11.825   7.458  16.447 -0.0723 -0.1170  0.2384
21265W        W40119   5.022  11.218  16.514 -0.0164  0.0869 -0.0184
21266W        W40120   1.868  14.543  14.908 -0.3261  0.2392 -0.1223
21267W        W40121   6.618   6.593  15.300  0.5690  0.1247 -0.0897
21268W        W40122   6.491  16.499  16.361  0.1774  0.0529  0.0638
21269W        W40123  16.839  10.209  16.753 -0.1427 -0.1574 -0.1000
21270W        W40124   0.981  14.613  13.353 -0.2560 -0.2580 -0.0118
21271W        W40125  11.916  14.019   4.188  0.1773 -0.0179  0.0303
21272W        W40126  12.045  10.639   0.913  0.0117 -0.1077  0.0643
21273W        W40127   2.306  10.312   4.631  0.3850 -0.0382  0.0846
21274W        W40128   8.783   5.165   3.509  0.1112  0.2839 -0.0490
21275W        W40129   0.875   4.175  15.988  0.0958  0.1775 -0.1355
21276W        W40130  13.729   6.634  16.739 -0.2348 -0.1194 -0.2348
21277W        W40131  10.680   8.035   1.015  0.1798 -0.3163 -0.0687
21278W        W40132   5.772   3.935  15.662  0.2431 -0.2472  0.3158
21279W        W40133   1.871   6.374  12.854  0.0182 -0.3514  0.0662
21280W        W40134   3.622   0.604  15.115  0.0478 -0.2783  0.0841
21281W        W40135  13.710  15.438  16.351 -0.1280 -0.1821  0.3830
21282W        W40136  10.368   5.307  14.906  0.1952 -0.1619  0.2851
21283W        W40137   0.844   7.730  12.660 -0.2739 -0.0145 -0.2573
21284W        W40138   5.221  15.727  16.239  0.2803  0.0767 -0.3108
21285W        W40139   7.455   8.165  12.969 -0.3209 -0.4563  0.1361
21286W        W40140   1.955   2.485  13.602  0.0092 -0.1244  0.1942
21287W        W40141   4.555   9.801   2.840  0.1544 -0.2201 -0.1538
21288W        W40142  11.508   9.566   3.250  0.0232 -0.0456 -0.0953
21289W        W40143   9.590  14.354   1.881 -0.1350 -0.1232 -0.4162
21290W        W40144  12.522   5.944   1.325 -0.1689  0.2057  0.0156
21291W        W40145   9.307  13.967   3.765  0.2486 -0.1261  0.2161
21292W        W40146   6.686  16.665   1.423 -0.0709  0.0991  0.0248
21293W        W40147   8.765   0.848   4.001 -0.1822 -0.2505  0.0290
21294W        W40148   2.664   1.684   0.212 -0.1157 -0.1174 -0.1343
21295W        W40149   8.816   0.424  17.388  0.1691 -0.0581  0.1473
21296W        W40150   2.443   7.996   4.095  0.2181  0.0990 -0.1302
21297W        W40151   6.329   0.522   0.521  0.2025 -0.2370 -0.2216
21298W        W40152   3.727  15.668  14.493 -0.0588 -0.0496  0.1934
21299W        W40153  17.357   5.876   3.025  0.0438  0.2089  0.1515
21300W        W40154   0.899  10.448  13.710 -0.1917 -0.3606 -0.0444
21301W        W40155   8.855   7.423   6.164 -0.2460  0.0572  0.1341
21302W        W40156  10.609   3.873  14.992  0.0543 -0.2641 -0.2388
21303W        W40157   3.252   7.671  15.300  0.4372 -0.0482  0.0392
21304W        W40158  15.798   4.046   0.841 -0.0251  0.0512 -0.0432
21305W        W40159   6.076   6.458  15.044  0.1930 -0.2003  0.3449
21306W        W40160   7.581   1.749  15.491  0.2784 -0.2651  0.1088
21307W        W40161   5.881   0.231  14.513 -0.3780  0.0189  0.2894
21308W        W40162  11.290  15.968  12.826 -0.1006  0.0414  0.1471
21309W        W40163  12.975  15.955  16.343  0.0643 -0.1527 -0.1051
21310W        W40164   8.874   8.496   0.849 -0.1654 -0.0715  0.3346
21311W        W40165   2.076   8.312   0.784  0.2302  0.1245  0.2041
21312W        W40166   4.425  16.878  17.073 -0.0663  0.0064 -0.0111
21313W        W40167  13.885  15.797  13.316  0.0871 -0.0860  0.1240
21314W        W40168   6.019  13.249  16.403 -0.3369  0.0615  0.3395
21315W        W40169   0.763   5.200   1.261  0.1731  0.0044  0.0660
21316W        W40170   9.391   3.762  13.465 -0.3246 -0.2939 -0.2339
21317W        W40171  16.884   4.340   2.903  0.0310 -0.0226 -0.0183
21318W        W40172   6.145  15.966   6.388 -0.0334  0.0545  0.0011
21319W        W40173  14.548   7.952  17.237  0.0936 -0.0427 -0.0997
21320W        W40174   4.684   7.241  14.044 -0.0363  0.1447  0.0217
21321W        W40175  10.081   2.422   1.901 -0.0607 -0.0166  0.1083
21322W        W40176  12.838   3.925   1.105  0.0200  0.0457  0.0806
21323W        W40177   5.369  13.983  14.575  0.1868 -0.1057 -0.0869
21324W        W40178   7.697  16.592   1.306 -0.2584 -0.1335  0.0705
21325W        W40179  17.274   0.333   2.626 -0.0174 -0.0184 -0.3260
21326W        W40180  10.021  12.364  15.125  0.0782  0.0773 -0.0685
21327W        W40181  12.984  15.817   5.179 -0.0214 -0.0780  0.1079
21328W        W40182   1.709   3.196  15.301 -0.0987  0.1126  0.0695
21329W        W40183   3.725  13.344  13.594 -0.3842  0.1612 -0.2315
21330W        W40184   5.526  13.766   2.896  0.0186  0.2072 -0.0387
21331W        W40185   9.700   7.535  13.608  0.2256  0.2580 -0.0317
21332W        W40186  17.070  11.855  16.965 -0.0819 -0.0514 -0.1106
21333W        W40187   3.323   7.754   1.545 -0.3471  0.1361  0.1549
21334W        W40188   1.769   4.325   0.113 -0.3874  0.2504 -0.0950
21335W        W40189  16.363  11.000  14.757  0.1726  0.1072  0.1684
21336W        W40190   4.167   5.174  17.088  0.0324  0.0924  0.1296
21337W        W40191   3.830   8.790   1.724  0.0891 -0.3548 -0.0667
21338W        W40192   3.936   0.978   3.032  0.4347  0.0863 -0.0815
21339W        W40193  10.911   4.276  13.011 -0.3557 -0.1975  0.3071
21340W        W40194   8.521  15.376   0.390  0.0597 -0.0844 -0.1236
21341W        W40195  16.189  10.750  13.316  0.0177 -0.0431 -0.1300
21342W        W40196  17.237   1.488   4.802 -0.1089  0.1659 -0.1935
21343W        W40197   3.284  14.036  14.932 -0.0814  0.2712  0.0726
21344W        W40198  16.297   3.614   1.067 -0.0152  0.1270 -0.0463
21345W        W40199   6.491  16.195   2.111  0.0919 -0.0662  0.0712
21346W        W40200  13.692  10.984   0.342 -0.3252  0.0704  0.0247
21347W        W40201  11.320   0.028   0.700  0.0374 -0.1798  0.2664
21348W        W40202   4.258  11.448   2.391  0.2609  0.0740  0.1910
21349W        W40203   6.201  13.431   2.380  0.0954 -0.3494 -0.0376
21350W        W40204  15.487   8.565   3.432  0.1061 -0.1721  0.0912
21351W        W40205   5.218   6.766   3.402 -0.2299  0.0114  0.2266
21352W        W40206  11.853  10.619   2.665  0.3156  0.0692 -0.0768
21353W        W40207  12.321  12.307  14.824 -0.2483  0.3062  0.0030
21354W        W40208  17.363   9.649   1.633 -0.0742  0.2604 -0.1052
21355W        W40209   8.020   5.530   2.200 -0.0077  0.5162  0.1089
21356W        W40210   4.194   2.595  12.683 -0.1136  0.1778 -0.0253
21357W        W40211  11.314  15.299   4.699 -0.0042 -0.0603  0.2914
21358W        W40212   1.814   9.297   2.516 -0.1391  0.0386 -0.1248
21359W        W40213  13.147  15.612   1.049  0.0199  0.0146  0.0400
21360W        W40214   7.175  15.333  17.114 -0.1232 -0.1417 -0.1437
21361W        W40215   1.724  14.446  14.046 -0.0846  0.0914  0.0195
21362W        W40216  10.842  13.300   2.127  0.3198  0.1361 -0.1993
21363W        W40217   1.703  11.229  16.207  0.0502  0.0916  0.1337
21364W        W40218   5.498   1.894   1.081 -0.0082  0.2632  0.2908
21365W        W40219   0.773  11.763   3.369  0.2512 -0.1582  0.1001
21366W        W40220   6.369   9.216   4.691 -0.1479  0.0539  0.0597
21367W        W40221  12.107   2.790   0.005  0.1159 -0.2116 -0.1325
21368W        W40222   3.344  12.772   2.909  0.0877 -0.0084 -0.2065
21369W        W40223  15.339   0.817   4.016  0.6890 -0.1781  0.0407
21370W        W40224  11.785   0.451  16.947 -0.0107  0.0999  0.1609
21371W        W40225   4.731  11.304   5.195 -0.0952 -0.1576  0.0550
21372W        W40226   9.906   9.892   1.897  0.0658  0.1254 -0.1257
21373W        W40227  15.031   0.735   5.294  0.3575  0.0965 -0.0624
21374W        W40228  12.236  16.558   4.274  0.0956  0.1208 -0.0942
21375W        W40229   7.047   7.978  15.409 -0.1382  0.2019 -0.0723
21376W        W40230  12.727   2.774  14.632  0.0857 -0.3268 -0.0232
21377W        W40231   9.125   3.344  13.354  0.1169 -0.0293 -0.0660
21378W        W40232   9.526   6.076  16.357 -0.1493 -0.1447  0.2773
21379W        W40233   3.882   3.477   2.485 -0.1822 -0.3205 -0.0383
21380W        W40234  12.745   1.205   0.688 -0.0884 -0.0277 -0.3215
21381W        W40235  12.963   6.479  12.472  0.0533  0.0100  0.1061
21382W        W40236  14.395  14.070   5.482 -0.1190  0.0403  0.0300
21383W        W40237   2.326  14.390  17.318  0.2171 -0.0737  0.1689
21384W        W40238   8.780  14.623   4.167  0.3646  0.2871  0.2350
21385W        W40239   5.754   0.537  16.797 -0.1515 -0.4385  0.0298
21386W        W40240  15.168  13.298  13.608  0.0991  0.2589 -0.1184
21387W        W40241  12.788  12.837   5.210 -0.0655  0.0226  0.1627
21388W        W40242  13.109  13.297  14.293  0.0108 -0.2804 -0.0323
21389W        W40243   2.084  15.207   4.218  0.0556  0.1721  0.2183
21390W        W40244  14.135  10.551   1.501  0.0905  0.1244 -0.1365
21391W        W40245  14.783  16.686  13.909  0.3395 -0.0389  0.1156
21392W        W40246   2.412  10.085  16.397  0.0709  0.1259 -0.0638
21393W        W40247   0.178  11.693   4.732 -0.0540  0.2816  0.3380
21394W        W40248  14.420   6.681  13.747  0.1091  0.0490  0.2720
21395W        W40249   0.991  14.757  16.633 -0.2600 -0.1463  0.0976
21396W        W40250  12.929   9.767   2.862 -0.0588 -0.0234 -0.0459
21397W        W40251   1.511  13.924  16.913  0.5003  0.0760  0.1149
21398W        W40252  11.262   9.008  12.543  0.1068  0.2562  0.1247
21399W        W40253  14.097   0.889  16.117  0.4197 -0.0417  0.4991
21400W        W40254  14.695  15.925  15.289 -0.1763  0.1177  0.2110
21401W        W40255   9.398   3.322  16.160 -0.3279 -0.0113  0.1261
21402W        W40256   4.524   5.245  16.609 -0.0043  0.2016 -0.1822
21403W        W40257   5.724  12.576   5.189  0.1960  0.1091  0.1757
21404W        W40258   9.223   3.651  14.773 -0.2575 -0.0631  0.0481
21405W        W40259  13.894  10.884   3.442 -0.1464 -0.2484 -0.0191
21406W        W40260   8.357  16.585   5.360  0.0530  0.1050 -0.0237
21407W        W40261   4.682   9.950  17.050 -0.0051  0.0945  0.1095
21408W        W40262  10.660  15.201  16.807 -0.2232  0.0001  0.0872
21409W        W40263  13.723  14.231  17.005  0.1168  0.1918  0.2748
21410W        W40264  12.346   8.258   3.348  0.3412  0.0710 -0.2343
21411W        W40265  10.732  11.998   3.965 -0.0284  0.0390 -0.2300
21412W        W40266   3.483   0.978   1.783  0.0220  0.3921  0.0226
21413W        W40267  14.935  10.094  15.599  0.0777  0.2435  0.0226
21414W        W40268   7.464   2.387   4.767 -0.1548  0.0054 -0.0618
21415W        W40269   5.461   0.185   4.373 -0.1267  0.0911 -0.0416
21416W        W40270   9.704   6.803  14.231  0.2221  0.0573  0.2228
21417W        W40271   4.027  17.313   1.294 -0.2320  0.0165  0.1505
21418W        W40272   0.036   2.556  15.011 -0.1756  0.1566  0.1776
21419W        W40273   6.502  12.281   0.622 -0.1074  0.0550  0.2674
21420W        W40274  14.705  12.914  15.901 -0.0940  0.1118 -0.0808
21421W        W40275   4.468  14.120   2.245 -0.1293  0.0234  0.1173
21422W        W40276   8.313   1.661  14.539 -0.0558  0.1824 -0.0371
21423W        W40277  13.443   3.369  16.754 -0.1965 -0.2346 -0.0764
21424W        W40278  12.686  10.275  16.105 -0.0241 -0.0936  0.0357
21425W        W40279   2.330  16.415   5.178 -0.0670  0.1855  0.0918
21426W        W40280  10.143  10.230   4.297 -0.2022  0.3304  0.1503
21427W        W40281   2.221  13.636   5.957  0.0800  0.0195 -0.2319
21428W        W40282   9.298   4.805  12.491  0.1429 -0.1012 -0.2088
21429W        W40283  12.402  13.450   4.633  0.1389 -0.1506  0.0995
21430W        W40284   6.829  10.627   1.704  0.0359  0.1894  0.2438
21431W        W40285  11.565  11.133  14.113  0.0577 -0.0162 -0.1420
21432W        W40286  14.208  15.160   0.032 -0.0314  0.1579  0.0900
21433W        W40287   0.900   4.405   0.329  0.0283 -0.4779 -0.1332
21434W        W40288   2.786  13.770  17.216  0.1775  0.0956 -0.5455
21435W        W40289  15.970   5.151   0.284  0.0635 -0.0949 -0.1170
21436W        W40290  11.738   8.040  13.691 -0.0261  0.1690  0.5146
21437W        W40291  12.236   1.843   0.034  0.0784  0.2771 -0.0417
21438W        W40292  10.363   7.422   3.567  0.2422  0.1945  0.1156
21439W        W40293   4.606  13.577  15.562 -0.0700 -0.0051  0.1502
21440W        W40294  13.036   2.966   0.954 -0.0290  0.0753  0.3063
21441W        W40295   5.147  12.050   3.267 -0.1439  0.1070 -0.1174
21442W        W40296  15.233   0.018   4.693  0.0313 -0.1938 -0.1974
21443W        W40297  17.241  14.789   3.271  0.3369  0.0183  0.1950
21444W        W40298  16.891  14.686  13.508 -0.3302  0.0542 -0.1326
21445W        W40299  14.596   0.664   1.764 -0.1425 -0.0854 -0.2438
21446W        W40300   9.833   3.488  13.382 -0.0308 -0.2050  0.2313
21447W        W40301   5.639  13.239  15.450 -0.0274  0.1859 -0.0703
21448W        W40302  11.988  14.553   3.954  0.1972 -0.0973 -0.1416
21449W        W40303   9.127   0.823  15.334  0.1364  0.1846  0.0478
21450W        W40304   5.920  14.479   5.019  0.1754  0.0430 -0.0606
21451W        W40305   8.999  16.548  15.531 -0.3146 -0.1914  0.1960
21452W        W40306   7.901   0.807   0.124  0.2143  0.1978 -0.1637
21453W        W40307   0.992  11.986   0.113 -0.1406 -0.3449  0.0970
21454W        W40308  13.788  11.711  14.166 -0.3031  0.1098  0.0004
21455W        W40309   3.497   7.382  15.610  0.1187 -0.1845 -0.0728
21456W        W40310  16.979   3.468   2.792  0.4333 -0.1485  0.1533
21457W        W40311   7.850   4.105  17.073  0.0829  0.0213 -0.0905
21458W        W40312   7.001   4.188   3.362  0.0516 -0.0362 -0.2761
21459W        W40313  11.030  17.309  14.490 -0.0436 -0.0644 -0.1837
21460W        W40314  17.072   7.703  14.096 -0.1609 -0.0112 -0.1974
21461W        W40315   4.359   9.403   1.309  0.1061 -0.0544 -0.1087
21462W        W40316  15.491   4.486  17.477 -0.0664 -0.0708  0.0811
21463W        W40317   6.471   4.112  16.427 -0.1146 -0.0866  0.1707
21464W        W40318   1.340  12.661  17.038 -0.1790 -0.1862  0.0907
21465W        W40319   6.626  12.378   4.891 -0.1305 -0.0845  0.0289
21466W        W40320   3.382   4.985  14.197 -0.2373  0.2468 -0.0546
21467W        W40321  13.202   5.653   4.100  0.1780  0.0641  0.1015
21468W        W40322   2.488   2.938  14.829  0.1163  0.0212 -0.2704
21469W        W40323   8.959   0.748   4.441  0.1821 -0.3405  0.0349
21470W        W40324  10.379   7.239  13.059  0.0573  0.0058  0.4425
21471W        W40325   9.105   1.267  16.105  0.0575  0.2226  0.0676
21472W        W40326   4.469   3.403  16.368 -0.2583  0.2701 -0.0246
21473W        W40327   0.417  16.701  12.180  0.1602 -0.0562  0.0827
21474W        W40328  12.494  11.179   1.348  0.0150  0.2677  0.0975
21475W        W40329   9.303   1.258  12.088  0.0427 -0.1980  0.2298
21476W        W40330  11.309   1.954  12.430  0.1012 -0.0408  0.0695
21477W        W40331   9.496   5.319  17.080 -0.2207 -0.1543  0.0538
21478W        W40332   6.422   7.001   3.713 -0.2413 -0.2802 -0.1388
21479W        W40333  16.623   4.011  13.079 -0.1844 -0.1199 -0.0878
21480W        W40334   2.763   6.234  12.986  0.1804  0.0975 -0.0948
21481W        W40335   4.840  16.149   0.533 -0.0154 -0.1233 -0.0048
21482W        W40336  11.982  16.096   2.352  0.1914 -0.0556 -0.0433
21483W        W40337   9.158   2.705  15.497 -0.1863 -0.0938  0.0084
21484W        W40338  14.065  15.315  15.153 -0.2233  0.0393  0.0359
21485W        W40339  13.967  14.678   1.734  0.0659 -0.1068  0.3331
21486W        W40340  16.134  10.756  12.462 -0.0305  0.2229  0.1342
21487W        W40341   1.866   4.234   4.799  0.0111 -0.0549 -0.0690
21488W        W40342  11.871   3.192  14.413 -0.0888 -0.4215  0.0439
21489W        W40343  12.605  10.642   2.995  0.0091  0.3896  0.0949
21490W        W40344   5.340  15.442   1.458 -0.1083  0.2746 -0.0569
21491W        W40345   4.097   3.783  13.134  0.3533  0.0908 -0.1350
21492W        W40346   5.326   9.209   3.970  0.1193 -0.0118 -0.2029
21493W        W40347  13.632  13.401   4.357 -0.0138 -0.0452  0.2999
21494W        W40348   4.302  15.378  15.836 -0.0577 -0.0877 -0.0794
21495W        W40349   4.131  11.947   0.505 -0.0492  0.0269 -0.0407
21496W        W40350   9.531  11.239  16.597 -0.0046 -0.1177  0.1589
21497W        W40351   1.232   2.833  12.964 -0.0026 -0.0535  0.3360
21498W        W40352   0.283   3.489   1.683 -0.2016  0.2960 -0.0724
21499W        W40353   5.920   5.393  14.523  0.3853 -0.2187  0.3249
21500W        W40354  12.739  13.500   1.864 -0.1091 -0.0326 -0.0543
21501W        W40355   3.389  14.418   2.929 -0.0630  0.0911 -0.4978
21502W        W40356  11.107   4.205  14.057 -0.2123  0.1043 -0.2518
21503W        W40357   6.187  11.998   2.463 -0.1955 -0.2555  0.0004
21504W        W40358  14.722  13.740  16.970  0.0959 -0.2579  0.2306
21505W        W40359  17.318   1.270   3.022 -0.1300  0.3481 -0.0921
21506W        W40360  10.107  16.940  12.675 -0.1373 -0.3578  0.0747
21507W        W40361  13.660   8.275   1.377  0.0412 -0.0249 -0.3456
21508W        W40362   6.951   8.777  14.034  0.2138  0.0572  0.0393
21509W        W40363   1.851  11.694  16.786  0.2042  0.1044 -0.0988
21510W        W40364   8.036   7.567   4.703  0.0886 -0.0372  0.2961
21511W        W40365   9.332  14.097   0.789 -0.2310 -0.0069  0.0862
21512W        W40366  14.264   3.717  16.298 -0.3369 -0.0636 -0.0820
21513W        W40367  13.965   7.418  15.970  0.0409  0.0517  0.4323
21514W        W40368   8.874  17.205  13.263  0.0740 -0.2272  0.0083
21515W        W40369   0.170   1.952   4.108  0.1926 -0.1993  0.1258
21516W        W40370   1.515  10.771  14.551 -0.0304 -0.1364  0.1635
21517W        W40371   4.228  15.736  14.268 -0.0199 -0.1257 -0.1400
21518W        W40372  14.538   7.994   4.234 -0.1009  0.1099 -0.3643
21519W        W40373   8.380  11.128   2.839  0.0385 -0.3416  0.0366
21520W        W40374  15.060  15.344  14.540 -0.2843  0.2493 -0.0982
21521W        W40375  10.106   2.905  15.685 -0.1958  0.2229 -0.0442
21522W        W40376   0.265  13.413   2.079 -0.1549  0.1228  0.0892
21523W        W40377   0.255   0.045  14.865  0.2431 -0.1502  0.0012
21524W        W40378  15.216  10.012   1.965 -0.2169  0.1306 -0.4356
21525W        W40379  13.500  14.987  14.959 -0.1522  0.3667  0.1061
21526W        W40380   9.927  15.353  12.854 -0.0767 -0.0950  0.0211
21527W        W40381   4.392  12.484   2.848  0.0467  0.2140 -0.0507
21528W        W40382  16.479  10.063  14.268 -0.0723 -0.0019  0.0860
21529W        W40383   8.786  15.783   0.531 -0.1795  0.0291 -0.3830
21530W        W40384  14.425  13.852   4.830 -0.1715 -0.0529  0.3118
21531W        W40385   9.039   5.123  16.218 -0.2204  0.2140 -0.1840
21532W        W40386   7.258  14.745  14.616  0.0808  0.0990  0.0023
21533W        W40387  14.133  16.841  16.023 -0.0780  0.0775 -0.2244
21534W        W40388   5.794   8.470   3.160  0.0793  0.1667 -0.2486
21535W        W40389   4.224   2.503  14.458  0.1143 -0.0401  0.2418
21536W        W40390   0.317  11.947  12.965  0.1257  0.3598  0.1556
21537W        W40391   1.934  10.992   0.453  0.0341 -0.1030  0.0844
21538W        W40392  10.028  11.373  15.795  0.0710 -0.0607  0.0835
21539W        W40393   8.896  16.551  17.484 -0.1675  0.3406  0.0368
21540W        W40394  13.847  11.221  17.222  0.1886 -0.0080 -0.0243
21541W        W40395   8.619  15.612   1.266  0.2173 -0.2137  0.2064
21542W        W40396   2.452   8.670  16.498 -0.1072 -0.2074  0.1554
21543W        W40397   2.557  12.662  12.957  0.0760  0.0339  0.0607
21544W        W40398  13.627   7.072   4.274 -0.0423  0.3115 -0.0788
21545W        W40399  13.236  16.843   1.573  0.0547 -0.0632 -0.4121
21546W        W40400   9.554  11.707   0.231  0.2224 -0.2165  0.3654
21547W        W40401  14.066  15.022   3.614 -0.3325 -0.0426 -0.0248
21548W        W40402   3.583  16.573   1.972 -0.2448 -0.1814  0.1218
21549W        W40403   1.893  15.153   5.393 -0.0501  0.0136 -0.1500
21550W        W40404   4.126  17.060  15.207  0.0762  0.0489  0.1398
21551W        W40405  16.510   7.616  16.312  0.0458 -0.2101  0.2180
21552W        W40406  10.189   9.781   3.734 -0.3526 -0.1802  0.1088
21553W        W40407   5.170   3.207   4.854  0.0285 -0.1971  0.0702
21554W        W40408   3.208  12.104  13.258  0.0126  0.0528  0.0004
21555W        W40409  14.804  11.614  13.593 -0.3136  0.1264 -0.2665
21556W        W40410   0.376   4.051   2.401  0.0943 -0.0943  0.0361
21557W        W40411   7.733  13.474  17.316 -0.2262  0.1662 -0.1013
21558W        W40412  12.630  12.056   4.814  0.3609  0.0603 -0.1588
21559W        W40413   5.054   5.891   3.059  0.1053  0.0235  0.0682
21560W        W40414   4.893  13.190  13.936 -0.2082 -0.0394  0.3596
21561W        W40415   8.678   3.531   1.837  0.2855  0.0458 -0.2534
21562W        W40416  12.474  13.745   2.801  0.1545  0.1824  0.0162
21563W        W40417  16.505   7.015  12.620  0.0020  0.1337  0.2635
21564W        W40418   6.711  17.103  13.757 -0.1722 -0.2568 -0.2012
21565W        W40419  11.628  12.484   0.772 -0.0516 -0.0691  0.1314
21566W        W40420  11.658  11.814   2.708 -0.0647 -0.0153  0.3975
21567W        W40421   1.159   5.978  13.706  0.0940 -0.0285  0.0357
21568W        W40422  15.625   9.808  14.524  0.0903 -0.0503  0.3299
21569W        W40423   5.352   3.946   4.003  0.0109  0.2412 -0.1036
21570W        W40424  12.102   8.768  16.023 -0.1669 -0.0067  0.2269
21571W        W40425   8.771  15.145   1.739  0.1471 -0.3483 -0.1069
21572W        W40426   8.717   2.123   2.208  0.1257  0.0115 -0.0099
21573W        W40427   1.285   7.977  15.479  0.0145 -0.0132  0.1972
21574W        W40428  10.374   0.636  14.616 -0.1780  0.0790  0.1155
21575W        W40429   1.223   6.200   0.624  0.0967  0.2567 -0.1109
21576W        W40430   3.656   4.563   0.705 -0.3770 -0.2709 -0.0063
21577W        W40431   3.804   0.989   3.517  0.0041 -0.1136 -0.0404
21578W        W40432   1.982   5.628   4.691  0.2848  0.1439  0.1720
21579W        W40433   5.114   6.667  14.938 -0.0320  0.2321 -0.0041
21580W        W40434   2.414   1.271   1.050 -0.1561 -0.1852  0.0261
21581W        W40435   1.625  16.152   2.616 -0.1680 -0.0125 -0.0600
21582W        W40436   0.097  17.338   4.687  0.0572 -0.0747 -0.1946
21583W        W40437   9.009   8.525  15.532  0.3845 -0.0463  0.0672
21584W        W40438   0.230   4.317  17.430 -0.3631 -0.4088 -0.2449
21585W        W40439  16.174   8.102   5.253  0.2080  0.0865 -0.1542
21586W        W40440   1.152   3.240  14.064  0.0159  0.0302 -0.0525
21587W        W40441  10.653   0.369   4.364 -0.0654  0.0774 -0.0678
21588W        W40442  15.546   9.765   2.794 -0.0772  0.0838 -0.2229
21589W        W40443   6.855  15.468  13.674  0.0347 -0.1648 -0.0073
21590W        W40444  16.197   3.826  15.761  0.1171  0.1298  0.1363
21591W        W40445   9.118  10.875  17.004  0.1598  0.1557  0.0961
21592W        W40446  17.155   5.783  15.949 -0.1641  0.1250  0.1800
21593W        W40447   8.107  10.840   1.019  0.0747 -0.2535  0.0707
21594W        W40448   1.782  12.876   4.547 -0.2644 -0.1419 -0.1552
21595W        W40449  10.186   5.770   0.039  0.3891  0.0680 -0.1681
21596W        W40450   3.349   4.827  13.736  0.3912  0.2325 -0.1275
21597W        W40451   7.697  13.290  12.990  0.0164 -0.3960 -0.1796
21598W        W40452   1.231  10.268   1.476  0.0165 -0.0087 -0.1464
21599W        W40453  15.028  12.904   1.281  0.2639  0.2345 -0.0973
21600W        W40454  11.955   3.724  16.152  0.0675 -0.0701 -0.1160
21601W        W40455   2.225   7.150  15.998 -0.0579 -0.2862 -0.2729
21602W        W40456  15.988  15.362   3.186  0.3637  0.2921  0.1040
21603W        W40457   6.747  11.883  14.072  0.0515  0.1542  0.0496
21604W        W40458   2.588  10.029  14.910 -0.1374 -0.0815 -0.1543
21605W        W40459   8.058  11.694   1.995 -0.2241  0.0283  0.0878
21606W        W40460   3.283  10.030   0.913 -0.2620 -0.0661 -0.1121
21607W        W40461  10.250  14.263   2.533  0.0320  0.2261  0.0947
21608W        W40462  13.711  10.303   1.558 -0.2810  0.2874 -0.0555
21609W        W40463   0.094   1.192   3.922 -0.2700  0.2640  0.0125
21610W        W40464  17.349   3.026  13.963  0.2086  0.1318  0.1178
21611W        W40465   2.187  14.975   0.454  0.1898  0.0076 -0.1514
21612W        W40466   6.289  12.737  15.367 -0.0281  0.0364  0.1878
21613W        W40467  13.338   5.564  15.756  0.1510 -0.2751 -0.0567
21614W        W40468   6.701  13.941  14.997  0.0921 -0.0098  0.1243
21615W        W40469   8.779   7.363  14.044  0.2310 -0.2903 -0.0702
21616W        W40470   1.874   9.729   2.963  0.0702  0.1908  0.2165
21617W        W40471  10.120  14.466  14.206 -0.3007 -0.0631 -0.0532
21618W        W40472   8.659  16.667   0.396 -0.1755  0.0116 -0.0633
21619W        W40473  16.946   5.955   4.089  0.0822 -0.1300 -0.0238
21620W        W40474  11.959   7.826  15.085 -0.2727  0.1004 -0.0783
21621W        W40475  17.057  16.875  13.350 -0.0837  0.0294  0.3543
21622W        W40476  15.154  15.388  12.595 -0.0876 -0.0324 -0.0345
21623W        W40477   0.087   0.772  16.188  0.0072  0.1556 -0.0933
21624W        W40478  14.751   7.482  17.114 -0.1478  0.2278 -0.2626
21625W        W40479  15.190  16.579   1.392  0.1387  0.3367  0.0733
21626W        W40480  14.359  16.520   4.041 -0.0786 -0.0416  0.2186
21627W        W40481   6.652  12.866  13.136 -0.1061 -0.0667 -0.1959
21628W        W40482   0.505  12.638   3.315  0.0760  0.1025  0.1134
21629W        W40483   0.248  10.973  14.413 -0.0635  0.0499 -0.0091
21630W        W40484   0.374   4.138  15.898 -0.0471 -0.1512  0.0633
21631W        W40485   2.000   5.546   0.006  0.1030 -0.1045  0.0033
21632W        W40486  11.871   8.890  14.916 -0.1522  0.2070  0.2036
21633W        W40487  16.499  14.610  15.433  0.3010 -0.1845 -0.0337
21634W        W40488  12.188   8.440  14.374  0.4309 -0.3872 -0.1040
21635W        W40489  15.965  17.268   3.397 -0.1285  0.1548  0.2089
21636W        W40490   9.198   1.249  13.058  0.1114  0.1956  0.0645
21637W        W40491  16.741   8.851  16.835 -0.1913 -0.0679  0.1615
21638W        W40492   5.540  10.982  14.040 -0.1041 -0.1937 -0.1384
21639W        W40493  11.969  15.989   5.068 -0.2647  0.0072 -0.2735
21640W        W40494   5.426   7.775   0.449 -0.1462  0.1810  0.1848
21641W        W40495  10.315   7.379   1.108 -0.2177 -0.0331  0.3526
21642W        W40496   4.483  17.002   1.799  0.0380  0.0056 -0.1112
21643W        W40497  16.590   7.850   5.385 -0.0996  0.0824  0.0163
21644W        W40498   1.974  14.742  14.443 -0.1549  0.3908 -0.0496
21645W        W40499  16.069   5.987   4.271  0.1546  0.3812  0.2735
21646W        W40500   8.957  15.421   2.359  0.1036  0.1133  0.2780
21647W        W40501   7.607   4.715  15.857  0.0293 -0.1145  0.2515
21648W        W40502  17.348  13.096   4.977  0.0818 -0.0123 -0.1233
21649W        W40503   4.613  10.868  14.071 -0.0374 -0.0981  0.1883
21650W        W40504   3.575   9.800   3.804 -0.1184 -0.1157 -0.0254
21651W        W40505   2.780   4.595   4.345 -0.3361 -0.0174 -0.0045
21652W        W40506  10.070  15.620   5.148  0.0295  0.1132  0.0064
21653W        W40507  14.611   1.523  13.992  0.2794  0.0403 -0.1093
21654W        W40508  12.347  11.886   4.093  0.0873 -0.0155  0.1328
21655W        W40509   9.593  15.982  17.226  0.0789  0.2136 -0.1136
21656W        W40510   0.160  12.324   0.412  0.0092 -0.2439  0.0538
21657W        W40511  16.233   0.584   5.322 -0.1674  0.3129 -0.2225
21658W        W40512  14.458   4.603  17.368 -0.1746  0.1541  0.0070
21659W        W40513   0.912  16.287  13.472 -0.2317  0.3336 -0.1745
21660W        W40514   3.550  12.852   5.113 -0.4862  0.0549 -0.2481
21661W        W40515   9.290  15.045  13.879 -0.0998  0.0932  0.3512
21662W        W40516  11.300   6.283   2.895  0.0249  0.1656 -0.1362
21663W        W40517  14.944  14.540   4.571 -0.1928  0.3168 -0.2759
21664W        W40518   0.744   0.754  15.593 -0.1579  0.0752 -0.1731
21665W        W40519  15.439  12.698  13.866 -0.1296 -0.2238  0.3451
21666W        W40520  11.106   9.874   1.852  0.0460  0.1187 -0.0162
21667W        W40521  11.764  16.133   3.650 -0.0493  0.1328  0.0292
21668W        W40522   0.595  17.050  12.762 -0.2336  0.1036  0.0390
21669W        W40523   2.054   1.551   2.611 -0.0414  0.1320 -0.0964
21670W        W40524   3.371   9.594   1.238  0.1103 -0.2963  0.0041
21671W        W40525   3.221   7.974   4.257 -0.1399  0.2380  0.2481
21672W        W40526   0.274  15.266  16.299 -0.1771  0.3275 -0.1012
21673W        W40527   1.893  16.363  13.039  0.0333  0.0211 -0.0561
21674W        W40528  10.543   8.894  16.083  0.1023  0.0800 -0.0090
21675W        W40529  11.642   8.800  12.778 -0.0448  0.1734  0.0021
21676W        W40530  15.970   5.810   3.425 -0.0055 -0.0425 -0.0243
21677W        W40531   9.721  15.562   2.980 -0.2894 -0.2182 -0.1828
21678W        W40532   0.128   9.124  12.176 -0.2853 -0.0852 -0.0188
21679W        W40533   8.977  17.405   1.754 -0.1745  0.0090  0.0744
21680W        W40534  10.563   8.877   1.978  0.0190 -0.0017  0.2593
21681W        W40535  10.111   4.211   0.889 -0.2879  0.0131  0.3082
21682W        W40536  15.398   5.715   0.388 -0.0273  0.3453  0.3280
21683W        W40537  11.605   6.031   1.205 -0.0246  0.0872 -0.0535
21684W        W40538   2.330   6.067  15.997  0.0330 -0.0393  0.3142
21685W        W40539   0.688  10.828   0.720 -0.0403  0.2179 -0.0780
21686W        W40540  11.950   1.684  13.172 -0.0679 -0.0726  0.3037
21687W        W40541  13.314  13.456   2.518  0.2595  0.0935  0.4222
21688W        W40542  15.398  17.175  15.971 -0.0652 -0.0469 -0.0502
21689W        W40543   4.621   3.141   4.839  0.0220 -0.0687  0.1659
21690W        W40544  11.401   7.504  15.843 -0.0380 -0.1271 -0.0637
21691W        W40545  16.265  10.425  15.501 -0.0036 -0.0436  0.3241
21692W        W40546   0.261  14.526  13.938  0.3079 -0.2039  0.1720
21693W        W40547   6.825   3.173   0.417  0.0327  0.3443  0.2932
21694W        W40548  13.305   4.804   3.739 -0.0642  0.1008 -0.1694
21695W        W40549   9.294   6.244  13.367  0.2305  0.2331  0.0555
21696W        W40550   0.304   6.265  12.550  0.2504  0.0686  0.3669
21697W        W40551   3.923  11.097   4.392 -0.0545  0.0422 -0.0542
21698W        W40552  11.028  17.356   4.255  0.2209  0.1168  0.0978
21699W        W40553  10.547  14.713   2.524  0.1936  0.2853 -0.0505
21700W        W40554   1.872   0.392  14.992 -0.0072 -0.0354 -0.0080
21701W        W40555   7.415   2.621  13.700  0.1414  0.0198  0.1606
21702W        W40556  10.010   4.919   3.877 -0.3045 -0.0589  0.2096
21703W        W40557  15.217  14.854  12.547  0.0320 -0.0615  0.1166
21704W        W40558   4.488   7.906  16.007  0.5236 -0.2127 -0.0613
21705W        W40559  14.147   4.482  16.522 -0.1668 -0.1545 -0.3571
21706W        W40560   8.223  15.262  11.531  0.1655  0.2211 -0.0519
21707W        W40561  10.004  13.015  15.737  0.1240 -0.1403 -0.1236
21708W        W40562   4.139  15.800  13.721 -0.0390 -0.2558 -0.0554
21709W        W40563   2.668   5.064   4.162  0.0254  0.2524 -0.0669
21710W        W40564   7.696   3.710   0.298  0.1734  0.0966 -0.1244
21711W        W40565  15.370  16.103   3.607  0.2683 -0.4895 -0.2867
21712W        W40566   4.989  13.482   2.079  0.0183  0.0381 -0.2206
21713W        W40567   9.115   3.708   1.146  0.0795  0.1839  0.1809
21714W        W40568  13.569  11.796   0.999  0.2530 -0.1389  0.1057
21715W        W40569   6.352  11.903   1.160 -0.2828  0.1113  0.0772
21716W        W40570   4.698  13.748  15.108 -0.1903  0.0416 -0.0953
21717W        W40571  13.625   6.190  14.767 -0.1320 -0.0226  0.0653
21718W        W40572   5.884  13.274   2.789 -0.0459  0.0466 -0.1159
21719W        W40573  15.814  11.290  15.447  0.3325 -0.0553  0.1229
21720W        W40574  14.307  11.431  17.192  0.0757 -0.0756  0.0359
21721W        W40575   9.535  12.137  15.596  0.3627 -0.0281 -0.1843
21722W        W40576  10.219   8.070  14.281 -0.2307 -0.0376 -0.1964
21723W        W40577  11.733   2.992  16.908 -0.1177  0.0515 -0.1852
21724W        W40578   3.877   3.352  12.931 -0.1453  0.0513 -0.0061
21725W        W40579   6.914   3.885   0.952  0.0888  0.0517  0.3938
21726W        W40580  14.565   1.580  15.306  0.4181 -0.1378  0.2534
21727W        W40581   7.591  14.835   2.901 -0.1415 -0.1305 -0.2376
21728W        W40582   3.456  16.084   0.303 -0.2477  0.0594 -0.1325
21729W        W40583   1.029   0.549   0.403  0.1308 -0.0678 -0.0854
21730W        W40584   2.589   4.866   1.801 -0.2114  0.0421  0.1245
21731W        W40585   7.576  10.817  16.976  0.3170 -0.1267 -0.3185
21732W        W40586  14.247   3.004  15.179  0.0784  0.1571 -0.1384
21733W        W40587  14.775  11.458   3.182  0.0127  0.2097 -0.3890
21734W        W40588  15.099   9.957  14.436  0.3130  0.0169 -0.1029
21735W        W40589   0.084  10.552   2.390 -0.0276 -0.0207 -0.2102
21736W        W40590   5.237  11.890  15.542  0.0283 -0.0489 -0.0852
21737W        W40591  10.789   9.764   0.291 -0.1154  0.2719 -0.1650
21738W        W40592  13.438   3.076   5.435 -0.2062 -0.3319 -0.0103
21739W        W40593   4.357   7.973  13.524 -0.1257  0.0173  0.0489
21740W        W40594  12.521  13.042   2.196  0.0826 -0.2668  0.1451
21741W        W40595   0.432   7.247  17.170 -0.1678 -0.1322 -0.0039
21742W        W40596  12.175  14.489   3.032  0.3751 -0.1219  0.1037
21743W        W40597  11.345   9.132   2.214  0.0367  0.1640 -0.2399
21744W        W40598  12.249   9.945  15.482 -0.2448 -0.0901  0.1097
21745W        W40599  12.440   5.686   5.052 -0.0002  0.1256  0.1287
21746W        W40600  10.293  11.939  16.965  0.2274 -0.2202  0.0453
21747W        W40601   4.162   8.505  17.450  0.0462  0.0594  0.1842
21748W        W40602   9.371   2.322   4.778  0.0201  0.0028  0.0442
21749W        W40603   2.123   6.262  17.056 -0.2749  0.3064  0.0326
21750W        W40604   7.644  14.743   2.387 -0.3647 -0.2431 -0.1493
21751W        W40605  13.732  12.149  16.961 -0.0007 -0.0273 -0.0887
21752W        W40606  16.926  14.270  15.472  0.1901  0.0963  0.1598
21753W        W40607  12.446  14.816  13.865  0.0130  0.0408 -0.3606
21754W        W40608   1.768   2.695   3.565 -0.1727 -0.1228 -0.1110
21755W        W40609   3.561   1.555   3.552  0.2014 -0.2727  0.0700
21756W        W40610   7.122  16.715  14.898  0.4214 -0.2170  0.0854
21757W        W40611  15.010   7.140   3.779  0.2281 -0.2301  0.1876
21758W        W40612   8.272  17.272  17.178  0.0850  0.0251  0.0849
21759W        W40613   7.937  10.458   2.839 -0.2197  0.0524 -0.0992
21760W        W40614  12.159   2.547   1.758 -0.0289  0.0741  0.0842
21761W        W40615   6.596   1.310   0.584  0.3008 -0.2709 -0.0139
21762W        W40616  16.002  16.476   2.572 -0.0703 -0.2815  0.3622
21763W        W40617   7.548  10.772   3.558 -0.1962  0.1610  0.1221
21764W        W40618   9.978   7.669  14.445  0.0010  0.4399  0.2180
21765W        W40619   2.920   9.473   0.074 -0.3720 -0.0879  0.3257
21766W        W40620  14.532  10.701  14.506 -0.1674 -0.2631  0.2605
21767W        W40621  10.291  13.146   1.074  0.0233  0.0592 -0.0873
21768W        W40622   0.859   7.668   1.441  0.4374  0.3619 -0.0735
21769W        W40623  14.317  11.210  12.801 -0.1420  0.0277 -0.0448
21770W        W40624   7.395  17.014   0.488 -0.0257 -0.0697  0.1412
21771W        W40625   1.076   3.340   4.548  0.1893  0.0195 -0.0767
21772W        W40626   4.744  10.346   0.910  0.1347 -0.0056  0.2935
21773W        W40627   3.912  11.189  13.020 -0.1580 -0.1138  0.1245
21774W        W40628   6.929   0.315  16.381 -0.0101 -0.1917  0.0647
21775W        W40629  12.038   7.274  17.321 -0.0024 -0.1364  0.0428
21776W        W40630   6.660  15.728  15.280 -0.0487 -0.2076  0.0472
21777W        W40631  11.442  15.954  15.853 -0.0197 -0.0459  0.1955
21778W        W40632   2.253   3.998  15.818  0.3488 -0.0271  0.1395
21779W        W40633   8.368  11.194  16.701  0.1566 -0.1587  0.1684
21780W        W40634   8.795   2.611   1.102 -0.1419 -0.0049 -0.0195
21781W        W40635   4.434   8.263   1.834  0.1240  0.0859  0.0478
21782W        W40636  13.983   3.767   2.511 -0.1406  0.3146 -0.0293
21783W        W40637   4.539   3.212   1.934  0.2290 -0.0578  0.0063
21784W        W40638  13.053   9.826  16.027 -0.0965  0.1512 -0.1054
21785W        W40639  10.914   9.837   3.987 -0.0860 -0.2208 -0.1041
21786W        W40640   3.847   8.053   4.511  0.5177  0.1578  0.2094
21787W        W40641   7.354  13.551   3.938  0.0941 -0.0536 -0.0649
21788W        W40642  10.293  12.675  12.212 -0.3214 -0.1526  0.0995
21789W        W40643  10.016  10.402  12.881 -0.2401 -0.1148 -0.1318
21790W        W40644  14.164   1.206  12.574 -0.1149  0.3611  0.0763
21791W        W40645   1.461  11.911   4.303 -0.0246  0.0610 -0.2791
21792W        W40646  17.182  10.177   4.708 -0.0335 -0.1940 -0.1235
21793W        W40647  11.193   4.328  16.942 -0.0207  0.2234  0.2126
21794W        W40648  16.656   4.345  14.592 -0.0616  0.1436  0.2815
21795W        W40649   9.977   8.883  16.795 -0.1008  0.0426 -0.0273
21796W        W40650  15.356   5.182   3.448 -0.2426 -0.0377 -0.2223
21797W        W40651  17.156   0.398   3.859 -0.1890  0.1854  0.4360
21798W        W40652  12.937   5.788   2.206  0.4676 -0.0042  0.0526
21799W        W40653   2.641  12.130  14.431 -0.2356 -0.0227 -0.0019
21800W        W40654  12.757   8.966   3.054  0.0519 -0.3051 -0.2256
21801W        W40655  12.671  10.427  14.375 -0.1154 -0.1150 -0.0183
21802W        W40656   0.321  15.240   2.214  0.0530  0.0817 -0.2344
21803W        W40657   5.269  13.824   2.466  0.3070 -0.2926  0.0845
21804W        W40658   3.152   5.407  15.383  0.1588  0.0175  0.1355
21805W        W40659   3.628   0.304  17.256  0.2181 -0.2017 -0.0693
21806W        W40660   6.131  17.352   1.037 -0.2864  0.0751 -0.2122
21807W        W40661  12.338   1.494   5.082 -0.0507 -0.2492  0.0340
21808W        W40662   5.080   9.690  13.003 -0.1532 -0.1242 -0.0932
21809W        W40663   2.313   8.187   2.871 -0.0680  0.1317 -0.1959
21810W        W40664   8.721   5.152  15.338  0.0143 -0.0642  0.1124
21811W        W40665   4.335   4.291  12.691 -0.0798  0.1780  0.1103
21812W        W40666   3.150   4.475   1.693 -0.4286 -0.0023  0.1670
21813W        W40667   2.188  16.363   0.624 -0.0783 -0.4178  0.0755
21814W        W40668  14.399  13.291  16.172  0.0462 -0.0167 -0.1834
21815W        W40669   0.747  13.363   3.754 -0.0655  0.2772  0.1268
21816W        W40670   8.007   2.605   2.537 -0.2201 -0.1964 -0.1523
21817W        W40671  15.028   6.040   3.254  0.0782  0.0395 -0.0601
21818W        W40672  10.856   0.264  12.465 -0.0326  0.1244  0.1907
21819W        W40673   8.130   8.039  13.013 -0.0075  0.0904  0.0518
21820W        W40674  15.003   3.356   3.555 -0.4840 -0.1338 -0.1584
21821W        W40675  12.658  13.178  17.343 -0.0840  0.0377  0.2583
21822W        W40676   5.090   8.691   3.850 -0.0713 -0.1724  0.2604
21823W        W40677  16.710  14.290   3.833  0.0134 -0.0342  0.0214
21824W        W40678  15.945   6.403  14.432 -0.0435  0.0610 -0.0897
21825W        W40679   7.262  11.521   2.816  0.0698  0.2661 -0.1878
21826W        W40680   2.262   1.665   1.493  0.1566 -0.1533  0.0845
21827W        W40681   2.486   5.685   0.559 -0.0526 -0.3066  0.2459
21828W        W40682  12.634   1.328   2.908  0.2609  0.1010 -0.1140
21829W        W40683   1.224  15.105   3.978 -0.1504 -0.0888 -0.0517
21830W        W40684  14.613   7.612   2.018 -0.0024 -0.2304  0.0411
21831W        W40685   3.124   6.372   2.959 -0.0112 -0.1400 -0.1816
21832W        W40686  11.894  16.531  14.108 -0.0203 -0.2447  0.2140
21833W        W40687  16.320   8.235   0.656  0.2115  0.1359 -0.1711
21834W        W40688   3.500   3.794  15.265  0.0831 -0.0559 -0.0060
21835W        W40689  14.522   9.852  15.643 -0.1653  0.0827  0.1323
21836W        W40690   9.360   5.723   0.547 -0.0465  0.0598 -0.2745
21837W        W40691   8.816   9.900   4.281 -0.1912 -0.0621 -0.0449
21838W        W40692   1.569  10.464   2.997  0.1885  0.0778 -0.0310
21839W        W40693   5.895   0.402   1.777 -0.1568 -0.0186  0.0852
21840W        W40694   9.709   7.778   2.648 -0.0345 -0.0949 -0.1406
21841W        W40695   4.500  10.659   0.082  0.0185 -0.6863 -0.0222
21842W        W40696   3.551  13.983   3.111 -0.0805 -0.2013 -0.0800
21843W        W40697   7.159   9.571  15.114  0.0438 -0.1831  0.0911
21844W        W40698   0.005   1.571  15.032  0.2925  0.2348  0.1610
21845W        W40699  16.414  12.617  15.891  0.0462  0.0464  0.0160
21846W        W40700  16.048   3.636   2.181  0.4397 -0.1026  0.0394
21847W        W40701  11.255   6.788   3.041 -0.2701  0.0783 -0.1265
21848W        W40702   2.509  10.073  12.882 -0.2870 -0.1889 -0.1634
21849W        W40703   6.556  10.879  15.147  0.1850 -0.0174  0.3077
21850W        W40704   0.104   8.261  15.345 -0.1959  0.0167 -0.0489
21851W        W40705  13.163  11.701  16.166 -0.1982  0.1713 -0.0220
21852W        W40706  12.756   6.918  12.770  0.0832 -0.0965  0.2916
21853W        W40707   9.147  12.119   2.704 -0.0174  0.1163 -0.1958
21854W        W40708   9.794   2.164   5.056  0.0174 -0.1624  0.2480
21855W        W40709   1.035  14.395  14.775  0.1681 -0.0658 -0.2055
21856W        W40710  11.439   7.059  12.996 -0.0255 -0.1790  0.0428
21857W        W40711  11.135   7.194   5.054  0.0026 -0.0350  0.1082
21858W        W40712  15.614   1.305   6.066  0.1830 -0.2125 -0.2031
21859W        W40713  17.187   7.433   1.912 -0.3485 -0.0549 -0.0474
21860W        W40714  13.141   1.840   0.293  0.1085 -0.1165  0.2645
21861W        W40715  13.398   4.921  12.719  0.1158  0.1025  0.0800
21862W        W40716   6.719   8.307  14.163 -0.3559 -0.1732 -0.1784
21863W        W40717   8.939   2.297   3.029  0.0721 -0.0047 -0.0594
21864W        W40718  10.294  12.772  16.459 -0.3018 -0.1134  0.2038
21865W        W40719   7.729   2.466  13.213 -0.1853  0.0580  0.2113
21866W        W40720  14.373   3.419   2.713  0.0754  0.1081 -0.0539
21867W        W40721  10.840  15.273  14.452  0.0974  0.2286 -0.1365
21868W        W40722   3.460  17.326  15.869 -0.2585 -0.4582 -0.2191
21869W        W40723   5.816  14.781   3.563 -0.3293 -0.2638  0.0832
21870W        W40724   7.457   5.435   2.785 -0.1026 -0.1288  0.1892
21871W        W40725   9.036  15.966  16.783 -0.1906  0.0959 -0.2557
21872W        W40726  15.516  12.637  12.372  0.1827 -0.1449  0.0437
21873W        W40727   6.216   4.482  17.303 -0.1089 -0.0825 -0.0432
21874W        W40728   1.360  14.828   3.529  0.2584  0.0819 -0.0747
21875W        W40729  14.552  14.894   3.554  0.1391  0.0161 -0.1253
21876W        W40730  15.465  15.223  15.567 -0.2678  0.0821  0.0846
21877W        W40731   2.765  14.258   3.528  0.3054  0.0146 -0.0020
21878W        W40732   5.031  10.768  16.807 -0.0494 -0.1795  0.4060
21879W        W40733   9.167   6.102  16.694  0.2924  0.3781 -0.1890
21880W        W40734   4.188   3.201  15.232 -0.1221 -0.1666  0.0117
21881W        W40735  15.376   6.598  16.888 -0.1804 -0.0441  0.0265
21882W        W40736   9.499  14.558   4.958  0.1512 -0.1682 -0.0543
21883W        W40737   2.582  11.812   0.598 -0.0964  0.1889 -0.0875
21884W        W40738  10.491  11.150  15.828 -0.1676  0.1267 -0.0297
21885W        W40739   9.343   7.467   3.275  0.0602  0.2096 -0.0559
21886W        W40740   1.387  12.383   1.027 -0.0975  0.0723 -0.0967
21887W        W40741   1.710   6.237   0.470 -0.2584 -0.2530  0.0169
21888W        W40742  16.119  17.368  13.665 -0.0376 -0.0864  0.2766
21889W        W40743  16.035  10.822   4.777  0.3197 -0.2508  0.2127
21890W        W40744  15.743  14.935  14.099 -0.0386  0.0962  0.0894
21891W        W40745   2.944  13.306  12.194  0.3047 -0.1760 -0.0292
21892W        W40746   5.425   9.816  16.557  0.1662 -0.0670  0.1130
21893W        W40747  10.040   5.825   1.293  0.0665 -0.3119  0.4152
21894W        W40748   0.714   7.978   2.705 -0.2188 -0.1815  0.1082
21895W        W40749  11.485  12.226  12.731 -0.1950 -0.1545 -0.0379
21896W        W40750   3.212  10.827   0.294 -0.1308 -0.3241 -0.1732
21897W        W40751  16.165  12.173   3.649  0.1056 -0.2315 -0.2097
21898W        W40752  10.205   0.450   4.566  0.1328  0.0083 -0.1899
21899W        W40753  16.189  16.768   3.404 -0.1417 -0.1498  0.0321
21900W        W40754  16.276   9.839   3.696 -0.1124 -0.0879 -0.2020
21901W        W40755   7.222  17.120   4.105 -0.2929  0.2830  0.2059
21902W        W40756  11.713  15.507   5.115 -0.0258 -0.1350  0.3792
21903W        W40757  17.293  12.509  13.061 -0.1778 -0.0191 -0.0737
21904W        W40758   4.422   8.940  12.550  0.2451 -0.4009 -0.0578
21905W        W40759   3.955   5.846  14.207 -0.2835  0.3309  0.1578
21906W        W40760   9.657   1.213   3.531  0.0262 -0.1169  0.0700
21907W        W40761  16.462  13.814  14.217 -0.1692  0.0226  0.0755
21908W        W40762   2.254   1.585  14.724 -0.2032  0.1319  0.1500
21909W        W40763   9.469  13.279  13.925  0.0684 -0.3784 -0.0332
21910W        W40764   0.650   1.018  12.033 -0.2289 -0.0646 -0.2636
21911W        W40765   6.831   5.474   1.742 -0.1479 -0.2641  0.1639
21912W        W40766   4.215   7.567   2.589  0.1581  0.0986 -0.2221
21913W        W40767   7.725  16.894   0.138  0.3346  0.2019  0.1099
21914W        W40768   3.860  16.916   1.602  0.0429 -0.1786 -0.0233
21915W        W40769   9.285   1.509   3.353  0.0607  0.3872 -0.1362
21916W        W40770   1.512  15.868   1.303 -0.1350  0.0845  0.2653
21917W        W40771   3.091   6.988   4.246  0.1353  0.2166  0.2783
21918W        W40772   5.699  16.264  14.655  0.0308 -0.3014 -0.0204
21919W        W40773  16.362   3.916  15.019 -0.1771  0.1726  0.0288
21920W        W40774  12.102   5.061  15.561 -0.1584  0.3850 -0.2441
21921W        W40775   7.215   5.255  12.110  0.0552 -0.0266 -0.1317
21922W        W40776  17.279  14.931  13.866  0.0721  0.3001 -0.1661
21923W        W40777   3.347   1.934   2.780 -0.0122 -0.2616 -0.0071
21924W        W40778  10.126  14.557  14.719 -0.0925  0.1146  0.0705
21925W        W40779   2.937  10.616  16.128  0.0805 -0.0853  0.2901
21926W        W40780   4.363   0.086   1.703  0.0520  0.1253 -0.1573
21927W        W40781  13.795   8.659   4.054 -0.1611 -0.3843  0.0570
21928W        W40782  11.569  10.714   1.354 -0.0171 -0.1762 -0.0652
21929W        W40783   4.002   3.005   0.593 -0.1642  0.0196  0.2019
21930W        W40784   9.148   5.777  15.603  0.3475  0.1950  0.2933
21931W        W40785  16.100   9.639  13.245 -0.0537  0.0032 -0.1644
21932W        W40786   8.141   6.508  16.784 -0.1068 -0.0711  0.0450
21933W        W40787   3.188  10.706  14.728 -0.2570  0.2992  0.1144
21934W        W40788  10.885   9.022   1.517 -0.3411 -0.1198  0.5788
21935W        W40789   9.371   6.946  12.736  0.1003  0.3200  0.3322
21936W        W40790  15.994   2.618  15.180  0.2234 -0.0846 -0.2190
21937W        W40791  16.224  14.089   4.004  0.1865 -0.1273  0.2016
21938W        W40792   8.227   4.499   4.512 -0.0390 -0.0978 -0.0364
21939W        W40793  13.244  16.623  13.230 -0.2137  0.0971  0.0074
21940W        W40794  16.832  15.008   2.361  0.1804  0.0785 -0.1580
21941W        W40795  15.379   8.238  12.803  0.0591  0.2888 -0.2972
21942W        W40796  10.898   7.578  15.730 -0.2107 -0.0548  0.0184
21943W        W40797   1.813   6.838   3.915  0.1437 -0.3671 -0.2288
21944W        W40798   7.716  13.868   3.235  0.2617 -0.0607 -0.0122
21945W        W40799  11.687   5.797  14.943 -0.1261  0.1486 -0.0905
21946W        W40800  13.747  12.417  12.869 -0.2271  0.0516  0.0653
21947W        W40801  10.912   0.486  15.309 -0.1911 -0.2665  0.1042
21948W        W40802  11.302   8.334   0.041  0.2961 -0.0601  0.0905
21949W        W40803   0.781  10.655  12.734  0.2716 -0.1981 -0.1936
21950W        W40804  10.254  15.007   0.542  0.1559  0.0349  0.0144
21951W        W40805   2.831  13.269   3.664 -0.0223 -0.3378  0.0324
21952W        W40806   5.865   8.564   2.287  0.1005  0.1819  0.1628
21953W        W40807  10.599  10.119  16.201  0.1953 -0.2638 -0.3360
21954W        W40808  14.152   7.946  14.565 -0.1651 -0.1525  0.2289
21955W        W40809   3.165  17.205  16.302  0.1756 -0.0876 -0.0141
21956W        W40810  10.327  11.115  15.388  0.3296 -0.2833 -0.2536
21957W        W40811  16.843  11.217  17.196  0.1391  0.1853  0.1630
21958W        W40812   8.544  14.683   0.978  0.2333  0.1082  0.2836
21959W        W40813   1.255   7.791  13.680  0.1593 -0.0247  0.0976
21960W        W40814   8.869   3.594   2.579  0.0433 -0.1660 -0.2239
21961W        W40815  15.583   4.913   1.039  0.1951 -0.1161  0.0583
21962W        W40816  13.216  13.094  13.818  0.0004 -0.3833 -0.0470
21963W        W40817   8.297   8.756  17.461  0.1405 -0.1082  0.0183
21964W        W40818   3.330  12.525   4.536  0.3926  0.1275 -0.5143
21965W        W40819   1.171   1.441  15.203 -0.1034  0.0034 -0.4684
21966W        W40820  12.456  14.434   0.695  0.1324  0.1760  0.1347
21967W        W40821  14.342  10.144   0.119  0.2544  0.1827 -0.2082
21968W        W40822  13.607  13.925   4.020  0.0816 -0.0756 -0.0665
21969W        W40823  16.318  14.218   0.684 -0.1277  0.4962  0.1160
21970W        W40824   5.996   1.483   2.697 -0.1545  0.3431 -0.0645
21971W        W40825   9.405  12.222  17.033 -0.1206 -0.0372 -0.1552
21972W        W40826   0.684  13.551  15.969 -0.1949  0.0646  0.1623
21973W        W40827   4.620  15.255   3.201 -0.0161  0.2677  0.2202
21974W        W40828   8.182  12.319  15.255 -0.3654  0.0756 -0.0066
21975W        W40829   6.817   2.236  12.667 -0.1350 -0.1937 -0.0221
21976W        W40830   5.815   3.461  15.514  0.1714 -0.0758  0.2053
21977W        W40831   2.875   5.190  14.401 -0.1093 -0.1949 -0.1147
21978W        W40832  14.549   1.024   3.111  0.2211  0.0366  0.0496
21979W        W40833   8.485   3.103   1.014 -0.1806  0.2366  0.3268
21980W        W40834   5.206   4.740   0.622  0.0507 -0.0284  0.2570
21981W        W40835   5.092   8.946   4.341  0.0343 -0.3291 -0.1624
21982W        W40836   3.910  12.999  14.025  0.1966 -0.0438  0.2842
21983W        W40837   4.493   4.676  16.790 -0.1342 -0.3753 -0.1499
21984W        W40838  15.666   3.175   1.299 -0.3189  0.0332 -0.2124
21985W        W40839   5.123  13.452   2.807 -0.2073  0.0320  0.1817
21986W        W40840   6.928   6.879  16.265  0.1203  0.0558  0.1196
21987W        W40841   5.757   7.280   1.588 -0.0390 -0.1554  0.2679
21988W        W40842  10.656  13.457  17.297 -0.1931 -0.0385  0.1376
21989W        W40843   6.071   3.675   1.396  0.2849 -0.1569  0.2009
21990W        W40844   7.621   0.124  13.897  0.1195  0.0478  0.0141
21991W        W40845   7.065  15.309  15.167  0.2268 -0.2296  0.0273
21992W        W40846   1.202  15.921  16.028 -0.2224  0.3371 -0.0609
21993W        W40847   1.838   0.662  16.782 -0.0031  0.0366 -0.0148
21994W        W40848  16.103   2.256   1.718  0.1891  0.1752 -0.0554
21995W        W40849  13.657  10.168   2.456 -0.0083  0.0697 -0.0802
21996W        W40850   6.870   1.702   0.849 -0.3578  0.0607  0.3072
21997W        W40851  17.345  16.678  16.179  0.3085  0.1399  0.0805
21998W        W40852   4.289   9.976  14.084 -0.1764  0.4922 -0.0615
21999W        W40853   4.288   6.967   0.866 -0.2546 -0.2187 -0.1568
22000W        W40854  12.451  16.608  15.279  0.2378  0.3405 -0.0599
22001W        W40855  15.967   4.576  15.519 -0.3225 -0.0454  0.1349
22002W        W40856  14.664   1.218   0.743 -0.2687 -0.2778  0.0568
22003W        W40857   4.556   2.574   4.633  0.1846 -0.3894  0.2614
22004W        W40858  11.287   4.072  12.798  0.2601 -0.0354 -0.2004
22005W        W40859   9.124  12.911  14.286 -0.0249  0.0144  0.0460
22006W        W40860   4.562  13.971   3.241 -0.1274 -0.0253 -0.4169
22007W        W40861   2.379   8.195  13.151  0.2307  0.2043  0.4353
22008W        W40862  13.166  12.204   3.693  0.0949 -0.0020  0.0354
22009W        W40863   0.092  10.013  15.457 -0.3012 -0.2387  0.0346
22010W        W40864   0.933  15.143  17.299 -0.3074  0.3907 -0.2162
22011W        W40865   6.578  10.731   4.030 -0.3369 -0.1459  0.0839
22012W        W40866  13.636   2.504  13.781  0.1152  0.0781 -0.0090
22013W        W40867  12.047   3.179  16.279 -0.0120 -0.0799 -0.0862
22014W        W40868  16.633  10.565  12.416 -0.0026  0.1776 -0.0246
22015W        W40869  16.525   0.623  14.521  0.1213 -0.0055 -0.2343
22016W        W40870   7.912  14.342  12.749  0.4086 -0.3576 -0.0707
22017W        W40871   1.343   0.446   0.026  0.0355  0.2125 -0.0692
22018W        W40872  13.720  14.408  16.193  0.0938  0.0704  0.2082
22019W        W40873  15.233   3.768   1.665  0.0087  0.1491 -0.1934
22020W        W40874   6.660   6.227  16.689 -0.0663 -0.1173  0.3416
22021W        W40875   0.735  17.146   0.739  0.1119 -0.2444  0.3552
22022W        W40876   0.731   3.478   3.705  0.4837  0.1096 -0.0675
22023W        W40877  11.188   3.054   5.000 -0.0339  0.0073 -0.3012
22024W        W40878   5.524   4.195   1.972 -0.1509 -0.1058 -0.3705
22025W        W40879   1.187   9.576  13.228 -0.2007  0.1825  0.0222
22026W        W40880   0.867   0.771   3.725  0.0079  0.2183  0.1051
22027W        W40881   1.023  11.793  16.739 -0.0968  0.0484  0.1246
22028W        W40882   1.781   9.013  13.206  0.0577  0.0842 -0.0050
22029W        W40883   4.882  11.846   0.665 -0.1451  0.2314  0.2730
22030W        W40884   0.058  13.592  14.019  0.0603  0.1049 -0.2336
22031W        W40885  13.799  15.459  12.720  0.0332 -0.1150  0.1903
22032W        W40886   1.027  14.689   4.895  0.1728 -0.1087 -0.0798
22033W        W40887   3.775   3.276   5.222 -0.1664 -0.2122 -0.1839
22034W        W40888   3.284   3.617   5.067 -0.0514  0.0585 -0.2987
22035W        W40889   2.210   5.599   2.246  0.0125  0.1128  0.2761
22036W        W40890   4.596   0.966  16.080 -0.3746  0.0549  0.0483
22037W        W40891  16.601  10.323   0.455 -0.0874  0.0070 -0.2812
22038W        W40892   0.832  10.039  15.851  0.1093  0.0821 -0.0647
22039W        W40893  14.040   1.037   0.687  0.1958 -0.0290 -0.0590
22040W        W40894   0.311   7.947   4.372  0.0467  0.0360  0.0326
22041W        W40895  17.162   6.669  16.762 -0.4754  0.4977 -0.1992
22042W        W40896   1.833   4.197  16.224 -0.0637 -0.1673 -0.0721
22043W        W40897  14.267   4.835  15.033 -0.0643 -0.0075 -0.2038
22044W        W40898  12.905  15.690  17.291  0.3131 -0.2804 -0.0029
22045W        W40899  10.359  14.231  16.266  0.1530  0.3703 -0.0274
22046W        W40900   2.177  16.343   2.902 -0.0479  0.3697 -0.0255
22047W        W40901   7.229  16.366   4.798 -0.3082  0.1121 -0.0488
22048W        W40902  14.154   5.624  13.775 -0.4839  0.2142  0.0417
22049W        W40903  14.394   9.756   0.400  0.0700  0.1069  0.2014
22050W        W40904  10.634   5.743   1.108 -0.0260  0.1989  0.1722
22051W        W40905   0.652  12.197   5.443  0.1419  0.1899 -0.0426
22052W        W40906  15.757  15.183   2.200 -0.2117 -0.0183 -0.2196
22053W        W40907  15.155  17.301  17.020 -0.1114  0.2065 -0.0956
22054W        W40908   7.827  12.862   4.329 -0.0901  0.2740  0.1924
22055W        W40909   7.625  14.940   4.732 -0.0332  0.1015  0.1851
22056W        W40910   0.695   6.037  13.916  0.1801  0.0194  0.0439
22057W        W40911   7.850   4.078  16.545 -0.0259 -0.1743 -0.1901
22058W        W40912  16.013   5.633   0.412  0.0759 -0.0068  0.0710
22059W        W40913  11.577  15.078  14.031  0.0237 -0.1146 -0.2492
22060W        W40914  16.876  10.379   3.360  0.3049  0.1059  0.0527
22061W        W40915   3.392   5.760  12.913  0.0929 -0.1166  0.0789
22062W        W40916  13.710  17.076  15.806  0.1092  0.1193 -0.1690
22063W        W40917   8.422   1.658  13.466 -0.1818  0.0927 -0.0575
22064W        W40918   9.004  14.641   5.225 -0.1019  0.0343  0.0642
22065W        W40919   6.059  16.247   1.789  0.0347 -0.0945  0.0059
22066W        W40920   7.691  11.472   0.209 -0.4041  0.4767  0.0714
22067W        W40921   8.500   3.990   2.569  0.0865 -0.3166 -0.0593
22068W        W40922   4.358   6.717   3.866  0.0078 -0.0029  0.2639
22069W        W40923  13.731   0.329  17.479  0.0279  0.0104 -0.0431
22070W        W40924  13.039   7.012  16.937 -0.2352  0.1921 -0.2019
22071W        W40925   1.850   6.343  16.057 -0.3887  0.1171 -0.0734
22072W        W40926  11.065  12.900  15.616 -0.2502  0.3384 -0.0243
22073W        W40927  10.359  13.605   4.484  0.1201  0.2224 -0.1587
22074W        W40928   5.223   1.822   2.898  0.0324  0.0002  0.0766
22075W        W40929   8.041   3.089   4.230 -0.2141 -0.0361 -0.0667
22076W        W40930   6.303  17.057  16.381  0.1156  0.0128  0.4556
22077W        W40931  17.296  14.314  16.354  0.1267  0.2419 -0.1758
22078W        W40932   1.032  12.518   0.382 -0.0290  0.3321 -0.0894
22079W        W40933   1.541  10.742  16.310 -0.2439 -0.0092  0.0558
22080W        W40934   5.590  15.195  14.600  0.1503  0.2508  0.1477
22081W        W40935   6.672  14.963  14.991  0.0964 -0.0310 -0.2021
22082W        W40936  14.876  13.234   0.660 -0.3243 -0.1660  0.0250
22083W        W40937  15.065   7.980  11.305  0.3995  0.0322  0.1725
22084W        W40938   4.167   6.153  16.620  0.1252  0.0879 -0.0028
22085W        W40939   3.648  16.540  17.279  0.0868  0.0087 -0.0781
22086W        W40940  16.497   5.259   5.199 -0.2187 -0.1772 -0.0401
22087W        W40941   3.159  17.373   0.259 -0.0023  0.2041  0.3396
22088W        W40942  13.777  13.382  12.695 -0.4801  0.1744 -0.0117
22089W        W40943  14.375  12.438   4.225 -0.0739 -0.0483 -0.0016
22090W        W40944  15.924   5.017   4.086  0.1291  0.0108 -0.4502
22091W        W40945   1.855   2.948   2.388 -0.0342 -0.0687 -0.0987
22092W        W40946  15.083   0.102  13.398  0.0798  0.2583  0.2800
22093W        W40947   4.969   8.431  12.897 -0.2988 -0.1302  0.0189
22094W        W40948   9.819   7.632   1.340  0.4305 -0.2014  0.0097
22095W        W40949   0.894  10.979   5.456  0.0706  0.0014  0.0111
22096W        W40950   1.689   8.992  16.368 -0.3114  0.2766  0.0079
22097W        W40951  13.314  15.718   0.184 -0.0092 -0.1121 -0.0427
22098W        W40952   1.181  17.373   4.466 -0.1388 -0.0543  0.2128
22099W        W40953   6.271  16.927  13.677 -0.1394 -0.0447  0.4239
22100W        W40954   1.249  16.409   2.810 -0.1331  0.0741 -0.0907
22101W        W40955  15.187  15.092   0.653  0.0917  0.0763 -0.2937
22102W        W40956  15.960  12.951   1.501  0.1808  0.1270 -0.0460
22103W        W40957   5.457  14.934  13.946  0.0815 -0.0262  0.0258
22104W        W40958  16.461  15.428  16.210  0.0942 -0.1522 -0.0427
22105W        W40959   5.522  10.976  14.628 -0.1049  0.0102 -0.2513
22106W        W40960   7.849   5.407   3.396  0.0221 -0.0917  0.4246
22107W        W40961  11.054  15.145  14.039  0.2198  0.1013 -0.2249
22108W        W40962   1.261   9.479   3.065 -0.2743  0.2612 -0.1123
22109W        W40963   9.894   2.726  13.933  0.1235  0.2957 -0.2100
22110W        W40964  15.998  13.743   2.623  0.1492 -0.1550 -0.0259
22111W        W40965   9.401   9.400  11.846 -0.0618  0.1326  0.0327
22112W        W40966  13.665  13.960  14.777 -0.1018  0.1920  0.1292
22113W        W40967   6.179   4.313  15.617  0.2731 -0.0671  0.1557
22114W        W40968   5.039  14.290   3.410  0.2449 -0.1017  0.0773
22115W        W40969   7.202  16.335  15.200 -0.3810  0.2170  0.1831
22116W        W40970  11.961  17.192  13.566 -0.0505 -0.0729 -0.0209
22117W        W40971  11.532   7.841  14.851 -0.0212  0.0434  0.0717
22118W        W40972   1.939   3.140  13.179 -0.1024  0.1965  0.1404
22119W        W40973   2.593   8.083   0.703 -0.1961  0.0929 -0.3470
22120W        W40974   3.257   0.320  16.351  0.1934  0.1976  0.0859
22121W        W40975  15.584  16.617   2.724 -0.1237  0.0302  0.1341
22122W        W40976  13.104   5.296  13.626 -0.0890 -0.0896  0.0429
22123W        W40977  14.778  14.289   0.397 -0.2014 -0.2957 -0.0881
22124W        W40978  14.560  16.652   4.492 -0.3055  0.0355 -0.1835
22125W        W40979  10.051  10.466   2.306  0.0286  0.0202  0.1578
22126W        W40980   9.239  11.917  14.906 -0.0346 -0.0590  0.1031
22127W        W40981   6.702   7.123  13.602  0.0260 -0.0632  0.3544
22128W        W40982   7.450  16.825  15.278 -0.2246  0.2065  0.0430
22129W        W40983   3.500   1.704  15.349 -0.1188  0.0485  0.1541
22130W        W40984  12.297   8.693   2.691 -0.0387 -0.0790  0.0650
22131W        W40985  15.021   6.849   1.970 -0.0204  0.0123 -0.0172
22132W        W40986   7.287   8.081   2.123  0.0547 -0.0294  0.0660
22133W        W40987   7.459   5.288  12.949  0.1298  0.0977  0.1904
22134W        W40988   8.437   9.307   0.922 -0.4218 -0.1236  0.2166
22135W        W40989   6.537   8.762   2.781  0.0777 -0.1040  0.0848
22136W        W40990   7.478   9.699  15.932  0.1688  0.0264  0.0786
22137W        W40991  15.625  13.427   0.153  0.1336  0.0736 -0.3178
22138W        W40992  12.806   3.106  16.111  0.3672 -0.4467 -0.1837
22139W        W40993  13.135   0.827  17.023  0.0290  0.0374  0.5039
22140W        W40994  13.769   1.799   5.447  0.3238  0.0217  0.0098
22141W        W40995  17.289  13.339   1.233 -0.0820  0.3138 -0.0847
22142W        W40996   7.933   9.507   3.793 -0.0285 -0.0924  0.2085
22143W        W40997  12.530  13.257  13.355 -0.0384  0.1138  0.1798
22144W        W40998  12.525   5.235   4.841 -0.2137 -0.0819  0.0231
22145W        W40999  13.211   9.910  12.502 -0.1471  0.0341 -0.3108
22146W        W41000  16.431   2.349  15.934 -0.0573  0.2959  0.0336
22147W        W41001  16.763   8.759   2.522  0.1466 -0.1855  0.2071
22148W        W41002  15.782  14.643   1.482 -0.2532  0.0446  0.1008
22149W        W41003   7.522   8.290  15.240  0.0246  0.2483 -0.0909
22150W        W41004  17.201   8.951  17.140  0.1283  0.1812 -0.1777
22151W        W41005   6.777  14.167   5.073  0.0067 -0.1070  0.0988
22152W        W41006   2.778   5.693  14.332  0.0600 -0.1163 -0.0693
22153W        W41007   8.963  14.050  14.754  0.2879 -0.1016  0.0001
22154W        W41008  16.385  16.669   5.166  0.0723 -0.2748 -0.3243
22155W        W41009   9.346   1.434  13.931 -0.1037 -0.0968  0.0099
22156W        W41010   1.031  15.875  12.804  0.2126 -0.0440 -0.0366
22157W        W41011   4.052   7.022   4.338  0.1600  0.2976  0.0427
22158W        W41012   9.298  11.292  14.172  0.0029  0.0623 -0.2309
22159W        W41013  11.158  14.604   4.978  0.1396  0.0914  0.0609
22160W        W41014   8.151   3.530   4.550  0.0380 -0.0905  0.1425
22161W        W41015  11.997   1.633  12.223 -0.3819  0.2195  0.0200
22162W        W41016  11.914   0.109  14.203  0.0154 -0.0628 -0.0180
22163W        W41017   9.736   3.183  13.804 -0.0671  0.4180  0.1336
22164W        W41018  10.475  14.268   0.838 -0.0553 -0.0160 -0.0871
22165W        W41019  14.424  15.109   4.008 -0.0824 -0.0295  0.2864
22166W        W41020  16.103   7.383  16.132  0.1996  0.1051  0.1506
22167W        W41021  16.967   6.804   3.167 -0.0918  0.0950  0.0777
22168W        W41022   2.363  13.433  16.438  0.1837  0.0069 -0.1228
22169W        W41023  10.679  13.481   0.838 -0.0427 -0.0012  0.3498
22170W        W41024  13.753   7.273   0.775  0.0842 -0.0502 -0.0220
22171W        W41025  13.825  16.918   0.688 -0.0236  0.0705 -0.1657
22172W        W41026   8.017   0.685   2.140  0.3258 -0.3835  0.1643
22173W        W41027  10.827   2.745  16.265 -0.2146  0.0109 -0.3789
22174W        W41028  11.416   3.070  14.305  0.0346 -0.1416  0.1572
22175W        W41029  12.484  11.971  15.163 -0.1910  0.1130 -0.1212
22176W        W41030   6.288   8.703  16.680 -0.2435 -0.2575  0.1208
22177W        W41031   1.242  11.389   6.627 -0.2140 -0.2374  0.3180
22178W        W41032   1.888   7.575  14.310  0.1805 -0.2892 -0.1794
22179W        W41033  16.650   7.857   0.261 -0.1583  0.1607  0.1547
22180W        W41034  16.497  17.078   2.480  0.0149  0.0571 -0.2423
22181W        W41035   0.031   8.337   1.370  0.0404  0.3284 -0.0900
22182W        W41036   9.610  14.075   0.366 -0.0141 -0.2582  0.3483
22183W        W41037   0.516  17.174   4.026  0.2301 -0.1311  0.0527
22184W        W41038  12.301   9.237  14.948  0.2632  0.1920 -0.1092
22185W        W41039  14.619   4.720   3.313 -0.0492 -0.1770  0.1837
22186W        W41040   8.246   7.684  12.637  0.1177 -0.0966 -0.0408
22187W        W41041  12.131   7.338  16.845  0.1026  0.1750  0.1923
22188W        W41042   8.855   4.754  12.610  0.0510  0.0398 -0.1352
22189W        W41043   1.254   8.145   2.696  0.1372 -0.0755  0.0054
22190W        W41044   5.975  16.910   1.709 -0.3089  0.0051  0.1996
22191W        W41045   9.610  15.360  16.319  0.0061 -0.3169  0.1096
22192W        W41046   4.179   6.944  15.317  0.2304 -0.0160 -0.0484
22193W        W41047   0.574   4.341  14.205 -0.0939 -0.0097 -0.1293
22194W        W41048  16.897   0.265   4.803 -0.1169  0.1720  0.2530
22195W        W41049  12.276  11.455   2.066 -0.0838 -0.1558 -0.1962
22196W        W41050  12.049   9.094   3.760  0.0736 -0.0376  0.4075
22197W        W41051   2.434   1.966  15.088  0.2473  0.1213  0.0233
22198W        W41052  13.466   1.270  16.102  0.1614 -0.5095 -0.0377
22199W        W41053   4.280  10.737  13.098  0.0341 -0.0099 -0.3032
22200W        W41054  12.355  14.257  16.752  0.0404  0.2322  0.0021
22201W        W41055  16.446   8.749   2.929  0.3810 -0.1694 -0.1935
22202W        W41056  15.263  12.859   5.020  0.0718 -0.1222 -0.0787
22203W        W41057  11.835  14.608  13.010 -0.2795 -0.3383 -0.3331
22204W        W41058  13.489   0.208   4.291  0.0206  0.1590 -0.1276
22205W        W41059  17.374  11.641  16.516 -0.0799  0.0848  0.3702
22206W        W41060  12.427   9.225  14.110 -0.1216  0.0054 -0.0589
22207W        W41061  14.577   1.484   3.297 -0.4001  0.2187  0.0580
22208W        W41062  14.118  10.298  16.786  0.1853  0.1086 -0.0002
22209W        W41063   4.660  13.909   0.952  0.2585 -0.0975 -0.1372
22210W        W41064  16.948  13.516  17.461 -0.2862 -0.0397  0.0894
22211W        W41065  14.154   5.556  15.404  0.2036  0.0185  0.3220
22212W        W41066  13.178   6.439  15.501 -0.0034 -0.0581 -0.3550
22213W        W41067   2.220   3.415   1.402 -0.1784  0.1596 -0.1709
22214W        W41068   5.700  12.819  16.883 -0.0182 -0.2301  0.1478
22215W        W41069   6.464  17.200  14.382  0.0039 -0.1455 -0.3027
22216W        W41070  10.516  17.300   4.342  0.3143  0.0394  0.1654
22217W        W41071   7.925   3.813  14.690 -0.0848  0.3209 -0.1816
22218W        W41072  11.392   2.025  15.072 -0.0742  0.1091 -0.1504
22219W        W41073  14.316   5.965   2.569 -0.1827  0.2377 -0.3155
22220W        W41074   5.551   8.776  14.434  0.0515 -0.1565 -0.1945
22221W        W41075   0.447   8.891   3.400  0.0791 -0.0571  0.1153
22222W        W41076  16.137   0.259   0.034 -0.4129  0.0948 -0.0324
22223W        W41077   9.748   4.799  12.221 -0.2694  0.1406  0.0021
22224W        W41078   4.051   9.854   0.375  0.0350  0.5151 -0.4576
22225W        W41079   4.010   7.241  12.523  0.2859  0.1003  0.2200
22226W        W41080  13.112   1.526   1.706  0.3569  0.0212  0.1177
22227W        W41081  16.709   2.132  15.044 -0.2786  0.1728  0.1333
22228W        W41082   8.533   2.678   5.320 -0.0975 -0.0367 -0.2294
22229W        W41083   4.045   2.508   2.850 -0.0677  0.0237 -0.0384
22230W        W41084  10.241  15.813   3.348  0.0273 -0.0194 -0.1775
22231W        W41085   5.790  12.853  14.443  0.1253  0.0183  0.0529
22232W        W41086   1.929  10.269   4.298  0.1410  0.0239  0.1618
22233W        W41087  16.882  11.886  15.548 -0.0073 -0.1396  0.0813
22234W        W41088  11.759   6.261   3.529  0.1830  0.0113 -0.0709
22235W        W41089  11.950   5.678   1.938  0.2682  0.0034  0.2074
22236W        W41090   0.341  11.557   2.052  0.1235 -0.1577  0.2158
22237W        W41091   9.054  16.967   0.258 -0.1700 -0.1422  0.2491
22238W        W41092  16.902  16.442  16.093 -0.2250  0.1047  0.2401
22239W        W41093  10.658  13.080  13.177  0.0688 -0.0975 -0.1122
22240W        W41094   8.200  13.702   4.322  0.0857  0.0230  0.5449
22241W        W41095  16.733   4.991  15.287  0.0516 -0.0938 -0.0574
22242W        W41096   7.288   1.757   1.189 -0.0284  0.1942  0.2193
22243W        W41097  16.137  16.738   1.638 -0.0784 -0.0807  0.0763
22244W        W41098   8.171   4.278  13.932  0.0234 -0.1205 -0.0114
22245W        W41099  11.161   4.946   3.148 -0.1347  0.3010  0.0543
22246W        W41100   2.640  15.075  14.847 -0.0650 -0.4658 -0.1138
22247W        W41101   7.896   7.702   4.188 -0.0834  0.0403 -0.1472
22248W        W41102   9.425  15.290   3.331  0.0995 -0.0243  0.1189
22249W        W41103   5.484  17.381   3.491 -0.2099  0.0007 -0.1103
22250W        W41104  14.061   3.326  17.390 -0.0978 -0.1083 -0.3599
22251W        W41105   9.053  13.523  16.550  0.1517  0.0712 -0.1943
22252W        W41106   0.736  16.462   5.519  0.0843 -0.0959  0.0612
22253W        W41107  14.417  11.778   4.954  0.0489 -0.1520 -0.0223
22254W        W41108   7.359   3.312   0.406  0.0453 -0.3478  0.0203
22255W        W41109   4.373   9.063   2.565  0.0890  0.0822 -0.0327
22256W        W41110   5.302   6.363   2.984 -0.1659 -0.2210 -0.0701
22257W        W41111  15.612   5.245   6.074  0.2561 -0.3214 -0.2220
22258W        W41112   4.947   9.771   4.521  0.1365  0.1914 -0.0461
22259W        W41113   7.481  15.961   4.585  0.1567  0.2733  0.0184
22260W        W41114  15.018   0.747  15.084 -0.2650 -0.1396  0.1546
22261W        W41115   7.399  12.394  17.400 -0.0131  0.2854 -0.1305
22262W        W41116   9.691   8.522   4.424  0.2016  0.3150 -0.0779
22263W        W41117  14.027   5.297  16.839 -0.0964 -0.0681  0.0244
22264W        W41118   5.914   8.912   0.991  0.4426 -0.0710 -0.3000
22265W        W41119  10.357  10.245   5.175  0.1278  0.0643  0.0865
22266W        W41120   5.724   5.702  15.557 -0.0596 -0.2116  0.1314
22267W        W41121   8.967  11.420   3.558 -0.0832 -0.0859  0.0341
22268W        W41122   5.982   7.243  17.363 -0.0355 -0.2546 -0.2671
22269W        W41123   3.706   9.878   4.748 -0.0701 -0.0354  0.1301
22270W        W41124  12.635   5.046  13.910 -0.2811  0.0304 -0.1664
22271W        W41125   0.296  13.381   1.480 -0.0070 -0.2837 -0.1773
22272W        W41126  16.873   7.684   4.066 -0.3791  0.1114 -0.2315
22273W        W41127  10.176   8.416  14.599 -0.0413  0.5350 -0.0710
22274W        W41128   1.521  16.456  14.829  0.0394 -0.2912  0.1005
22275W        W41129  11.906   2.165  14.294 -0.1453 -0.1264 -0.2269
22276W        W41130   0.581   8.963   0.236  0.2269  0.2033  0.1289
22277W        W41131   1.466   2.663  14.462  0.2811 -0.2586  0.1200
22278W        W41132  17.106  12.808  16.603  0.1068  0.1032  0.0070
22279W        W41133   4.189   1.400   2.249 -0.2983 -0.0564  0.0181
22280W        W41134  14.790  17.188   3.328 -0.3110  0.1418  0.1558
22281W        W41135   3.318  14.733  17.045 -0.0788  0.0382 -0.2568
22282W        W41136   7.069  12.045   0.045 -0.0939 -0.1677 -0.0723
22283W        W41137   0.455   6.931   3.464 -0.1746  0.1372  0.0467
22284W        W41138   9.480  10.120  15.039  0.2237  0.4730  0.1085
22285W        W41139   0.025  11.391  16.956 -0.1090 -0.0438 -0.0513
22286W        W41140  10.296  11.941  14.201  0.0303  0.1307  0.4108
22287W        W41141   9.279   8.915   3.394 -0.1881  0.4049 -0.0613
22288W        W41142  14.832  16.404   0.583 -0.2161 -0.1042  0.0630
22289W        W41143  14.986  13.466  15.044  0.3075  0.0752 -0.3560
22290W        W41144   7.201  17.289  13.696 -0.2048 -0.0667  0.1702
22291W        W41145  11.745   4.073   3.036 -0.1012 -0.0063  0.0332
22292W        W41146   0.634  11.894   3.877 -0.1230 -0.0136  0.1360
22293W        W41147  14.787   1.478   1.160  0.2278 -0.1007  0.0724
22294W        W41148   7.292  13.529   2.375  0.0386  0.0924 -0.2044
22295W        W41149   2.921  10.667  13.420  0.1973  0.1106 -0.0325
22296W        W41150  11.081  17.339   4.752  0.1617 -0.2129 -0.0041
22297W        W41151  15.603   4.602   5.333  0.1170  0.1341 -0.0012
22298W        W41152   8.656  14.971   5.019  0.2608  0.1538 -0.0702
22299W        W41153  13.266   7.565  14.672  0.2681 -0.0564  0.2598
22300W        W41154  17.286  11.811   4.317  0.1527 -0.1011 -0.1479
22301W        W41155   4.054   2.345   4.730 -0.1804  0.0589 -0.0733
22302W        W41156   7.923   0.260   0.492 -0.0666  0.3029 -0.2309
22303W        W41157  14.260   2.734  17.304  0.3976 -0.3405  0.0060
22304W        W41158  10.474   0.755   3.189  0.1663  0.1646  0.2889
22305W        W41159  16.087  13.138  15.466  0.0340  0.2320  0.0346
22306W        W41160  15.388   0.706  15.898 -0.0970  0.1085 -0.3013
22307W        W41161  15.845  16.129  14.256  0.1750 -0.1430  0.0478
22308W        W41162   8.788   4.428   1.691  0.2278  0.1821  0.0637
22309W        W41163   2.734   6.765   3.085 -0.0384  0.0216  0.0943
22310W        W41164   5.357   0.182   3.919 -0.0404  0.1741 -0.0615
22311W        W41165  12.925   7.508  13.491 -0.1663 -0.0635  0.2408
22312W        W41166  11.941   6.725   2.263 -0.0349 -0.1873  0.0283
22313W        W41167   7.817   8.605  15.701  0.3630 -0.0521 -0.0387
22314W        W41168   1.958  10.394   1.305 -0.1931  0.0944  0.1284
22315W        W41169   0.834   4.199  14.977  0.3295  0.2982  0.1061
22316W        W41170   9.755   7.268  17.157 -0.1491  0.1887 -0.0345
22317W        W41171   3.550  14.894   3.011  0.0949  0.2329  0.1005
22318W        W41172   0.566   9.838  14.524 -0.0999 -0.0724 -0.2582
22319W        W41173  14.251   8.703   4.928  0.2874 -0.2602  0.0348
22320W        W41174   5.129  14.670   2.976 -0.0858  0.2220  0.1502
22321W        W41175   3.015   2.082   1.113  0.0866  0.1983  0.3716
22322W        W41176  10.686   4.248  16.678  0.0205 -0.2886  0.1712
22323W        W41177   6.542   8.969   3.994  0.0933 -0.0287  0.1500
22324W        W41178   3.544   9.274  17.427 -0.1741 -0.0442 -0.0298
22325W        W41179   9.703   1.734   3.592  0.3308 -0.0290  0.1123
22326W        W41180  13.719   9.021  14.958  0.1371  0.0909  0.0681
22327W        W41181  11.016  16.645   4.914  0.1007 -0.1649  0.0090
22328W        W41182   3.042   5.521   5.255  0.0248 -0.0434 -0.1587
22329W        W41183  13.655   4.610   0.447 -0.2422 -0.1079  0.0187
22330W        W41184  16.015   0.135   0.843  0.0612  0.0159  0.2532
22331W        W41185  10.708   5.451  14.016  0.1442 -0.2618 -0.2489
22332W        W41186   6.889  16.754  12.817  0.0762  0.1893  0.0666
22333W        W41187  12.971   4.952  16.343 -0.0604 -0.1243 -0.1804
22334W        W41188   9.082   1.417   2.901 -0.0742  0.0067  0.1716
22335W        W41189   6.001  10.992  16.689 -0.0571  0.0586 -0.0384
22336W        W41190  16.419  15.006  17.079  0.0016 -0.0355 -0.1494
22337W        W41191   8.626  13.438   3.307  0.0062  0.2179  0.0012
22338W        W41192   2.318   2.910   4.146 -0.1305  0.0703 -0.1643
22339W        W41193   5.363  14.273   4.194 -0.2586 -0.0643 -0.1757
22340W        W41194   1.515  15.685  15.158  0.0151 -0.5286 -0.2113
22341W        W41195  11.190  14.029   0.439  0.0659 -0.0248 -0.4160
22342W        W41196   3.112   8.262   2.319 -0.1906  0.2497 -0.0248
22343W        W41197   5.641  10.370  15.182 -0.0794 -0.0340  0.0241
22344W        W41198   4.555   5.915  15.739  0.0038 -0.2502  0.1897
22345W        W41199   6.552   4.487  12.890 -0.1097  0.2899 -0.0906
22346W        W41200   3.767  14.660   2.608 -0.1189 -0.0564 -0.0168
22347W        W41201   0.645   7.319   0.189  0.1001  0.2259  0.1432
22348W        W41202   4.573   0.190  13.027 -0.0535  0.1289  0.0693
22349W        W41203   0.619  16.556  16.934  0.0425  0.2628  0.0614
22350W        W41204  12.626  12.913  16.764 -0.1065  0.0792 -0.0709
22351W        W41205  10.786   3.242   0.860  0.2448  0.2122 -0.0984
22352W        W41206  11.219  14.443  16.689 -0.3829 -0.1492  0.0854
22353W        W41207   3.084   5.458  13.938  0.4914  0.0357 -0.0954
22354W        W41208   3.134   1.917   4.920  0.2971  0.3266 -0.0749
22355W        W41209   2.076  10.720  14.362 -0.1618  0.1419 -0.1290
22356W        W41210  17.266   2.691  12.897  0.3552  0.1888 -0.0062
22357W        W41211  13.261  14.179  16.029  0.1100 -0.0150  0.0342
22358W        W41212   5.864   0.371  12.678  0.1822  0.3493 -0.2652
22359W        W41213   2.087  12.079  17.089 -0.1304  0.0017  0.2360
22360W        W41214   5.683   7.678  12.648 -0.0143 -0.3924 -0.0997
22361W        W41215  13.983   5.863  14.198  0.0550 -0.1871 -0.0157
22362W        W41216  10.649   2.265  17.026 -0.2039  0.0867 -0.2431
22363W        W41217   8.089  11.878   1.553  0.0127 -0.4100 -0.0650
22364W        W41218   6.971  14.075   3.992  0.1870  0.1423 -0.0388
22365W        W41219   1.370  16.178  13.457 -0.3951 -0.2959 -0.0582
22366W        W41220   6.476   5.992   1.846  0.0454  0.3263 -0.3541
22367W        W41221   2.059  15.126  12.305 -0.3227  0.0129  0.0496
22368W        W41222  14.260   4.514   2.030  0.2050  0.0455  0.0533
22369W        W41223  17.255   1.963  12.989  0.0161 -0.1824 -0.5884
22370W        W41224  14.656   1.422   5.101  0.0382  0.0510  0.1391
22371W        W41225  10.309  14.032  15.711  0.1298 -0.1500  0.1626
22372W        W41226   4.837  13.836   1.667  0.0416 -0.3744  0.1134
22373W        W41227   4.040  12.487   1.830 -0.1764  0.0161 -0.3333
22374W        W41228   7.450   1.293  14.946 -0.0016  0.2028 -0.0344
22375W        W41229  10.359   3.074  17.017  0.1900 -0.2177  0.0690
22376W        W41230   5.822   9.117  17.433 -0.2645 -0.3748 -0.0408
22377W        W41231   4.748   8.063   4.517 -0.0798  0.0915 -0.0791
22378W        W41232   3.480  12.155   2.982 -0.1594  0.2983 -0.1994
22379W        W41233  15.526   4.130   5.285  0.5179 -0.0031  0.1449
22380W        W41234  12.351  13.338  14.959 -0.1098  0.0701  0.0825
22381W        W41235  10.698   1.392  15.817 -0.2427  0.0640 -0.3646
22382W        W41236  16.110  15.631   1.532  0.2098  0.2575  0.1392
22383W        W41237  17.402  10.817   0.836 -0.2848  0.0694 -0.0908
22384W        W41238  15.528   1.773  15.190  0.0788  0.0399  0.0594
22385W        W41239  10.341   7.408   3.071  0.1137 -0.0064 -0.1008
22386W        W41240   2.168   5.108   3.383  0.3817 -0.2294  0.0712
22387W        W41241   5.847   5.561   0.784  0.1082 -0.0785 -0.1056
22388W        W41242  13.848  13.066   2.826 -0.1835 -0.0857 -0.2516
22389W        W41243   6.385  14.733   0.358  0.2408  0.3889 -0.1118
22390W        W41244  14.804   9.781   0.626 -0.1810 -0.0546 -0.0656
22391W        W41245   9.784   1.237  16.535 -0.1592 -0.1994 -0.0257
22392W        W41246  17.328   2.010   1.150 -0.0814 -0.0263  0.6215
22393W        W41247   5.272   3.580   2.709 -0.1433  0.1631  0.1048
22394W        W41248   8.437   8.297  16.541 -0.0471  0.1266  0.0807
22395W        W41249   6.420  12.422   5.946 -0.1863 -0.1428 -0.0019
22396W        W41250   0.378   5.899   3.783  0.2406  0.1256 -0.1447
22397W        W41251  10.390  16.888   0.314 -0.1795 -0.2546  0.1868
22398W        W41252   9.953  16.982   2.686 -0.2459 -0.0512 -0.2653
22399W        W41253  13.186  17.342   1.685 -0.0301  0.0819 -0.1524
22400W        W41254  15.865  12.594  14.751 -0.0712  0.1656 -0.0756
22401W        W41255   8.439   6.541  12.513  0.2513 -0.1803 -0.2348
22402W        W41256   3.469  15.312  16.341  0.1887 -0.1862 -0.1608
22403W        W41257  14.220  12.709  15.965  0.1108  0.0156 -0.1003
22404W        W41258  13.073  10.890   4.747  0.2340 -0.0075 -0.2500
22405W        W41259  16.346  13.787   3.132  0.3046  0.0188 -0.0520
22406W        W41260  10.036  12.848  15.278 -0.1395 -0.1353 -0.0720
22407W        W41261  12.091  14.297   1.411 -0.1362  0.4828  0.3770
22408W        W41262   9.718   6.525   0.329 -0.0240 -0.3456  0.0350
22409W        W41263   7.416  12.347   0.755  0.1134  0.2031  0.0494
22410W        W41264   4.588  17.346  12.591  0.0049  0.0507 -0.1206
22411W        W41265  11.533   9.608   1.900  0.1222  0.1848  0.0162
22412W        W41266   1.412   9.496   1.132  0.1290  0.0914  0.1041
22413W        W41267   8.144   0.614   4.138  0.1831 -0.0746 -0.1087
22414W        W41268  15.291   9.709  16.424 -0.2303  0.5101 -0.0089
22415W        W41269  15.220   0.274  12.754 -0.0874 -0.0006 -0.1832
22416W        W41270   1.805  10.106   0.915  0.0628 -0.0572  0.2437
22417W        W41271   3.798  14.038   1.895 -0.2552 -0.0248 -0.0899
22418W        W41272   6.071   3.561  12.573  0.0625  0.2953 -0.1045
22419W        W41273  11.962  14.000   0.031  0.2348 -0.0775  0.0960
22420W        W41274   0.521  10.661  14.715  0.1351 -0.0013  0.0194
22421W        W41275  13.838   8.349  14.564  0.1481  0.2545 -0.0966
22422W        W41276  16.320  11.280   0.225 -0.0923 -0.1541  0.0526
22423W        W41277   0.824  13.210  13.104 -0.0168 -0.1561  0.0620
22424W        W41278  10.999  15.425   5.127 -0.2428  0.3375  0.0015
22425W        W41279  16.372  12.414   1.077 -0.6082  0.0684  0.0131
22426W        W41280   5.199  16.362   0.704  0.3133 -0.2776 -0.3112
22427W        W41281   3.270   5.708   4.301 -0.2333  0.0292  0.1910
22428W        W41282  12.121   7.693   0.936  0.2085 -0.0022 -0.0048
22429W        W41283   4.602   4.605  13.527  0.2098 -0.0177  0.1554
22430W        W41284   3.460   9.488  13.384  0.1071  0.1570  0.0939
22431W        W41285  17.238   7.339   2.475  0.0563  0.0462 -0.0455
22432W        W41286  15.786  16.642  11.483 -0.1799 -0.1978 -0.0396
22433W        W41287   0.411   8.194  13.229  0.5303  0.1922 -0.1297
22434W        W41288   7.162   1.298   1.773 -0.0706 -0.1326 -0.4673
22435W        W41289   0.116  16.414   4.303  0.0822  0.2780 -0.4547
22436W        W41290  10.792   2.942  13.471  0.3002  0.0597 -0.2474
22437W        W41291   3.512   0.230   0.485  0.1167  0.1263 -0.2579
22438W        W41292   9.112   1.671   3.902 -0.3058  0.1984  0.0588
22439W        W41293  15.066  15.455  17.471  0.1893  0.3720 -0.1981
22440W        W41294  13.582   5.561  14.352  0.0684 -0.0441 -0.1686
22441W        W41295  11.863  14.551  15.227 -0.3547  0.0481  0.0939
22442W        W41296   4.795  11.199   4.527 -0.1276  0.1284  0.0973
22443W        W41297   2.805  16.743  13.745 -0.3024  0.2590  0.1819
22444W        W41298   0.713   3.934  14.482 -0.0893  0.1809  0.3212
22445W        W41299  13.688   7.268  13.537 -0.1427 -0.0352 -0.3355
22446W        W41300  16.799   5.555   4.838 -0.0451  0.2627 -0.0461
22447W        W41301  15.333   9.594   4.733 -0.2743 -0.1693  0.0450
22448W        W41302   1.742   2.523   3.092 -0.1931  0.0937 -0.2673
22449W        W41303   3.618   4.255  16.808  0.0652  0.0165  0.0069
22450W        W41304   8.628   4.545  15.157 -0.0976  0.0740 -0.2802
22451W        W41305   2.421   7.014   1.240 -0.2551  0.1985 -0.2943
22452W        W41306   9.341   3.031   5.254  0.0843  0.2638  0.1788
22453W        W41307   2.415  11.412  14.400 -0.1199  0.3523  0.5587
22454W        W41308   3.522  13.165  17.249 -0.0145  0.3907 -0.1067
22455W        W41309   5.900   5.913   3.031  0.1192 -0.1219  0.2830
22456W        W41310   4.125   2.814   4.939 -0.2426  0.0376 -0.1403
22457W        W41311  15.122   8.647  12.481  0.1141 -0.0870 -0.0878
22458W        W41312   4.853  17.040   0.707 -0.0489 -0.1474  0.3790
22459W        W41313   2.307  15.845   3.149  0.2135  0.1923  0.2725
22460W        W41314  15.409   6.772   3.647 -0.2343 -0.0393  0.0003
22461W        W41315   1.666  15.634  15.968 -0.1344 -0.1152 -0.0901
22462W        W41316   2.089  13.416   2.325  0.2008  0.0445  0.1285
22463W        W41317  10.955  14.008  12.719  0.1169 -0.0053  0.2351
22464W        W41318  16.131  12.620   4.063  0.1024  0.2010 -0.3332
22465W        W41319   2.417   6.782  17.228  0.0191  0.0109  0.3701
22466W        W41320  16.561   7.454   1.146  0.2906 -0.0923  0.1684
22467W        W41321   2.961   3.317  15.872  0.2746  0.2710  0.0015
22468W        W41322  12.304  17.169  15.325  0.0966  0.0244 -0.3571
22469W        W41323   7.496   4.747  12.910 -0.2975 -0.3425 -0.1442
22470W        W41324  14.528   3.389  15.360  0.2203 -0.0783 -0.1150
22471W        W41325   4.609  10.773  12.275  0.0658  0.1205  0.0141
22472W        W41326  12.845  15.423  16.312 -0.1303 -0.1054  0.0894
22473W        W41327   2.352  13.216  14.127 -0.0795 -0.2526  0.2052
22474W        W41328  13.415  11.337  13.247  0.2438  0.2437  0.1033
22475W        W41329  14.861  13.144  16.799  0.1348  0.0129 -0.1995
22476W        W41330  12.209   5.001   3.274 -0.0986  0.0772  0.1037
22477W        W41331  16.861   3.578  16.731  0.2948 -0.2098  0.3118
22478W        W41332   9.909   3.107   4.098 -0.2025  0.0096 -0.3936
22479W        W41333  14.346  13.612  11.492  0.3179 -0.0151 -0.0091
22480W        W41334   6.677   1.927   4.146 -0.0499 -0.3659 -0.1632
22481W        W41335   3.624   2.214   5.058  0.0369 -0.2156  0.2418
22482W        W41336   6.332   9.856  14.574  0.1885  0.0048 -0.0986
22483W        W41337  17.365  16.310   4.784  0.1661  0.3155 -0.1822
22484W        W41338   6.751  11.645  17.319  0.2351 -0.2995  0.2033
22485W        W41339   1.879  13.663  13.577  0.1159  0.1022 -0.1626
22486W        W41340   4.855   3.816  16.472  0.0293  0.1798  0.2343
22487W        W41341   9.218   7.886   4.258  0.0220 -0.1761 -0.0951
22488W        W41342   6.223  12.637   1.705  0.1539  0.0550  0.2162
22489W        W41343   1.445  17.300   2.386  0.0619 -0.1400 -0.1536
22490W        W41344   5.357  13.832   3.841  0.4758 -0.0405 -0.0113
22491W        W41345  12.641  11.184   1.867 -0.0951  0.0488  0.1688
22492W        W41346  13.484   1.925   1.675  0.0793 -0.2555 -0.0626
22493W        W41347  11.040   2.743  15.489 -0.3794  0.1217 -0.2443
22494W        W41348   0.797   0.887   0.164 -0.2004 -0.0264  0.2154
22495W        W41349   8.067   3.145  16.673  0.4233  0.2612 -0.0986
22496W        W41350   2.895  11.502   2.400  0.0901  0.3086 -0.1635
22497W        W41351   4.114   2.085   1.498 -0.2210  0.0344 -0.0631
22498W        W41352   0.871  14.922  14.965 -0.0331  0.2420  0.0523
22499W        W41353  15.450   8.651   0.520  0.0715 -0.5128 -0.0133
22500W        W41354  15.615   9.622   2.068  0.1632 -0.0192 -0.0046
22501W        W41355   6.457   6.215   5.100  0.0792  0.1503 -0.3183
22502W        W41356   0.749   5.443   0.356  0.1466  0.1548  0.2352
22503W        W41357  15.202  15.275  13.143 -0.0579 -0.0087  0.0017
22504W        W41358  10.970   9.204   4.677 -0.1441  0.0047  0.0445
22505W        W41359   8.655  15.063  15.600  0.4689 -0.0156  0.1133
22506W        W41360  15.471   2.108   5.151  0.3750  0.0193 -0.1358
22507W        W41361   5.507   7.672  13.913  0.0488 -0.1222 -0.0729
22508W        W41362   5.047  12.159   3.749 -0.0416  0.0365 -0.2851
22509W        W41363   7.417  16.674   3.013  0.1562 -0.1188  0.1960
22510W        W41364   5.035   5.609   4.638 -0.1833  0.0784  0.0657
22511W        W41365   4.707   3.460   4.449  0.1049  0.0684  0.0326
22512W        W41366   6.948  10.740  14.344 -0.0267  0.1294  0.4892
22513W        W41367   4.481  11.933   5.146  0.0367 -0.0167  0.1981
22514W        W41368  15.004   3.095  14.374 -0.0231  0.3136 -0.2750
22515W        W41369   5.131   1.863   0.625 -0.2647 -0.0332  0.1463
22516W        W41370   6.263   9.541   3.289  0.2117 -0.4118  0.2078
22517W        W41371   3.534   7.271   5.137 -0.0672  0.1783 -0.0301
22518W        W41372  13.481   1.158   4.013  0.2171  0.2012 -0.1828
22519W        W41373   7.977  13.043  13.368  0.0036 -0.0861 -0.3310
22520W        W41374  17.220  10.893  16.881  0.1213 -0.0132 -0.1687
22521W        W41375  13.336   3.402   3.009 -0.0202 -0.0465 -0.1162
22522W        W41376  12.963   5.064  15.743 -0.1283  0.2455 -0.0465
22523W        W41377  10.319   4.183   1.792 -0.0293  0.1560  0.2241
22524W        W41378  16.973   5.143  13.880 -0.0470  0.0813 -0.0528
22525W        W41379  11.952  16.529   2.705 -0.0501 -0.0153  0.0908
22526W        W41380   6.198   2.380   1.239 -0.2430  0.0556  0.0259
22527W        W41381  16.752  16.188  13.830 -0.1563  0.0047 -0.0908
22528W        W41382   7.911   9.731   1.540  0.0734 -0.1287  0.2175
22529W        W41383  16.722   4.965  13.333 -0.0964 -0.1100  0.0591
22530W        W41384  14.461   9.431  13.927 -0.0405 -0.0423 -0.2750
22531W        W41385  12.844  14.734  12.939  0.2355 -0.0624 -0.3275
22532W        W41386   5.016  10.505  12.925 -0.1050  0.1433  0.1034
22533W        W41387   3.326  11.323   4.789  0.1906  0.0102  0.2667
22534W        W41388  13.820   5.731  16.617 -0.0253 -0.1843  0.1590
22535W        W41389   1.744  14.399  12.881  0.2727  0.0924 -0.2287
22536W        W41390   2.966   8.410   1.843 -0.0726 -0.2011  0.0060
22537W        W41391   9.746  15.720   4.339 -0.1393  0.3768 -0.3105
22538W        W41392   5.717  13.035   4.352  0.0076 -0.1295 -0.1762
22539W        W41393   2.250  12.928  15.978  0.1000 -0.3856 -0.3003
22540W        W41394   2.797   1.656  11.330 -0.0160  0.0345 -0.4920
22541W        W41395   2.030  10.580   3.297  0.0537  0.2857 -0.3065
22542W        W41396  11.043  13.461  13.253 -0.0253  0.0727 -0.2779
22543W        W41397   4.898  15.997  17.138 -0.0959  0.0145  0.1380
22544W        W41398   5.378   8.055  17.176  0.2145  0.1067  0.1505
22545W        W41399   9.345  13.959   4.503  0.3244 -0.1684 -0.0279
22546W        W41400   5.764   9.461  16.417  0.2501 -0.0141 -0.2470
22547W        W41401  11.592   7.778   3.207  0.0789 -0.0764 -0.0105
22548W        W41402  10.096   6.281   0.551  0.3485 -0.0730  0.5812
22549W        W41403   7.684   0.704   4.478  0.3103 -0.0018  0.2104
22550W        W41404  10.678   0.990   2.416 -0.2402  0.0889  0.1290
22551W        W41405   7.479   2.698  15.319  0.2123  0.1011 -0.1198
22552W        W41406   6.756  10.084  17.052  0.0241 -0.2817 -0.2189
22553W        W41407   1.912   8.754   3.689 -0.0511  0.0239  0.2955
22554W        W41408   2.105   3.002  15.604 -0.1231 -0.3782  0.1849
22555W        W41409  10.796  16.686   3.597 -0.1473  0.0446 -0.0152
22556W        W41410  10.537   0.081   2.335  0.0818 -0.1546 -0.0944
22557W        W41411   9.750  13.218   4.609 -0.1971  0.0871 -0.0100
22558W        W41412   5.305   6.964  13.164  0.0895  0.3596 -0.1510
22559W        W41413   1.304   6.793  14.231  0.1027 -0.4013 -0.0280
22560W        W41414   3.823  16.386  14.921  0.3218 -0.1072 -0.0649
22561W        W41415  13.362  15.408  17.098  0.3937  0.1370  0.2756
22562W        W41416   4.270  11.559  12.793 -0.2122  0.3757  0.1985
22563W        W41417   4.271  10.104  15.959  0.0012 -0.3577  0.2991
22564W        W41418   4.557  12.827   6.279 -0.0622 -0.2293 -0.1660
22565W        W41419   9.051   0.475  14.271  0.2091 -0.1280  0.3274
22566W        W41420   7.427   9.072  14.778 -0.1643  0.0591 -0.2371
22567W        W41421  12.387   1.861  15.725 -0.0752 -0.0240  0.0269
22568W        W41422   0.382   1.291  13.552  0.0669 -0.0694 -0.1779
22569W        W41423   4.581  11.664   4.090  0.0994  0.3007  0.6101
22570W        W41424  15.332   2.434   3.252  0.1360 -0.1930 -0.2301
22571W        W41425   4.035  11.361  16.822  0.1231  0.3060 -0.0712
22572W        W41426   6.110   1.625  17.146 -0.3674  0.0355  0.0626
22573W        W41427   1.504   2.627  13.878 -0.0324  0.1375 -0.0190
22574W        W41428  16.579  10.755  15.738 -0.0023 -0.2267 -0.1601
22575W        W41429  16.133   8.024  14.707  0.1323 -0.2188  0.1046
22576W        W41430   6.486  16.202  14.095  0.0502  0.0870  0.1023
22577W        W41431   4.922  10.715   4.840  0.0857  0.0531 -0.4353
22578W        W41432   4.698   6.432   0.791  0.0648  0.0326  0.1413
22579W        W41433   1.283  15.083  12.567 -0.0889 -0.0900  0.0762
22580W        W41434   0.672   0.223   0.961 -0.0024  0.0344 -0.1457
22581W        W41435  14.551  15.607  14.380  0.0064  0.2000 -0.1355
22582W        W41436  10.107  11.580   3.673  0.2490  0.4526  0.0553
22583W        W41437   7.939  15.366   0.104 -0.1105  0.2404  0.0849
22584W        W41438  12.258   6.566   4.277 -0.2624  0.0982 -0.3585
22585W        W41439   6.121  15.336   1.808 -0.2442  0.0036  0.0903
22586W        W41440  10.537   4.902   3.135 -0.0957 -0.2415  0.1228
22587W        W41441   3.442   1.571  14.098 -0.1464  0.0819 -0.0011
22588W        W41442  10.735   4.400   4.803 -0.0524 -0.0193 -0.0323
22589W        W41443   7.411   5.333  17.291 -0.0336  0.0851 -0.0068
22590W        W41444   3.559  16.044  17.279 -0.0606 -0.1495  0.2150
22591W        W41445  16.722   7.309  14.327 -0.0307  0.2184 -0.0537
22592W        W41446   5.964  11.371  17.061 -0.0399  0.2227  0.1489
22593W        W41447   4.765   9.505  13.837 -0.0750  0.0755 -0.1622
22594W        W41448  10.519   5.136   2.695 -0.1334 -0.0618 -0.0769
22595W        W41449   2.004   4.639  17.173  0.3541  0.1737  0.3630
22596W        W41450  14.232   3.272  13.942 -0.2830  0.0095 -0.3614
22597W        W41451   2.798   3.573  14.070  0.0107  0.3042  0.0267
22598W        W41452   9.472   9.788   3.097  0.0291 -0.0138 -0.2770
22599W        W41453  10.302   1.816   3.725  0.1542  0.1352  0.2178
22600W        W41454   2.982   0.502   4.519  0.0854 -0.3022 -0.1359
22601W        W41455   8.322  10.479   6.230 -0.2799 -0.1561  0.0804
22602W        W41456  16.838   2.736  14.093 -0.2659 -0.0300 -0.2231
22603W        W41457   8.130  16.442  14.704 -0.0874  0.0807  0.2034
22604W        W41458  13.034  16.155  13.519  0.0590 -0.1736 -0.1341
22605W        W41459   1.510  16.941   4.950 -0.0508  0.0929  0.0888
22606W        W41460   4.748  12.534  16.446  0.1747  0.1706  0.0156
22607W        W41461  14.847   3.858  13.797  0.3737 -0.0684 -0.0924
22608W        W41462   2.240  16.631   4.225 -0.1719  0.0857  0.2617
22609W        W41463  14.919  12.466  14.752  0.0628  0.2093  0.2067
22610W        W41464   0.858   8.116   1.179 -0.2223  0.2291  0.1243
22611W        W41465  15.168  15.971   2.248 -0.0836  0.0757 -0.0465
22612W        W41466   7.890  15.474  13.688 -0.0338 -0.0616 -0.1112
22613W        W41467   5.518  15.906   4.669  0.3007  0.2137 -0.0094
22614W        W41468  14.728  10.424   2.122  0.0322 -0.1325  0.0089
22615W        W41469   0.743  12.222   3.260 -0.1745 -0.1900  0.1954
22616W        W41470   0.459   0.858   2.365 -0.1171  0.1238 -0.1479
22617W        W41471  13.609  14.999   1.623 -0.0385 -0.1381  0.1611
22618W        W41472   0.643  12.506   1.698 -0.2019 -0.3533 -0.3087
22619W        W41473   1.063   9.023  16.879  0.1495 -0.1024  0.1677
22620W        W41474  12.715   1.005  16.678  0.0186 -0.1877  0.1613
22621W        W41475   9.883  14.154   0.784 -0.0610  0.0117 -0.2512
22622W        W41476   8.810  14.253   1.141 -0.2025  0.0687  0.2897
22623W        W41477   8.310   4.079   3.032  0.1233 -0.1297 -0.0374
22624W        W41478  13.398   4.912  17.047  0.3162  0.0577 -0.0028
22625W        W41479  14.827  10.231   3.555  0.0671  0.1112 -0.4603
22626W        W41480   1.629  14.481   2.674  0.1166  0.1274 -0.2593
22627W        W41481  11.128  15.339  17.381  0.0336  0.0922 -0.2957
22628W        W41482  11.397   2.628   1.575 -0.0014 -0.1322  0.0696
22629W        W41483   3.007  10.349  12.957 -0.2043  0.0280  0.5298
22630W        W41484  16.809   5.013   3.679  0.0937 -0.0704 -0.1523
22631W        W41485   5.706  11.555   2.537 -0.0081 -0.0381  0.5438
22632W        W41486   5.026   9.539   3.605  0.2195 -0.1907 -0.2177
22633W        W41487   5.597  11.773  16.937  0.0360  0.0019  0.2042
22634W        W41488  14.382  15.302   1.357 -0.0215 -0.2509 -0.1917
22635W        W41489   3.460   2.648   2.030 -0.1468  0.1664 -0.2711
22636W        W41490  10.882   2.963   1.318 -0.2999 -0.1836 -0.1473
22637W        W41491  14.828   8.434  11.622  0.1787 -0.1040  0.1407
22638W        W41492   0.969  13.182   2.867  0.1248 -0.2027 -0.0377
22639W        W41493   8.795   3.109  13.667  0.1606  0.2790 -0.0831
22640W        W41494   7.934  15.190  14.080  0.0040  0.0230 -0.0777
22641W        W41495   1.594   5.385  16.304 -0.0826 -0.3486  0.0628
22642W        W41496   9.407   4.777   5.060  0.0546 -0.0782 -0.2385
22643W        W41497   1.464   1.031  12.442 -0.0528  0.0350 -0.0643
22644W        W41498  14.590   7.273   2.561  0.1646 -0.1648  0.0483
22645W        W41499   6.586   3.957   2.266 -0.1259 -0.0345 -0.3986
22646W        W41500   0.938   6.237   3.123  0.1649  0.3922 -0.0205
22647W        W41501  15.003  11.873   1.588 -0.3168  0.2720  0.0213
22648W        W41502  14.021   2.107  14.378  0.0853  0.0697 -0.2786
22649W        W41503   9.410   5.306  15.816  0.0626  0.1564  0.1691
22650W        W41504   8.482  11.096   2.348  0.0125 -0.0976  0.1599
22651W        W41505  16.270  12.134   4.146 -0.3500  0.2562 -0.0206
22652W        W41506   5.920   9.627  14.463 -0.0004  0.2114 -0.1430
22653W        W41507   5.460   6.528   4.524  0.2602  0.1997 -0.2537
22654W        W41508   7.802   5.798  16.690  0.1252  0.2846  0.0593
22655W        W41509   5.869   9.190   4.860 -0.2136 -0.1198 -0.1117
22656W        W41510  16.947  12.619   5.043  0.0117 -0.4315 -0.2857
22657W        W41511   2.310  10.859   4.821 -0.0808  0.3082 -0.1213
22658W        W41512  15.593   5.101  14.809  0.0790  0.0716  0.1911
22659W        W41513   4.604  14.526  15.593 -0.0231  0.1823  0.0325
22660W        W41514   2.174   7.764  13.949 -0.0815 -0.4581  0.1017
22661W        W41515   9.503   8.804  13.079 -0.1428 -0.0578  0.1316
22662W        W41516   6.344  14.758  17.152 -0.1051 -0.1261  0.2410
22663W        W41517   4.861   9.354  14.459 -0.3496 -0.0131 -0.1222
22664W        W41518   0.906   8.630   3.353  0.0733  0.1053 -0.1846
22665W        W41519   5.608  11.051   2.395  0.0680 -0.1537  0.0280
22666W        W41520  17.078   7.842  14.890  0.2639 -0.0149  0.0306
22667W        W41521   2.565  14.897   1.268 -0.1400  0.2198  0.2731
22668W        W41522   5.540   2.710  15.807  0.2306 -0.0933  0.1426
22669W        W41523   0.151   2.660   3.550 -0.1677 -0.0618 -0.0695
22670W        W41524  14.597  16.782  13.201  0.2243 -0.1529 -0.0918
22671W        W41525   3.969   2.808   3.578 -0.0041 -0.0809  0.4482
22672W        W41526   4.679  12.710   0.288 -0.1431  0.0610  0.1305
22673W        W41527   8.068  14.250   2.365  0.0396  0.0382  0.0592
22674W        W41528  12.334   7.249   0.649  0.0043  0.0895  0.2910
22675W        W41529   3.813  10.100  15.699  0.0595  0.2081 -0.3656
22676W        W41530   4.094   3.414   4.322 -0.0124  0.1312 -0.0463
22677W        W41531  17.283   6.909   2.183  0.0240 -0.1737  0.1981
22678W        W41532   2.840  12.348  12.633 -0.2190 -0.2033 -0.1079
22679W        W41533   6.910   4.967  12.748  0.0932  0.0848  0.1534
22680W        W41534   1.412   3.316  12.631 -0.1970  0.2338  0.2136
22681W        W41535   6.910  11.390  16.802  0.0989 -0.0405  0.0201
22682W        W41536  14.472   8.685   5.426  0.0414 -0.1522  0.2039
22683W        W41537   9.046  10.762   1.203 -0.1648  0.0150  0.1108
22684W        W41538  15.863   0.817   2.875 -0.1136  0.2304 -0.4993
22685W        W41539   4.435   5.860  12.044  0.1108  0.2491 -0.1601
22686W        W41540   8.548   7.880  12.237  0.2132 -0.0963  0.1688
22687W        W41541   8.129  15.115   4.772  0.3523 -0.1930 -0.2198
22688W        W41542  14.257   7.862  13.909  0.1448  0.1359 -0.2709
22689W        W41543   2.323  15.185  15.390  0.2253 -0.1509  0.0097
22690W        W41544  17.185   2.926   1.958 -0.2606 -0.0376  0.0664
22691W        W41545   3.238   9.510  17.097 -0.1210  0.0298 -0.3135
22692W        W41546   3.013   9.140   4.535  0.0879  0.3871  0.1463
22693W        W41547  16.927   5.937  15.548 -0.0651 -0.0618  0.0118
22694W        W41548   3.154   8.134  15.104  0.2297 -0.2448  0.1602
22695W        W41549   6.099   1.546  14.524 -0.0023  0.0907  0.0690
22696W        W41550  12.483   6.550   2.063 -0.2216 -0.1932 -0.0896
22697W        W41551   5.585  16.795  16.949 -0.0900 -0.2963 -0.0049
22698W        W41552   9.634   9.011  12.181  0.0543  0.0866 -0.3348
22699W        W41553   8.230   8.561   2.283  0.0678  0.1546 -0.0722
22700W        W41554  15.955   7.558  13.728 -0.0836  0.1121  0.2523
22701W        W41555  17.033   9.767  14.298  0.0808 -0.1918  0.0719
22702W        W41556   3.483   1.420  15.829 -0.1088 -0.0894  0.0099
22703W        W41557  11.964  12.150  12.424  0.1530 -0.0329  0.4876
22704W        W41558   5.803   4.647   3.175  0.2925  0.4899  0.5562
22705W        W41559   7.652   5.769   2.483  0.0288  0.0513  0.3265
22706W        W41560  16.031  14.098   4.458 -0.0275 -0.0017 -0.0292
22707W        W41561   7.119   3.664   3.674 -0.0447  0.2570  0.0721
22708W        W41562   9.154  16.542   1.805  0.2079  0.0675 -0.0028
22709W        W41563  15.992   2.350   1.196  0.2302 -0.2583 -0.2153
22710W        W41564   7.925  16.461   4.049 -0.0008  0.0179  0.1443
22711W        W41565  14.538  13.949  14.270  0.1002 -0.4064 -0.0650
22712W        W41566  10.264  13.669  14.850  0.0125  0.0098  0.0817
22713W        W41567  14.323  15.561   4.136  0.0645 -0.1635  0.2057
22714W        W41568   7.977   9.430   1.123 -0.1793  0.1569  0.1078
22715W        W41569   5.235   3.808   1.789  0.0100  0.2010  0.0491
22716W        W41570   0.005   5.212  13.594  0.0781  0.3349  0.1383
22717W        W41571   3.801  15.716   3.450 -0.0865 -0.1952  0.0594
22718W        W41572   5.951   7.323  14.710 -0.0533  0.0494  0.0754
22719W        W41573   7.141   0.080  15.973  0.0592 -0.2523  0.1175
22720W        W41574   9.504  11.923   4.790  0.1496 -0.2876  0.1390
22721W        W41575   9.865  14.176  15.885  0.1426 -0.3682  0.4683
22722W        W41576   1.260   9.350   3.633  0.0475  0.3664  0.3061
22723W        W41577   6.566   1.073   1.251  0.0951  0.1804 -0.1841
22724W        W41578  13.918   1.406   4.704 -0.1206 -0.2650 -0.0102
22725W        W41579   1.722   5.209   0.759 -0.0592  0.0742  0.3634
22726W        W41580  15.034  16.564  14.393  0.0749 -0.1718 -0.0939
22727W        W41581   9.320   6.500   4.711  0.3042  0.1980  0.1483
22728W        W41582  11.235  13.206   2.507 -0.1350  0.0727 -0.1775
22729W        W41583  13.093   1.521  15.181  0.0604 -0.1234  0.0915
22730W        W41584  13.286   9.738   4.712 -0.0997 -0.1845  0.1104
22731W        W41585   2.955   5.954   2.737 -0.2577  0.1186  0.0680
22732W        W41586  12.045  17.368  12.892 -0.1414 -0.0942  0.0480
22733W        W41587  16.620   5.099   0.808 -0.1055  0.4088  0.1623
22734W        W41588  10.973  13.614   0.230 -0.0470  0.0716 -0.1505
22735W        W41589   8.624   8.102  17.002 -0.0638 -0.2210 -0.1952
22736W        W41590   5.263   1.930  16.073  0.1834 -0.0338 -0.0408
22737W        W41591  16.016   1.734  14.887  0.0795 -0.3303  0.5073
22738W        W41592   8.391   5.988  15.122 -0.1167  0.1542  0.3003
22739W        W41593  11.439  13.139  13.443  0.0894 -0.2100 -0.0433
22740W        W41594   7.648  17.020   2.744  0.0167 -0.1463  0.1827
22741W        W41595   7.580  17.173   3.688 -0.0734 -0.1081  0.1579
22742W        W41596   4.322  12.878   2.288 -0.2359  0.2729  0.1214
22743W        W41597   5.193  17.083   0.258  0.4914  0.1236  0.0312
22744W        W41598  15.567  15.019   3.132  0.1083  0.2308 -0.0782
22745W        W41599   5.729  16.619  14.307 -0.2005 -0.2050  0.1147
22746W        W41600   8.431  10.880  14.009 -0.1512 -0.1298 -0.0716
22747W        W41601  14.897  15.981  14.449  0.0150 -0.0933 -0.0507
22748W        W41602  15.925   3.342   0.857 -0.0370  0.3348  0.1876
22749W        W41603   7.507   9.437   3.507  0.2655 -0.2430  0.1119
22750W        W41604   6.849   4.049   2.721 -0.0405  0.0647  0.1344
22751W        W41605   4.794  13.621  14.264  0.1678  0.3547 -0.3479
22752W        W41606   3.767   5.758   3.612  0.1403 -0.1030 -0.4759
22753W        W41607  17.019  10.452   1.160  0.4472  0.2414 -0.1597
22754W        W41608  17.218   9.124  16.034  0.0400  0.1144 -0.0535
22755W        W41609   6.927   8.924  12.296 -0.1014 -0.4199  0.2020
22756W        W41610   4.933  17.210  15.013  0.2484 -0.2769  0.1824
22757W        W41611   4.399   0.311   4.157  0.1768 -0.0441 -0.3743
22758W        W41612  15.381   6.059   1.182  0.1090 -0.0372 -0.0310
22759W        W41613  13.452  17.056   5.021 -0.0121  0.3521  0.4397
22760W        W41614  11.684   0.180  12.605  0.3189 -0.2383  0.0530
22761W        W41615  17.181  13.095   0.019  0.2207 -0.3419  0.7602
22762W        W41616  14.341   3.247  17.021  0.0245  0.0141 -0.0717
22763W        W41617   9.169   5.939   3.513 -0.0949 -0.0458 -0.2117
22764W        W41618  10.417  12.119   0.861  0.1569 -0.3475  0.0601
22765W        W41619   4.526  16.662   3.844  0.1328 -0.0391  0.1314
22766W        W41620  12.804  16.954  16.633  0.1794 -0.0511 -0.1010
22767W        W41621   8.943   4.506  15.604 -0.2445  0.2843  0.0404
22768W        W41622  13.371  14.273   2.661 -0.3816  0.3850  0.2409
22769W        W41623  13.780   1.929  13.017 -0.0923 -0.3214  0.2691
22770W        W41624   4.831  10.532   6.291  0.0053 -0.0890  0.0851
22771W        W41625  16.907   3.589   4.424  0.1155  0.0151 -0.3216
22772W        W41626   2.406   4.190  16.973  0.1224  0.2256 -0.2666
22773W        W41627  13.396   5.045  16.018  0.0346 -0.0711 -0.4299
22774W        W41628   2.276  10.654   4.164  0.0714  0.3927 -0.0785
22775W        W41629   5.882   2.530   0.919  0.1175 -0.1999  0.3685
22776W        W41630  11.566   0.783  13.406 -0.0585 -0.1041  0.0361
22777W        W41631  13.385   7.965   1.721 -0.0716 -0.0134 -0.0573
22778W        W41632  15.705  12.225   0.514  0.0516  0.0985  0.0137
22779W        W41633   7.941   7.353  15.053  0.1614 -0.0745 -0.1126
22780W        W41634   7.110   6.934   0.249 -0.0571  0.0619  0.0092
22781W        W41635   8.507   6.968  13.807  0.4183  0.1775  0.3529
22782W        W41636   5.056  15.305   3.525  0.0647  0.1262  0.4066
22783W        W41637   6.701   1.121  12.256  0.1857 -0.4226  0.1284
22784W        W41638   3.977   7.385   1.041  0.0825 -0.0105 -0.0331
22785W        W41639   9.218  17.105  16.371  0.2556 -0.2209  0.1625
22786W        W41640   8.496   8.296   3.518  0.4179 -0.3165  0.2716
22787W        W41641   0.706   2.097   4.097 -0.0017 -0.1616  0.2796
22788W        W41642  10.738  10.762  15.601  0.0725 -0.0570  0.2097
22789W        W41643   6.455  12.072  15.926  0.0874  0.0302  0.0135
22790W        W41644   6.729   8.938   1.881 -0.2945 -0.0331  0.2688
22791W        W41645   4.743   5.939   0.638 -0.1495 -0.2458 -0.0991
22792W        W41646  11.039   5.235   1.238 -0.1568  0.1774  0.1264
22793W        W41647  14.354   0.446  14.623  0.0292 -0.3705 -0.1252
22794W        W41648  12.596  17.074   4.085  0.0204  0.5258  0.1082
22795W        W41649  15.652   2.834   0.896  0.1419  0.2449 -0.2150
22796W        W41650   5.885   9.143   2.558  0.2502 -0.1290 -0.2501
22797W        W41651  14.680   4.410  15.999  0.3905 -0.0447  0.3621
22798W        W41652  11.306   8.377   4.144 -0.2986 -0.1201 -0.0102
22799W        W41653  15.175  16.974  14.122 -0.0860 -0.0681  0.0834
22800W        W41654  16.942  15.602   4.403  0.1728  0.0476 -0.2757
22801W        W41655  11.036   7.826   2.404 -0.1707 -0.1918 -0.0807
22802W        W41656   4.577  11.414   2.754  0.3274  0.0425  0.0129
22803W        W41657   0.896  17.177   3.673 -0.3122 -0.1139 -0.0393
22804W        W41658  13.412   7.917   1.236 -0.0370  0.0070 -0.3475
22805W        W41659   1.973   9.394   3.971 -0.1597  0.1587  0.1704
22806W        W41660  14.640   2.138   1.221  0.2799  0.1933 -0.0990
22807W        W41661   1.557   7.033   4.290 -0.0414 -0.1754 -0.0327
22808W        W41662   5.109   2.201  15.668 -0.3516  0.0619 -0.1673
22809W        W41663   8.367   2.369   4.267 -0.1348  0.1112  0.1756
22810W        W41664   1.341   5.028  15.894  0.0241  0.1782  0.0147
22811W        W41665  15.418   1.192   6.539 -0.3374  0.2247 -0.1621
22812W        W41666   8.357   4.218   4.080 -0.2708 -0.0155  0.3127
22813W        W41667   9.639   2.438  15.634  0.1153  0.0316  0.0492
22814W        W41668  16.283   8.713  14.401  0.0446 -0.2341  0.0988
22815W        W41669   7.707  11.755  14.727  0.0112 -0.1590 -0.1768
22816W        W41670   2.786  12.478   2.230 -0.2866 -0.0478 -0.0067
22817W        W41671   0.362  12.962  12.171  0.2087 -0.2400 -0.1564
22818W        W41672   0.017  10.935  13.605  0.1282  0.0716  0.0378
22819W        W41673   9.697   4.123  16.701 -0.1612 -0.1714  0.2885
22820W        W41674   2.296   0.067  16.614 -0.0723  0.1093 -0.0624
22821W        W41675   0.289  13.342  12.526 -0.2363 -0.0974 -0.1471
22822W        W41676  10.497  15.127   2.705  0.3176 -0.1273 -0.0518
22823W        W41677  11.872  13.149  14.817  0.0998 -0.1802  0.0928
22824W        W41678   7.751   1.364  17.479  0.2028  0.0096 -0.1109
22825W        W41679  12.341   5.077  15.015 -0.0074 -0.0075 -0.1269
22826W        W41680   3.982   4.806   2.707  0.1468 -0.0865 -0.1108
22827W        W41681   7.787  10.405   2.171 -0.3674 -0.3037  0.0501
22828W        W41682  15.449  10.861   0.088 -0.1879 -0.0218  0.0390
22829W        W41683  13.416  14.111  16.572  0.1896  0.0391  0.0452
22830W        W41684   9.678  14.582   0.968  0.1523 -0.2089  0.1325
22831W        W41685  11.763   8.935  16.332  0.2495 -0.0736 -0.0289
22832W        W41686  15.759  13.538  15.447 -0.1344 -0.0015  0.0439
22833W        W41687  13.863  16.170  14.251  0.4216 -0.1090 -0.4009
22834W        W41688  16.953   7.596  16.825  0.0182 -0.0288  0.1476
22835W        W41689   4.558   7.064  14.896  0.0225  0.2162  0.0303
22836W        W41690   0.891  14.652  17.162 -0.1081  0.2108  0.0225
22837W        W41691   4.219   6.870   1.875  0.1697 -0.0961  0.1406
22838W        W41692   8.773   1.810  17.218 -0.1911 -0.2054 -0.0767
22839W        W41693   5.122   5.541  15.023  0.2226  0.1124 -0.1283
22840W        W41694  16.396   7.837   4.842  0.0874  0.2108 -0.2733
22841W        W41695  14.050   2.024  16.692 -0.1428  0.1681 -0.2448
22842W        W41696   1.913  14.205   3.928  0.0402  0.1791  0.3587
22843W        W41697   5.973  15.568   0.101 -0.2426 -0.1114 -0.0929
22844W        W41698  10.843  16.483  16.016  0.1424  0.0475 -0.0735
22845W        W41699   1.780  13.713   5.682 -0.0896  0.3692  0.0511
22846W        W41700  11.413  14.731  14.993  0.0980 -0.3715  0.2958
22847W        W41701  15.397  11.470  16.743 -0.0038 -0.1143  0.3542
22848W        W41702   1.496   9.144   0.581 -0.1773  0.1010  0.2245
22849W        W41703  12.015  13.969   3.010  0.0509  0.1233  0.2273
22850W        W41704  17.268   0.091   2.192  0.0962 -0.0933  0.4669
22851W        W41705   2.542  12.521   2.661 -0.1155 -0.0071  0.0955
22852W        W41706  12.081   1.210   4.689 -0.2120  0.0872 -0.3006
22853W        W41707   2.958   6.577   1.628 -0.0311  0.1246 -0.0076
22854W        W41708  10.597  11.178   3.240  0.0958  0.2207  0.3579
22855W        W41709  16.246   6.658   3.152  0.0378 -0.1127 -0.1780
22856W        W41710  14.352   8.524  16.077  0.0955 -0.1902 -0.1313
22857W        W41711   6.075   8.227   0.294  0.1223 -0.1377  0.3775
22858W        W41712  14.399   2.003   3.406  0.0079  0.2231 -0.0769
22859W        W41713  12.622  10.141   3.054 -0.2740  0.1842  0.1434
22860W        W41714   5.678  15.435   4.868 -0.2574  0.2045 -0.0229
22861W        W41715   2.345  10.260  15.960 -0.2173  0.0081  0.2791
22862W        W41716  10.640   6.649  14.682  0.2335 -0.0115 -0.0788
22863W        W41717  14.707  14.657   5.073  0.0365 -0.2208 -0.0426
22864W        W41718   7.877   8.819  14.116 -0.0082 -0.1511  0.1662
22865W        W41719   7.519  16.038   3.709 -0.0285 -0.0531  0.0679
22866W        W41720  12.668  13.447  12.858  0.0057  0.0091 -0.2811
22867W        W41721   8.796  13.208   2.384  0.2607 -0.0517  0.1546
22868W        W41722   7.589   6.092   0.434 -0.0963  0.2966  0.1522
22869W        W41723   1.808   4.557   4.414  0.0786 -0.4403  0.0383
22870W        W41724  12.321  17.310   3.006 -0.1135  0.0158 -0.3877
22871W        W41725  10.809  10.759   4.562  0.0956 -0.1021  0.6501
22872W        W41726   8.354  14.073   1.065  0.0590  0.1480 -0.0885
22873W        W41727   5.856  16.717   3.128  0.2071  0.0975  0.0884
22874W        W41728   9.278  17.172   0.929  0.1822 -0.0422  0.2628
22875W        W41729  15.298   4.080  16.457  0.0191  0.1552  0.0477
22876W        W41730   1.507  15.717   2.296 -0.3536  0.0501  0.0601
22877W        W41731  10.600  12.076  17.348 -0.1955 -0.0521  0.0280
22878W        W41732   6.100  12.020   0.740 -0.1987 -0.1274 -0.0323
22879W        W41733   0.285   3.058  12.999 -0.1130 -0.0952  0.0465
22880W        W41734   6.801   2.642   0.556 -0.3414 -0.0920 -0.0565
22881W        W41735   7.564  13.202   0.239  0.1668 -0.1868  0.0316
22882W        W41736  17.190  17.070  12.920  0.0575  0.2649  0.0780
22883W        W41737   6.838  16.147  13.653  0.0544 -0.0005 -0.2433
22884W        W41738  10.835   1.918  15.784  0.2908 -0.2339  0.2184
22885W        W41739   2.552  16.792  12.704  0.2091  0.0006  0.1383
22886W        W41740   0.424  10.165   1.758 -0.1434 -0.3342  0.1978
22887W        W41741  11.678  17.112   6.070 -0.2696  0.0869 -0.0803
22888W        W41742   9.845  12.665  14.702  0.0834  0.1442 -0.3800
22889W        W41743   8.568   2.475  17.304  0.1335  0.0629 -0.1819
22890W        W41744   5.123  14.220  16.696 -0.2112  0.1090 -0.1067
22891W        W41745   8.396   5.239  17.165 -0.1547  0.2277 -0.0701
22892W        W41746   3.445   9.364  16.224  0.0072 -0.0014 -0.2566
22893W        W41747   4.959  15.972   5.203  0.3073 -0.3977 -0.0419
22894W        W41748  14.227  15.715   1.071 -0.3079  0.0130  0.0799
22895W        W41749   1.283   3.491   3.555 -0.2529  0.2237 -0.0991
22896W        W41750  10.510  13.200   1.678 -0.1465 -0.0043 -0.0115
22897W        W41751   7.403   0.377  16.374 -0.0036 -0.0399  0.0705
22898W        W41752   5.512  12.140  15.197 -0.2956 -0.0842 -0.0475
22899W        W41753   0.881   0.127  13.143 -0.1409  0.1171  0.0636
22900W        W41754  12.327  16.076  15.504  0.1969  0.1360 -0.1539
22901W        W41755   2.595  17.081  12.199 -0.3779 -0.2960 -0.0959
22902W        W41756   8.560  10.152   3.318 -0.1802  0.1307  0.1330
22903W        W41757  16.254  13.128  13.723 -0.0551 -0.4767 -0.1365
22904W        W41758  14.364   0.203  14.158  0.1822 -0.2229 -0.1595
22905W        W41759   9.560  10.530   2.409  0.0010 -0.2116 -0.1110
22906W        W41760   1.334   0.860  16.852  0.2829 -0.1315  0.1443
22907W        W41761   3.613   6.949  14.690 -0.1553 -0.1349 -0.2627
22908W        W41762   2.296  13.859   3.698  0.0365 -0.2853 -0.0544
22909W        W41763   8.059  11.655  15.925 -0.0942 -0.1709  0.2099
22910W        W41764  12.416  10.724  12.438 -0.2313 -0.0681 -0.0688
22911W        W41765   0.005  10.690   1.418  0.4723  0.2957 -0.2761
22912W        W41766   7.232  10.150   3.240 -0.0595  0.0630  0.0038
22913W        W41767   7.808  16.190  15.960  0.2503  0.1475  0.2141
22914W        W41768  17.306   0.490  14.948  0.2006  0.2489  0.1788
22915W        W41769  15.133   8.482  16.050  0.3519 -0.0570 -0.1716
22916W        W41770  13.366   1.868   3.336  0.1322 -0.2801 -0.0173
22917W        W41771   4.897  12.357   0.619 -0.0159 -0.0117  0.3693
22918W        W41772   0.617  15.384  13.740  0.2086  0.1879 -0.1230
22919W        W41773  16.891  13.192   1.462  0.0678  0.0217  0.1375
22920W        W41774   1.544   5.791  16.696  0.1659  0.3453 -0.2097
22921W        W41775   0.919  13.493   1.399  0.3415  0.2235 -0.4576
22922W        W41776  10.549   0.555   1.681  0.0731 -0.0065  0.0772
22923W        W41777   7.279  17.116   2.374  0.1133 -0.0808 -0.1418
22924W        W41778   7.686   7.320   0.867  0.4012 -0.0788  0.2269
22925W        W41779  15.839   6.881   2.927  0.1907  0.2300 -0.0519
22926W        W41780   4.361  16.823   2.387  0.2060  0.0010  0.0390
22927W        W41781  13.035  14.194   3.197 -0.3822 -0.3156  0.2400
22928W        W41782   0.077  13.776  15.316  0.0005  0.2237 -0.3048
22929W        W41783   8.894   7.313   3.470  0.2333  0.1054  0.2932
22930W        W41784   1.045   5.764   0.972  0.1452  0.0145 -0.1106
22931W        W41785   8.239   8.101   5.035  0.0854 -0.1286  0.0436
22932W        W41786  17.065   9.407   4.720  0.0140  0.0527  0.3478
22933W        W41787  14.416  16.066  12.562 -0.1794 -0.0464  0.0573
22934W        W41788   3.302  10.281  16.512  0.1556 -0.0614  0.1967
22935W        W41789  14.376  13.676   1.028  0.0704  0.0463 -0.1151
22936W        W41790  16.014  14.425  15.820 -0.0575 -0.2068 -0.3512
22937W        W41791   8.139  15.322  15.955  0.0339  0.0374  0.1666
22938W        W41792  13.744   6.743  14.444  0.1076  0.0493  0.1486
22939W        W41793   5.660   7.003   4.242  0.1118  0.0935 -0.2219
22940W        W41794  15.507   6.091  14.369 -0.1033 -0.1281 -0.0400
22941W        W41795  15.328   3.682  13.950  0.0992 -0.0077 -0.1409
22942W        W41796   8.954   9.426  17.132  0.0101 -0.1475  0.0162
22943W        W41797  14.674  11.134   3.720  0.4469  0.4006 -0.0622
22944W        W41798   4.345  15.235  17.296  0.2966 -0.2457  0.5467
22945W        W41799   9.021  11.703  16.359 -0.0458 -0.1270 -0.0578
22946W        W41800  16.075  14.734  16.181  0.2810 -0.0102  0.0003
22947W        W41801   8.307   7.727  17.264  0.2985 -0.2514 -0.1463
22948W        W41802   1.562  11.706   0.501  0.0247 -0.0681 -0.2024
22949W        W41803  11.326   6.466   3.400  0.0153 -0.0784  0.1061
22950W        W41804   3.996   8.400   2.060  0.3711  0.0627 -0.1887
22951W        W41805   2.100  12.584  15.304  0.0413 -0.0637  0.0764
22952W        W41806   8.333   6.570   0.676 -0.1492 -0.0552 -0.1103
22953W        W41807  13.501  13.082   1.802 -0.1249  0.0495  0.0084
22954W        W41808   6.224   6.549   1.479  0.2001  0.0724 -0.1162
22955W        W41809   5.349   4.229  15.564 -0.2575  0.2216  0.2115
22956W        W41810  15.428   1.166  17.340 -0.0892  0.0174 -0.1601
22957W        W41811   3.176  11.501   5.383  0.2376 -0.3447  0.1339
22958W        W41812  14.097   9.751  13.712  0.2272 -0.0312  0.1379
22959W        W41813   0.024   3.992  15.404  0.0920  0.1251  0.1197
22960W        W41814  10.959   4.712   1.257 -0.0405 -0.1657  0.0115
22961W        W41815   8.752   2.998   4.629 -0.0275 -0.0069 -0.0619
22962W        W41816   1.035   1.056   1.189 -0.2032 -0.0479 -0.0245
22963W        W41817  13.408   8.763  15.989  0.0420 -0.2307 -0.1920
22964W        W41818  10.279   5.067   1.806  0.3758  0.0339  0.0595
22965W        W41819  15.625  10.307  16.426 -0.0191  0.1586  0.0356
22966W        W41820   5.072   7.890  13.023  0.0641  0.0060 -0.0126
22967W        W41821   4.573   6.956  13.221  0.0829 -0.0851 -0.0167
22968W        W41822  14.126   6.456  12.598 -0.0368  0.0844 -0.0731
22969W        W41823  16.597   4.652   4.569  0.2741 -0.1143  0.1493
22970W        W41824  13.209  14.806  12.548  0.1349 -0.2930  0.1555
22971W        W41825  15.269  12.946   5.554  0.3314  0.0603 -0.1477
22972W        W41826   7.690   6.119   4.704 -0.0134  0.0668 -0.1588
22973W        W41827   9.809   2.315  16.601  0.1134 -0.0372  0.2219
22974W        W41828  14.270   7.178   1.683 -0.2027  0.1862  0.1281
22975W        W41829  11.034   2.221  15.357  0.0227 -0.0628 -0.2625
22976W        W41830   6.312  13.451   3.308  0.1064  0.3556  0.0735
22977W        W41831   8.019   3.510  15.393 -0.1145  0.0443  0.3812
22978W        W41832   0.813   0.259   2.740 -0.1405 -0.0382  0.1071
22979W        W41833   1.257  10.738  15.518 -0.1788 -0.3040 -0.0200
22980W        W41834  14.765   0.356  14.901 -0.0558 -0.0799  0.0171
22981W        W41835   1.311   9.227  16.520  0.1738 -0.1177  0.0175
22982W        W41836   9.613  11.768  15.264 -0.1821  0.1453  0.2480
22983W        W41837  11.631   5.553  13.923  0.0358  0.3083  0.0154
22984W        W41838   1.031   4.794   0.034  0.0774  0.2757  0.2254
22985W        W41839   4.019   6.740  12.552  0.2398  0.2185 -0.1431
22986W        W41840  12.496   8.611  15.553  0.2766 -0.3745 -0.0689
22987W        W41841  17.025   4.707  14.326  0.2215  0.0090 -0.3019
22988W        W41842   2.684  14.788   0.707  0.2074  0.0595  0.0270
22989W        W41843   8.787   0.249   2.829 -0.5269  0.0794  0.0231
22990W        W41844   2.488  14.997   4.918  0.1183 -0.1543  0.1599
22991W        W41845   0.922  17.242  15.978 -0.0533  0.2946  0.0178
22992W        W41846  13.625   1.597   0.427 -0.1237 -0.1478 -0.1636
22993W        W41847   1.208  10.674  14.065 -0.1130 -0.2082 -0.0367
22994W        W41848   0.191  13.190   0.686  0.0351 -0.0622  0.0149
22995W        W41849   9.895  11.927  13.858 -0.4749  0.0928  0.2189
22996W        W41850   4.466  14.985  14.428 -0.2728 -0.0703 -0.2343
22997W        W41851  14.830   6.721   3.817 -0.3708  0.4417 -0.0368
22998W        W41852   1.047  16.892  16.368 -0.0893  0.0485  0.0487
22999W        W41853  14.609  13.422   0.260 -0.0496 -0.0132 -0.1216
23000W        W41854  12.287  16.913  12.781 -0.1879 -0.3109  0.1323
23001W        W41855  12.979  12.727   4.374  0.0485  0.0000  0.0551
23002W        W41856   5.865  13.159   3.333 -0.0291  0.1479  0.0282
23003W        W41857  14.117  12.643   5.132  0.0009 -0.1410 -0.1921
23004W        W41858  12.805   3.733   4.477 -0.1627 -0.3886 -0.1210
23005W        W41859   2.901  15.848   5.126 -0.2461 -0.1800  0.0672
23006W        W41860  17.155  15.405   0.083  0.0382 -0.0994  0.0850
23007W        W41861   7.624   3.266   1.626 -0.4252 -0.0995  0.2254
23008W        W41862   4.400   5.457  16.151 -0.3663  0.0592 -0.0920
23009W        W41863   5.516   8.004   2.909 -0.2077 -0.0437  0.1073
23010W        W41864  14.139   1.914   2.840  0.0651  0.2868 -0.0401
23011W        W41865   1.505   0.651   4.490  0.2591  0.0142  0.1148
23012W        W41866   0.069   6.060   1.861  0.0290 -0.0989 -0.0620
23013W        W41867  11.041  14.223  12.159  0.0118 -0.1313  0.0224
23014W        W41868  15.098  13.617   0.974  0.0805  0.2407 -0.0383
23015W        W41869   1.429   3.190   2.096 -0.2445  0.0118 -0.1676
23016W        W41870   7.487  11.515   0.744 -0.1133  0.0991  0.0332
23017W        W41871  11.305  14.337  12.591  0.2352  0.1732 -0.1077
23018W        W41872  13.211  11.207   4.198 -0.0558  0.1655  0.1308
23019W        W41873  16.652  15.817  12.764  0.0083  0.2822 -0.0719
23020W        W41874  17.143   2.793  16.917 -0.1945  0.1267  0.1245
23021W        W41875  14.029  16.032   2.900 -0.2780 -0.0580  0.1605
23022W        W41876   5.556  11.217   0.892  0.2023  0.0259 -0.6048
23023W        W41877   3.353  14.295   1.444 -0.1359  0.0953 -0.1271
23024W        W41878   8.486  10.428  13.122 -0.1489  0.1791 -0.0461
23025W        W41879   1.007   7.705   5.104 -0.0395  0.3062 -0.0429
23026W        W41880   7.547   5.085  15.502 -0.1435  0.1191  0.1226
23027W        W41881  11.395  10.432   3.448  0.0765  0.1553 -0.1627
23028W        W41882   9.181  16.730   4.571  0.2512  0.0744 -0.0782
23029W        W41883   9.837   1.962  15.928 -0.0351 -0.1502 -0.2399
23030W        W41884   1.133   4.369   5.345 -0.1175  0.3273 -0.2052
23031W        W41885  15.022   1.567   3.651 -0.0915 -0.4279  0.0845
23032W        W41886  10.885   5.924   4.661  0.0171  0.1510 -0.3440
23033W        W41887   0.348   4.557   0.460 -0.1560 -0.0261 -0.2404
23034W        W41888   5.378   5.446   4.305  0.2008  0.0367  0.1713
23035W        W41889  11.542   0.669  15.523  0.4728  0.1569  0.3948
23036W        W41890   1.126   8.459  14.166 -0.0047 -0.1306  0.0788
23037W        W41891  10.685   3.404  13.696  0.1944 -0.0982 -0.0984
23038W        W41892  12.917  15.123   1.163 -0.2835 -0.0569  0.1033
23039W        W41893  14.982   0.305  17.398  0.3070 -0.2489  0.0263
23040W        W41894   4.731   6.973  12.353  0.0742 -0.0421 -0.0253
23041W        W41895   2.961   1.476  15.957  0.3219  0.2972 -0.1433
23042W        W41896  10.814   3.174   1.779  0.2221 -0.0032 -0.1576
23043W        W41897   8.055  16.644   4.947 -0.1748  0.1115 -0.0716
23044W        W41898   8.964  10.850  12.553  0.1559  0.0296 -0.3424
23045W        W41899   8.667   1.319   1.162  0.3323  0.1428  0.1737
23046W        W41900   0.792  15.046   5.218 -0.0693  0.2783  0.1481
23047W        W41901   8.822   7.593   1.582 -0.1470  0.2913  0.0078
23048W        W41902   0.950  17.373   2.302  0.0278  0.0108  0.1886
23049W        W41903   8.439  17.124  12.911 -0.0263  0.0288  0.1959
23050W        W41904   7.850   1.936  14.666  0.1570 -0.1940  0.0235
23051W        W41905   1.319  10.078  13.359  0.0237 -0.1445 -0.0681
23052W        W41906  11.030  16.669   2.187 -0.0806 -0.0922  0.0896
23053W        W41907  16.133  10.095  15.036  0.0114 -0.2814  0.1468
23054W        W41908   1.696   1.939   3.056 -0.2386  0.1313  0.1804
23055W        W41909  13.593  12.836   5.021 -0.1660  0.0929 -0.1134
23056W        W41910   0.245   9.245   0.955  0.0923 -0.0412 -0.2922
23057W        W41911   2.189  12.869   5.417  0.0746 -0.0464 -0.0302
23058W        W41912   5.715  17.219   4.272  0.0207  0.1979  0.2159
23059W        W41913   9.363  16.912  15.489 -0.0314 -0.4691  0.2657
23060W        W41914  13.348   6.161  11.946  0.1582  0.2004  0.1126
23061W        W41915   3.660   3.478   4.599 -0.3578 -0.0984 -0.0252
23062W        W41916  10.542   9.289   2.297  0.1391 -0.1038  0.2478
23063W        W41917   3.236   5.349  17.135 -0.1844  0.2430 -0.0409
23064W        W41918   0.505  13.885   4.508 -0.2682  0.1455  0.1942
23065W        W41919  16.077  17.191  14.641  0.1267  0.0870 -0.1220
23066W        W41920   9.250   1.731  16.052 -0.0092  0.0186 -0.0878
23067W        W41921  10.893   0.809   2.848  0.1408  0.2218 -0.2225
23068W        W41922   2.194  14.044   4.753  0.1433  0.2000  0.0309
23069W        W41923  16.447  16.298  14.941  0.2157  0.1319 -0.1912
23070W        W41924   5.636   0.981   4.405 -0.1889  0.1044  0.0069
23071W        W41925   6.761   7.961   0.380 -0.2806  0.2229  0.1065
23072W        W41926  13.598  12.028   4.599 -0.1554 -0.1771 -0.1390
23073W        W41927   9.144  14.841   3.195  0.1422  0.1919 -0.0839
23074W        W41928   0.589   1.034  13.948 -0.2560 -0.1108 -0.1610
23075W        W41929   3.285  11.524  12.406  0.1267 -0.1084 -0.0407
23076W        W41930   2.277   3.396  14.887  0.0980 -0.2061 -0.0203
23077W        W41931   5.659  10.768   0.302 -0.1174 -0.0316  0.1728
23078W        W41932   6.554   2.366   3.585  0.1219  0.0741  0.2559
23079W        W41933   3.938   8.059   5.270  0.0004  0.0688  0.0223
23080W        W41934  15.716  17.371   4.874 -0.1738  0.0237 -0.0515
23081W        W41935  14.445  11.960  13.448 -0.0345  0.1262 -0.3829
23082W        W41936  13.235   1.521  17.392  0.0313  0.2086 -0.3435
23083W        W41937   3.843   0.279   3.167 -0.4964 -0.0052 -0.1992
23084W        W41938  11.954  12.472   1.185 -0.1610  0.1884 -0.0693
23085W        W41939   0.748  12.376   2.307 -0.1074 -0.0106  0.1201
23086W        W41940   2.549   7.658   6.219  0.1072  0.4178 -0.0301
23087W        W41941  10.281  11.995   3.078 -0.1625 -0.1433  0.0623
23088W        W41942   3.318  10.699   2.840 -0.0950 -0.2088  0.0863
23089W        W41943   9.547  15.108  15.070  0.0775  0.3940  0.0045
23090W        W41944   3.945  14.977   3.271 -0.3143  0.0231 -0.0190
23091W        W41945   9.695   8.084   1.205  0.2164 -0.0847 -0.0398
23092W        W41946  11.481  14.302   4.696  0.1257 -0.2691  0.4575
23093W        W41947   9.937  12.319   0.830 -0.3653  0.0626  0.3277
23094W        W41948  16.424   9.948   4.143  0.0357 -0.0259 -0.0058
23095W        W41949  11.691  11.912  17.364  0.3565  0.1352 -0.0805
23096W        W41950  16.209  15.110   0.662 -0.1810  0.1126 -0.0937
23097W        W41951   6.536  15.581   4.623 -0.3947  0.0481 -0.1229
23098W        W41952   8.676  14.424  15.004  0.0312 -0.1625  0.1592
23099W        W41953  17.034   4.969  12.363  0.2139  0.1087 -0.0779
23100W        W41954  15.415  11.205  13.043  0.1436  0.1797 -0.2396
23101W        W41955  11.397   7.148   1.634  0.0935 -0.1273  0.1747
23102W        W41956  13.026   7.558   3.756 -0.3032 -0.1099  0.1389
23103W        W41957   1.644   8.999  14.457 -0.0633 -0.3358  0.1605
23104W        W41958   8.293   2.228  15.740  0.2712  0.0558  0.2807
23105W        W41959   2.996   1.652  16.540  0.3356  0.0701  0.1703
23106W        W41960   4.255   4.716  14.864 -0.0507  0.1219  0.2580
23107W        W41961   4.241   1.184  14.417 -0.0415  0.0686  0.2013
23108W        W41962  12.009  14.337   3.434  0.3794  0.3078 -0.2647
23109W        W41963   2.304  14.258  15.711 -0.3073 -0.2027  0.0570
23110W        W41964  16.369   7.984  15.648 -0.0547  0.0748 -0.1247
23111W        W41965   9.912  16.326   3.434  0.1269 -0.1323 -0.2830
23112W        W41966   9.648   5.600   4.635 -0.1497 -0.0045 -0.3264
23113W        W41967   4.599   6.418   4.239  0.0184  0.1699  0.0734
23114W        W41968   3.366   0.213   3.264  0.1209  0.1032  0.3485
23115W        W41969  14.802   3.762   3.668 -0.2478 -0.1754 -0.0584
23116W        W41970   8.126  10.000  17.227  0.2092  0.0087  0.3179
23117W        W41971  12.168   5.008  17.067 -0.0043  0.0329 -0.0189
23118W        W41972  10.741   6.695  15.840 -0.0585 -0.2117  0.0294
23119W        W41973  14.159  11.608   4.117 -0.0790 -0.1170  0.0182
23120W        W41974   0.305  13.101   3.784 -0.2613  0.0324  0.0995
23121W        W41975   4.321   6.786  12.071  0.4016 -0.2338 -0.0115
23122W        W41976  16.432   5.321   0.361  0.0146 -0.0994 -0.1305
23123W        W41977   8.881   7.488   1.095 -0.0187 -0.2421 -0.0875
23124W        W41978  15.026   1.910   5.520  0.0216  0.1486  0.2020
23125W        W41979   3.311   4.827  15.915  0.1424 -0.0980  0.0662
23126W        W41980  11.812   2.160  11.198 -0.1122 -0.3728 -0.0515
23127W        W41981  12.015  12.993  16.623  0.3054  0.4520  0.1236
23128W        W41982  11.118   6.777  15.428  0.0900 -0.0573 -0.1127
23129W        W41983   7.663   1.696   5.210  0.3210  0.2324 -0.0762
23130W        W41984  11.337  16.401  12.526  0.2784  0.0332 -0.0126
23131W        W41985  10.020   7.552  13.149 -0.1421 -0.3563 -0.1164
23132W        W41986  14.045   9.966   4.653  0.0023  0.1938  0.2458
23133W        W41987   8.855   9.134   3.652 -0.1269 -0.1180 -0.0292
23134W        W41988   0.684   3.381   1.415 -0.4198  0.1174 -0.2022
23135W        W41989  17.395   6.565  13.762  0.0711  0.1968  0.0120
23136W        W41990  16.559  15.246  12.712  0.2102 -0.0895  0.0357
23137W        W41991   0.977   0.285   1.333  0.4116  0.0591 -0.0446
23138W        W41992  12.271   3.387   5.568 -0.0096  0.0211  0.0145
23139W        W41993   1.227  12.297   3.059  0.0638 -0.0393  0.0828
23140W        W41994   3.216  10.227   5.107  0.1303  0.0961 -0.1381
23141W        W41995   6.058   4.441  14.103  0.2393 -0.2746  0.1108
23142W        W41996  13.232  10.135   1.485 -0.0031  0.3079  0.1054
23143W        W41997   0.398   5.285  17.273 -0.0499  0.1111 -0.2408
23144W        W41998  13.187   8.973  14.785  0.1244 -0.0043 -0.0512
23145W        W41999   6.043   2.039   0.867  0.2611  0.1248  0.0577
23146W        W42000   5.113  13.674   0.925  0.1144 -0.3287  0.1570
23147W        W42001  15.746   5.889   0.022  0.1760 -0.0603 -0.0892
23148W        W42002   2.457  10.950   1.636  0.0054 -0.1064 -0.1328
23149W        W42003   7.565   5.038   3.546 -0.3484  0.1100 -0.2120
23150W        W42004  12.125  13.809   1.938 -0.1647 -0.2340 -0.3889
23151W        W42005   6.991   7.211  12.788 -0.0552 -0.0537  0.2003
23152W        W42006   1.350  16.160   4.468 -0.3229  0.2315  0.2758
23153W        W42007   0.971  12.771   3.219  0.0602  0.1922  0.1818
23154W        W42008  11.930  15.193  15.941  0.0808 -0.0767  0.0762
23155W        W42009   2.984   6.667  17.311 -0.0733  0.2668  0.2966
23156W        W42010   5.049   0.435  13.229  0.1559  0.1908  0.1328
23157W        W42011  11.585   3.231  15.005  0.1216  0.0564 -0.1101
23158W        W42012  11.342   5.579   1.468  0.0906 -0.1827 -0.3119
23159W        W42013   3.832   0.230  15.941 -0.1279  0.2242 -0.1210
23160W        W42014   7.244  11.286  17.125 -0.2571  0.0163 -0.1412
23161W        W42015   1.607  11.614  15.306 -0.1076  0.1822  0.1216
23162W        W42016  16.116   8.120  12.383  0.3744 -0.0567 -0.0705
23163W        W42017  12.970   4.839   1.884  0.0294 -0.0770  0.2866
23164W        W42018   0.508   3.086  14.809 -0.3080 -0.1055  0.2650
23165W        W42019  12.508   7.606   3.080  0.0187 -0.2054  0.0817
23166W        W42020   5.528  14.952  17.486  0.0252  0.0169 -0.2179
23167W        W42021   2.242   2.985  12.823  0.1277  0.2171  0.0001
23168W        W42022   0.206   7.075  14.834 -0.0319 -0.0406  0.0814
23169W        W42023  15.416  12.918  13.358  0.0139 -0.0385  0.2122
23170W        W42024  12.612   4.672   4.138  0.2834 -0.1104  0.1587
23171W        W42025   4.726  16.279  12.906 -0.0315  0.2227  0.3516
23172W        W42026   1.159  15.287   2.595  0.0174  0.1184  0.0122
23173W        W42027   0.708   7.294   4.176  0.0551 -0.0117 -0.2376
23174W        W42028   4.315  11.567   3.334  0.2371  0.0224  0.2806
23175W        W42029  10.668   2.145   6.374 -0.1507 -0.0764  0.3327
23176W        W42030   3.617   4.904   4.305 -0.0331  0.4450  0.2672
23177W        W42031   9.022   4.278   5.176  0.0345  0.0608 -0.0541
23178W        W42032   4.890   9.433   1.156  0.3284 -0.1543  0.3860
23179W        W42033   5.267   4.674  12.224  0.0435 -0.3915  0.4332
23180W        W42034  16.408  13.491  12.589  0.3427  0.0004  0.1910
23181W        W42035   8.558  13.043   3.603  0.0802  0.5696  0.0908
23182W        W42036   5.112   6.768  16.962  0.1912  0.3010  0.1500
23183W        W42037   2.064   3.429   0.274  0.0846 -0.2812  0.2465
23184W        W42038   3.914  10.947   0.854 -0.1478 -0.1254 -0.1450
23185W        W42039  14.745   9.824   5.370 -0.4132  0.1788  0.0062
23186W        W42040   0.481   9.742  13.981  0.0136  0.0550 -0.3178
23187W        W42041  17.021  16.214   4.362 -0.1073  0.0647 -0.0284
23188W        W42042   4.749   1.835   4.674 -0.1383  0.0136 -0.2908
23189W        W42043   4.744  13.978  12.873  0.2484  0.4023  0.2765
23190W        W42044   5.642  12.518   2.920  0.1212  0.0488 -0.1158
23191W        W42045   5.430   2.603  11.978 -0.1153 -0.0600  0.2477
23192W        W42046   1.639   2.188  14.455 -0.1967 -0.2406 -0.1674
23193W        W42047   9.851   7.816  12.760  0.0716  0.0650  0.2621
23194W        W42048   6.009  12.369  16.652 -0.0908  0.0767  0.2335
23195W        W42049   7.222   9.172   0.234  0.3207 -0.1241  0.2443
23196W        W42050  16.331  11.449   2.098  0.1030  0.0816  0.1114
23197W        W42051  10.374  11.661  15.567  0.1647 -0.0689  0.0089
23198W        W42052  16.702   4.633   5.079 -0.2040 -0.0424  0.2996
23199W        W42053  12.310   8.517  11.944 -0.1139 -0.0414  0.2962
23200W        W42054  10.644   1.261  16.354  0.0781 -0.1580 -0.0929
23201W        W42055  12.846   1.043  15.690 -0.1749  0.0933 -0.1399
23202W        W42056   9.744   6.418   1.688 -0.0211  0.0209  0.2119
23203W        W42057   5.248  15.851   2.706  0.5598 -0.1620  0.2067
23204W        W42058   5.953   1.200  15.332  0.0390  0.0586 -0.2172
23205W        W42059   9.099   0.479   3.994 -0.0862  0.2136 -0.0462
23206W        W42060   0.539   1.052   1.906 -0.3216  0.0460  0.0740
23207W        W42061  13.809   2.421   0.061 -0.1065  0.1494 -0.1710
23208W        W42062  16.919   3.327   4.800  0.1264  0.0800 -0.2803
23209W        W42063  16.002   3.492  12.257 -0.1488  0.3297 -0.0153
23210W        W42064  12.183  11.775   5.019 -0.0332 -0.0163 -0.2226
23211W        W42065   2.073   7.044  15.022 -0.0537 -0.0649 -0.2570
23212W        W42066   3.371   4.374  15.403 -0.1153 -0.1112 -0.0288
23213W        W42067   7.793   8.182   4.132 -0.0789  0.0472  0.2866
23214W        W42068   4.178  12.476   3.830 -0.0554  0.2812 -0.3092
23215W        W42069  13.229   1.028   4.900 -0.0875 -0.1517 -0.0677
23216W        W42070  16.595  13.805   4.065  0.1822  0.1937  0.1194
23217W        W42071  12.628   2.616  17.416  0.2398 -0.0477 -0.3021
23218W        W42072   8.878   1.770  13.223  0.3039 -0.0680 -0.0902
23219W        W42073  13.792  11.872  12.897 -0.1040  0.2761  0.0531
23220W        W42074  10.425   4.540   0.610  0.0363 -0.0088 -0.2200
23221W        W42075  16.731   7.335   5.041 -0.1414 -0.1450 -0.4454
23222W        W42076  12.891   6.060  12.775 -0.3009  0.0110 -0.2581
23223W        W42077  14.496   1.913   0.489 -0.0296  0.0034 -0.0975
23224W        W42078  10.526  17.220   1.117  0.0821  0.0200 -0.1677
23225W        W42079   9.592   7.467   0.362  0.2743  0.1463  0.2409
23226W        W42080  12.045  11.226  17.397  0.3912 -0.1360  0.2383
23227W        W42081   4.560   2.202   1.185 -0.0287 -0.0565  0.1069
23228W        W42082   4.486   2.970  14.396 -0.2944  0.2798 -0.1275
23229W        W42083   2.436  12.110   2.243  0.3213  0.3309 -0.0078
23230W        W42084  14.113   8.541  14.188  0.3536 -0.0354 -0.0182
23231W        W42085   3.170  11.245   2.031 -0.0730  0.0213 -0.0259
23232W        W42086  11.227  13.197   3.967  0.0598 -0.0376  0.1935
23233W        W42087  14.960  12.562   5.473 -0.2974  0.2927  0.0428
23234W        W42088   6.808  12.268  12.715 -0.4256  0.2179 -0.0163
23235W        W42089  16.522   0.607   2.077 -0.0370  0.1171  0.1978
23236W        W42090  13.043  12.260  17.429  0.0617  0.0505  0.0937
23237W        W42091   5.396   4.275   4.534 -0.1048 -0.1263  0.4588
23238W        W42092  10.584  14.594  15.525 -0.0249 -0.1345 -0.1755
23239W        W42093   2.547  13.393  15.015  0.1865 -0.0116 -0.1661
23240W        W42094  13.497   6.037   4.989 -0.3431 -0.2670  0.4383
23241W        W42095   8.785   1.247  12.325 -0.1811 -0.1247  0.1257
23242W        W42096   1.420   6.844   3.277 -0.1393  0.1219 -0.2748
23243W        W42097   4.111  11.469   2.873  0.1478 -0.0001  0.2293
23244W        W42098   3.982  10.037  12.437 -0.0322 -0.1095 -0.3420
23245W        W42099  14.714   8.709   1.970 -0.0393  0.0697 -0.1906
23246W        W42100   0.811  14.933  14.063  0.0639  0.1067 -0.1108
23247W        W42101   4.551  11.886   2.045  0.0248  0.0518 -0.1178
23248W        W42102   8.637   9.631   6.170 -0.3432 -0.0310  0.1057
23249W        W42103   7.934   2.200   3.737 -0.0260 -0.0423  0.1676
23250W        W42104  15.840   9.822   5.061  0.0600 -0.0668 -0.1661
23251W        W42105  11.365   7.676   4.972  0.0028  0.0325 -0.2163
23252W        W42106  15.095   1.273   2.448  0.0131 -0.1007 -0.0658
23253W        W42107   9.980   3.480   3.803 -0.1284 -0.0693 -0.0341
23254W        W42108  14.642   9.601   3.061 -0.0140  0.0532  0.2349
23255W        W42109  16.038   5.027   1.269  0.0855  0.2940 -0.1928
23256W        W42110  13.751   4.733   3.448  0.2680  0.0374 -0.0907
23257W        W42111   7.788  17.335   5.154  0.4026 -0.0231 -0.3739
23258W        W42112  11.787  11.039  13.522  0.1216 -0.2945  0.1366
23259W        W42113  13.453  13.654  13.929 -0.0773 -0.1038 -0.2026
23260W        W42114   1.166  12.538  12.230  0.0881 -0.1433 -0.1016
23261W        W42115  10.742   1.196  13.264  0.2353  0.1865 -0.4762
23262W        W42116   1.136   8.330  15.108  0.0936  0.3048 -0.0082
23263W        W42117   6.174  14.409  15.526  0.1330  0.3792 -0.2394
23264W        W42118   7.101  11.558  15.445  0.0840  0.2977 -0.0200
23265W        W42119  10.965  17.150  16.974 -0.1155  0.1501  0.0904
23266W        W42120  12.056   4.331   1.698 -0.0343  0.1181  0.1920
23267W        W42121  13.512   6.106  16.710  0.1812 -0.0696  0.1872
23268W        W42122  11.085   9.604  12.606 -0.1242  0.2326  0.0205
23269W        W42123   3.188   8.237  12.728  0.1193 -0.1960  0.0706
23270W        W42124  10.902  11.507   3.952 -0.0650 -0.4982 -0.2043
23271W        W42125   6.681   3.450  12.466  0.0669  0.2688  0.2594
23272W        W42126  15.297   0.439  14.756 -0.2509  0.3594  0.0444
23273W        W42127   3.567  14.786  14.757 -0.0426 -0.2963  0.2192
23274W        W42128   3.795  15.551   5.094  0.3377 -0.2045  0.2399
23275W        W42129  10.727  15.953  15.979 -0.2236  0.1528  0.1069
23276W        W42130  16.881   8.517   4.637 -0.3018 -0.3033 -0.1824
23277W        W42131   4.133   5.013  13.025  0.2533  0.0800 -0.0372
23278W        W42132  13.066  11.190  16.538 -0.3424 -0.1240  0.0864
23279W        W42133  10.419   0.866  17.150  0.2819 -0.1417 -0.2265
23280W        W42134  14.097   6.411   0.844 -0.1062  0.0384  0.3566
23281W        W42135   9.756   0.920   4.685 -0.3533  0.2827  0.2859
23282W        W42136  10.011  16.485  16.837 -0.1258 -0.0020  0.0001
23283W        W42137   1.211   5.528   0.194 -0.0435  0.3183  0.4576
23284W        W42138  13.968   9.150  13.023  0.1929  0.1523 -0.4358
23285W        W42139  13.863   2.455   1.877  0.0239  0.1709  0.0888
23286W        W42140  15.077   5.561   5.385  0.0052 -0.1454 -0.4970
23287W        W42141  10.481  16.261   3.307 -0.1373  0.0090 -0.1930
23288W        W42142   2.432  12.580   1.858  0.1389  0.0167  0.2676
23289W        W42143  15.867  11.615   4.841 -0.2777 -0.1439 -0.0867
23290W        W42144  11.850  11.137  16.903 -0.0228  0.0898 -0.1085
23291W        W42145   2.230   4.917   3.806  0.1141  0.2106 -0.1575
23292W        W42146  11.494   0.873  12.902 -0.3274  0.0488  0.1010
23293W        W42147  12.987  12.225  14.346 -0.1550 -0.1247  0.2436
23294W        W42148   6.872  16.712   3.098 -0.2805 -0.0474 -0.0331
23295W        W42149   6.144   2.595   2.418  0.0294 -0.0180 -0.0449
23296W        W42150   8.727  11.292   4.844  0.1774 -0.1914  0.1551
23297W        W42151   8.682  17.207  16.061  0.1015  0.0612  0.1498
23298W        W42152  10.733   4.089   2.110  0.1552 -0.0597 -0.2052
23299W        W42153  12.916  16.418  12.360  0.0530 -0.1742  0.3244
23300W        W42154   5.648   6.250  15.483  0.0421  0.1521 -0.0301
23301W        W42155   8.331  10.586   3.175  0.1203  0.1177 -0.1385
23302W        W42156   5.392  16.851   4.369 -0.0162 -0.0028  0.0707
23303W        W42157   4.911   8.077   1.721 -0.0470  0.0897 -0.4318
23304W        W42158   1.040  14.565   4.060  0.0954  0.2850 -0.0271
23305W        W42159   8.600  12.284  14.001  0.2192  0.3488  0.1986
23306W        W42160  10.181  13.269   0.073  0.2215 -0.0671 -0.0347
23307W        W42161   6.521  15.772  13.883  0.2174  0.2061 -0.1845
23308W        W42162  11.611  14.517  11.089 -0.0623 -0.3647  0.2185
23309W        W42163   3.290   0.641  14.343  0.2144  0.0181 -0.3338
23310W        W42164  14.682   9.036  15.317  0.1814 -0.1464  0.0188
23311W        W42165   4.378   7.340  15.878  0.1146 -0.2513 -0.0010
23312W        W42166   9.346   0.906  15.778 -0.1234 -0.0114  0.0403
23313W        W42167   4.310  15.650   3.214  0.1044  0.0334  0.1289
23314W        W42168   4.240   2.406  16.419 -0.0285  0.1210  0.1914
23315W        W42169  16.106  13.735   5.002 -0.1649  0.1703 -0.2793
23316W        W42170  15.429  15.630   1.792  0.2019  0.1568 -0.0975
23317W        W42171   8.395   7.670  14.119 -0.0032 -0.2120 -0.0843
23318W        W42172  16.328  13.725   3.629  0.1278 -0.1504 -0.0170
23319W        W42173  10.375  15.047  15.748  0.0735 -0.0084  0.3102
23320W        W42174  16.361  16.266   3.234  0.2357  0.0408 -0.1021
23321W        W42175   4.024   5.818  16.262  0.0213  0.0096  0.0133
23322W        W42176  14.314   2.384   4.381 -0.0623  0.0665 -0.1580
23323W        W42177   5.637   1.886   0.529 -0.0788 -0.1541 -0.0175
23324W        W42178   9.242  15.668  16.372 -0.0852 -0.1023 -0.5132
23325W        W42179  13.914  12.638   4.191  0.2866  0.2707  0.1731
23326W        W42180   6.347   1.420  16.176 -0.2132  0.0280  0.1276
23327W        W42181   7.337   6.380   3.359  0.5166  0.1077 -0.0838
23328W        W42182   9.060   3.057   0.228 -0.0298  0.1152  0.0797
23329W        W42183   0.555  15.962   1.057  0.1205 -0.2333  0.3322
23330W        W42184  10.640   5.818  15.122 -0.0634 -0.0787 -0.2208
23331W        W42185   4.551   5.642   3.572 -0.0005  0.2791  0.2811
23332W        W42186  10.224  15.488  15.464 -0.2644 -0.0123  0.1584
23333W        W42187   4.790  11.659  15.509  0.1336  0.0105  0.0952
23334W        W42188   6.540   8.375   0.192  0.0442 -0.0943  0.1664
23335W        W42189   5.271  12.899   4.416  0.1262 -0.0811  0.1258
23336W        W42190   7.439  10.528   4.274 -0.3041  0.2516 -0.0571
23337W        W42191  17.243   6.302  15.865  0.1376 -0.0042  0.3561
23338W        W42192  12.067   5.134   1.300 -0.3022  0.0689 -0.0832
23339W        W42193  17.264  15.338   3.107  0.0601  0.1526 -0.1295
23340W        W42194   2.191  14.016  14.844 -0.0166 -0.0769 -0.2826
23341W        W42195   0.370  15.068   1.295 -0.0330  0.1762 -0.0843
23342W        W42196   6.658   3.079  16.837 -0.2604  0.2016  0.0720
23343W        W42197   8.158  12.830  16.167  0.1610 -0.2127  0.0375
23344W        W42198  13.462   4.366   4.914  0.0310 -0.0405 -0.0538
23345W        W42199  11.184   8.918  13.091  0.0810  0.1016 -0.0200
23346W        W42200  15.192   4.178  12.933 -0.4393  0.1494 -0.1635
23347W        W42201   1.090   4.018  17.005  0.1278  0.0878 -0.1148
23348W        W42202   4.798   7.563  12.741 -0.0482 -0.3445 -0.1290
23349W        W42203  13.727  11.715  15.988 -0.2175  0.2068  0.0177
23350W        W42204  12.372   4.870   0.904 -0.0928 -0.1997 -0.1996
23351W        W42205  12.891  13.478   3.750 -0.3616  0.1727  0.0638
23352W        W42206  11.628   6.761   1.886  0.0840 -0.1592  0.1802
23353W        W42207  14.965   4.296   5.364 -0.1229  0.1065 -0.0072
23354W        W42208   2.103   3.222   3.701 -0.0059  0.1310 -0.1104
23355W        W42209   4.592   5.161   3.144  0.0016 -0.2202  0.0582
23356W        W42210  10.203   9.165   5.068 -0.1200  0.3448  0.1725
23357W        W42211   4.082  10.401   2.661  0.2619  0.0105 -0.1566
23358W        W42212   5.702  15.717   1.833  0.1575 -0.0442 -0.0890
23359W        W42213  11.887  10.550  16.133 -0.0112  0.3237 -0.0643
23360W        W42214   2.075   2.791   0.824  0.0555 -0.0185 -0.1247
23361W        W42215  12.017   5.193  16.621 -0.1200 -0.0154 -0.3455
23362W        W42216   7.201   7.273   1.118  0.1461  0.0654  0.2532
23363W        W42217   6.669   4.504  12.386  0.3267 -0.1232 -0.1794
23364W        W42218  12.420   8.153   1.465  0.1760 -0.2160  0.0794
23365W        W42219  16.917   3.401  13.295  0.0986 -0.0817  0.1451
23366W        W42220   4.200   2.166  15.964 -0.0967 -0.1234  0.4566
23367W        W42221  15.189   6.338   3.667  0.0815  0.2222 -0.2254
23368W        W42222  15.411  12.366  16.180  0.1006  0.0536  0.1228
23369W        W42223   7.620   4.364  13.749  0.2151 -0.2873  0.0511
23370W        W42224   6.935  14.743  14.288  0.0329 -0.2485 -0.0401
23371W        W42225  13.649  14.886  13.298 -0.0996 -0.2402  0.0936
23372W        W42226   9.931   2.171  14.322 -0.2146  0.0611  0.0195
23373W        W42227   6.550  11.428  15.423 -0.0131 -0.3516 -0.2386
23374W        W42228  13.901   0.093   3.293  0.1570  0.1987  0.2389
23375W        W42229   6.660   9.966  13.210 -0.0496 -0.2931 -0.0080
23376W        W42230   6.402   7.427   3.033 -0.1854  0.0418 -0.1771
23377W        W42231  12.388   7.217  14.930  0.2543 -0.2272 -0.0004
23378W        W42232  12.706  12.521   1.619 -0.0548  0.0227 -0.4155
23379W        W42233   9.306   2.461  16.310  0.1171  0.0603  0.1296
23380W        W42234  10.635  12.858  16.795  0.2903  0.0589  0.0189
23381W        W42235   2.980   7.602   0.117 -0.1114  0.0264  0.0059
23382W        W42236  15.551   3.193  16.231  0.0220  0.1468 -0.1366
23383W        W42237   4.824  15.978   2.496  0.1845  0.0862 -0.1635
23384W        W42238  10.328   4.662   1.496  0.0541  0.1422 -0.0393
23385W        W42239   1.524  10.896  17.110  0.2686 -0.0464 -0.1368
23386W        W42240   2.219   6.438   0.641 -0.3286 -0.3292 -0.1733
23387W        W42241  14.334   9.707  11.667 -0.3209  0.3442 -0.5427
23388W        W42242   3.537   4.446   4.563  0.1962  0.0556  0.3164
23389W        W42243  12.286   3.717   2.488  0.2957  0.1919  0.2275
23390W        W42244  16.566   1.267  16.984 -0.3455 -0.1155 -0.0272
23391W        W42245  11.378  11.560  12.171 -0.1057  0.0156 -0.6466
23392W        W42246  13.001  12.258  11.330 -0.2326  0.2974  0.2372
23393W        W42247   9.849   1.744  13.440 -0.0050 -0.0624 -0.3033
23394W        W42248   3.269  16.644  12.818  0.1112 -0.1889 -0.0778
23395W        W42249  16.279   2.096   3.200  0.0351  0.1025 -0.3329
23396W        W42250   2.617   1.851   5.135  0.0289  0.0404 -0.0152
23397W        W42251   3.645  13.021  16.803 -0.2981 -0.2387 -0.1480
23398W        W42252   7.645   6.293  13.560  0.2579 -0.0893 -0.2378
23399W        W42253   2.258   4.823   2.998 -0.2369 -0.0520  0.1012
23400W        W42254   5.273   5.532   1.748 -0.1779  0.0308  0.0875
23401W        W42255  10.214   1.423  12.353 -0.1672  0.1328  0.0063
23402W        W42256  12.364   3.608  12.996 -0.0308 -0.0749  0.0850
23403W        W42257  12.947   7.745   0.251 -0.5218 -0.1247 -0.1388
23404W        W42258   0.067  13.774  12.573  0.0524 -0.0107  0.0501
23405W        W42259   0.730  13.259  14.596  0.1775 -0.2317  0.0684
23406W        W42260  10.217  11.533   1.649  0.1588 -0.2967  0.0830
23407W        W42261   4.540   5.969   1.886  0.0653  0.4408 -0.1761
23408W        W42262   1.328   3.975   0.290  0.1922 -0.1168  0.0305
23409W        W42263   2.313  16.007  13.718  0.0056  0.1417 -0.2266
23410W        W42264  15.532  17.263  12.506 -0.2583 -0.0667 -0.1929
23411W        W42265  11.360   1.765  15.486  0.1918  0.3110 -0.1707
23412W        W42266  17.138  15.205   0.579 -0.1404 -0.1607 -0.0322
23413W        W42267   5.559  16.741  14.824  0.0753 -0.0357 -0.2055
23414W        W42268   1.890   0.671   1.734 -0.2888  0.1225 -0.1888
23415W        W42269   7.923   9.861   0.258  0.2930 -0.1246  0.4029
23416W        W42270  16.179  12.658   2.864 -0.1620  0.1617 -0.0069
23417W        W42271   4.236  17.307   3.144  0.0368  0.1963  0.4522
23418W        W42272   9.198  13.103   4.260 -0.2913  0.2480  0.0503
23419W        W42273   6.170   4.683   0.287  0.1458 -0.1685 -0.0143
23420W        W42274  13.268  10.424  12.628 -0.2744  0.1568 -0.1787
23421W        W42275  13.163   3.425   3.561 -0.0781  0.2674 -0.1219
23422W        W42276   8.556   7.656   4.733  0.3586 -0.3231 -0.3228
23423W        W42277   5.394   6.990   0.487 -0.0608  0.1263 -0.2128
23424W        W42278   8.077  13.371   0.207 -0.0298 -0.0087 -0.1278
23425W        W42279   3.330  14.750   0.532 -0.1360  0.0875 -0.0350
23426W        W42280   3.776   0.968   0.699  0.0352  0.0711  0.0823
23427W        W42281   1.724  17.398   4.786 -0.0861 -0.3342 -0.0894
23428W        W42282   2.780   3.067  12.775  0.3221  0.0303  0.0509
23429W        W42283   5.739   1.015   3.469  0.0455 -0.1519 -0.0790
23430W        W42284   7.206  11.100   3.602  0.0324 -0.1970 -0.0657
23431W        W42285   2.988  14.774   3.087 -0.0696  0.1959  0.0549
23432W        W42286   2.144  10.296  12.477 -0.1947  0.0934 -0.3337
23433W        W42287  10.903  13.769  14.059 -0.1063  0.0815  0.0698
23434W        W42288  15.168   1.216   4.248 -0.0702  0.1445  0.1792
23435W        W42289   4.225  11.898  17.449 -0.0089  0.1291  0.0451
23436W        W42290   6.221   3.718   4.973  0.0250  0.0344 -0.0071
23437W        W42291   9.059   8.745   3.878 -0.1050 -0.1472  0.1216
23438W        W42292  12.661  11.575  16.479 -0.0708 -0.0403 -0.1975
23439W        W42293   1.928   9.328   4.815  0.3477  0.1007 -0.2483
23440W        W42294   8.281   3.772   2.092  0.1015  0.3135  0.2224
23441W        W42295  10.795  13.189  12.304  0.2684 -0.0813 -0.1874
23442W        W42296   1.349   7.768   0.475 -0.2598  0.2362  0.0724
23443W        W42297  11.933  12.043  14.885  0.0465 -0.0272 -0.1640
23444W        W42298   1.664  15.002   1.847 -0.0999  0.3113 -0.2010
23445W        W42299  15.711  12.252  15.092  0.3800  0.1139 -0.2396
23446W        W42300  11.962   5.419   5.079 -0.1868 -0.1170  0.2237
23447W        W42301  16.544   1.985   1.829  0.0960  0.1696  0.1904
23448W        W42302  13.690  15.924  12.878  0.0857  0.1562  0.1241
23449W        W42303  16.947   1.001   1.770  0.1670 -0.1410  0.1097
23450W        W42304   0.068  13.805   4.718  0.0746 -0.1336  0.2334
23451W        W42305  11.562  13.969  15.855  0.3422  0.2947  0.2343
23452W        W42306  11.251   5.433   3.272 -0.1967  0.1283  0.0232
23453W        W42307  12.105  14.632   4.827  0.1058 -0.0981  0.1659
23454W        W42308   5.342  15.774   2.229  0.2569  0.0756 -0.1036
23455W        W42309  16.322  14.873   4.677 -0.1753 -0.1501  0.3042
23456W        W42310  13.488   7.153  12.324 -0.1349  0.1836  0.0138
23457W        W42311   3.851   1.256   3.949 -0.0414 -0.0252 -0.1304
23458W        W42312  11.476  12.126  15.145  0.3769  0.1138 -0.1584
23459W        W42313   0.265   9.857  15.899  0.1228  0.1717 -0.0975
23460W        W42314   8.482  16.670  15.364  0.0459  0.0520  0.3112
23461W        W42315   3.701  15.982   4.875 -0.1440 -0.1791 -0.0202
23462W        W42316   9.868   4.651  16.233  0.0041 -0.0230  0.2163
23463W        W42317   5.087  10.610  14.052  0.0707 -0.1753  0.1726
23464W        W42318  16.580   8.369  14.774 -0.0513 -0.1336  0.2050
23465W        W42319  15.358  14.829   0.271 -0.0711  0.1194 -0.1507
23466W        W42320  10.606  10.639  16.489 -0.0565 -0.1619 -0.0796
23467W        W42321   5.608  11.826   0.772 -0.0144 -0.3462 -0.2176
23468W        W42322   4.901   1.962   4.127 -0.0080  0.0009  0.1809
23469W        W42323  10.020   2.743  16.727  0.1073  0.0706  0.2605
23470W        W42324   9.498  10.596   0.400  0.1167 -0.0683  0.1499
23471W        W42325   9.399   3.584   2.548  0.0351  0.1091  0.1683
23472W        W42326  11.082   5.754  15.319  0.0068  0.1799 -0.0222
23473W        W42327  13.890   4.765  13.516 -0.2623 -0.0462 -0.0194
23474W        W42328   6.260   9.115   1.750 -0.2475  0.0090 -0.3273
23475W        W42329  17.088   7.042  14.673 -0.0101 -0.2875  0.0655
23476W        W42330   4.450   5.996   1.269 -0.3081 -0.0436  0.3510
23477W        W42331  11.716   8.657  14.491 -0.1612 -0.1958  0.0266
23478W        W42332   9.904  15.018  15.398  0.0223  0.0858 -0.1313
23479W        W42333  13.413  11.566  15.137  0.1102 -0.0196 -0.2255
23480W        W42334   1.700   5.317   0.280  0.1888 -0.0477  0.1292
23481W        W42335   9.362  14.565   3.784 -0.0070  0.1093  0.0199
23482W        W42336   5.076   0.769  14.968  0.0643  0.2133  0.2500
23483W        W42337  16.786   8.053   1.870 -0.2458 -0.1531 -0.1653
23484W        W42338   4.824   3.043  16.375 -0.0610 -0.1245  0.1356
23485W        W42339   9.986  15.326  15.877 -0.1744  0.2687 -0.3073
23486W        W42340  14.952  17.371   1.203 -0.1245 -0.0292  0.1800
23487W        W42341  16.717   0.099   1.842 -0.0102  0.0171  0.1217
23488W        W42342   9.085   1.971  12.787  0.2015  0.3187  0.4470
23489W        W42343   9.829  14.717   6.238 -0.1169  0.0573 -0.4979
23490W        W42344  14.172  13.628   0.566  0.3311  0.0842 -0.1487
23491W        W42345   5.523   0.505   3.599 -0.0689  0.1110 -0.3240
23492W        W42346   7.776  13.656   1.147  0.0852  0.0335  0.0330
23493W        W42347   7.401   6.878   3.381  0.2737 -0.0782  0.2491
23494W        W42348   3.185   0.061  13.078 -0.2113  0.2861 -0.1156
23495W        W42349   0.779  10.221  12.546 -0.0502  0.0415  0.0002
23496W        W42350  15.490   5.674   5.244  0.3508  0.0207 -0.3985
23497W        W42351  10.712   5.206  11.972 -0.3577  0.1647  0.0729
23498W        W42352   2.522  16.473  15.390 -0.1267  0.1022  0.0190
23499W        W42353  14.646   5.388  13.020  0.0092  0.1774 -0.0506
23500W        W42354  10.105   3.779   0.597 -0.0255  0.0389  0.2359
23501W        W42355   3.857   2.248  12.496  0.0301 -0.0700  0.0231
23502W        W42356  16.985   1.207   2.639  0.0233  0.0764  0.0134
23503W        W42357  15.186  16.713  13.224  0.0342 -0.0825  0.0235
23504W        W42358  16.335  13.237   1.187 -0.2281 -0.0192  0.1651
23505W        W42359   9.882   9.342  16.770 -0.0715 -0.1214 -0.2514
23506W        W42360   8.779   1.733   4.393 -0.2272 -0.1313 -0.3475
23507W        W42361   0.051   4.283   4.514 -0.1005  0.2958  0.0403
23508W        W42362   6.433   1.215   2.221 -0.0877  0.0384 -0.1187
23509W        W42363   0.798   1.817   0.591  0.0134  0.3099 -0.2346
23510W        W42364   5.098   3.494  16.180 -0.2064 -0.0194  0.0834
23511W        W42365  16.819  16.950   4.220  0.1078  0.2259  0.0973
23512W        W42366   9.895   3.773  12.952 -0.1193 -0.0062  0.2157
23513W        W42367  10.134   4.235   3.617  0.4158 -0.2352 -0.2235
23514W        W42368   7.720  12.644  12.496  0.0941  0.1978 -0.2899
23515W        W42369   7.689   6.018   0.950 -0.1483 -0.0509 -0.0489
23516W        W42370  16.488   3.332   3.108 -0.0066  0.2053  0.1866
23517W        W42371  11.382   0.976  13.831 -0.0921  0.4514  0.0987
23518W        W42372  16.670   4.843  11.448  0.1188  0.5608 -0.0546
23519W        W42373  10.728  16.317  16.474 -0.0319  0.2375 -0.3013
23520W        W42374   9.550  15.965   5.210 -0.2128 -0.1478  0.1187
23521W        W42375  10.774   6.103  15.609 -0.0080  0.0691  0.1705
23522W        W42376   9.059   5.848  12.647  0.0822  0.1394 -0.1623
23523W        W42377  12.964   8.833   4.490  0.0111 -0.0340  0.1808
23524W        W42378  14.979  16.222   3.267  0.0539  0.0810  0.1479
23525W        W42379   6.926   3.467   2.202 -0.0701 -0.0468  0.1666
23526W        W42380  14.878  10.889   5.228 -0.1073  0.2955 -0.2609
23527W        W42381   9.361  16.128  16.146 -0.2757 -0.1140  0.1387
23528W        W42382  10.567   4.003  16.201 -0.2315  0.0141  0.3238
23529W        W42383   1.144  12.712  15.262 -0.2216 -0.0876  0.0844
23530W        W42384  10.537   5.951   1.593 -0.1051  0.2101 -0.0785
23531W        W42385  13.082   9.132   4.082 -0.0373  0.3102  0.2836
23532W        W42386   1.049  13.710   2.666  0.0977  0.3033 -0.0667
23533W        W42387   7.336  16.482  17.467 -0.1582  0.0055 -0.0899
23534W        W42388  14.109   5.459   2.328  0.2972 -0.1023 -0.2645
23535W        W42389  11.757   1.274   5.460 -0.0102 -0.2630 -0.0801
23536W        W42390   8.067   0.480  12.611  0.1332  0.6819 -0.3811
23537W        W42391   4.296   7.617  13.828  0.0373  0.1620  0.2304
23538W        W42392  11.277  12.736   4.141  0.0407  0.1588  0.2542
23539W        W42393  10.263   3.794   4.019 -0.0445 -0.1990 -0.0799
23540W        W42394   7.732  17.133   1.813  0.3026 -0.0327  0.1912
23541W        W42395   6.390  16.863   4.244  0.1254 -0.0657 -0.4042
23542W        W42396   8.544   9.962  13.081 -0.1944  0.1943  0.1802
23543W        W42397  13.969   8.643  16.832 -0.1501  0.0516  0.1220
23544W        W42398  14.652  16.166   1.756 -0.1188 -0.0777 -0.2767
23545W        W42399   9.023   6.637   2.815  0.1803  0.1808  0.1536
23546W        W42400   5.455   8.676   1.004 -0.2595  0.1026  0.0884
23547W        W42401   0.088   5.972  15.552 -0.2445 -0.1194  0.0721
23548W        W42402   4.167  16.812  12.423  0.1677 -0.1079 -0.1803
23549W        W42403   6.268  11.300  11.996 -0.0151  0.1738 -0.1628
23550W        W42404  16.224   7.202   2.982 -0.0155  0.1690  0.0973
23551W        W42405   0.784  14.220   4.787  0.3255  0.0484  0.1582
23552W        W42406  10.729   8.640  12.788 -0.1550  0.0718 -0.1874
23553W        W42407   5.030   5.243   0.609  0.3002 -0.1191  0.4845
23554W        W42408   7.546   4.939   4.552  0.0628  0.0651  0.0812
23555W        W42409   2.614   1.139  15.699 -0.0157  0.2597 -0.1548
23556W        W42410   4.325  13.752   1.889 -0.2946 -0.2256 -0.0884
23557W        W42411   9.557  11.625  16.261 -0.1316  0.0792  0.1887
23558W        W42412   1.461   0.656   3.466  0.3384  0.1082 -0.1398
23559W        W42413  13.860   3.575  12.961  0.0178  0.1556  0.3052
23560W        W42414   7.859   4.875  12.567  0.1771 -0.0358 -0.2090
23561W        W42415   8.217   5.121   4.227  0.3126 -0.1030 -0.2197
23562W        W42416   2.948   5.896  12.670 -0.1573  0.2210  0.1664
23563W        W42417  13.289   2.164  14.571 -0.2113 -0.3331  0.1834
23564W        W42418   3.389   3.826   0.253  0.2126  0.1268  0.1713
23565W        W42419  14.251  14.927  12.576  0.0080  0.1559  0.0673
23566W        W42420  14.532   9.675   4.453  0.5290 -0.1428  0.3027
23567W        W42421  15.494  14.145   5.388 -0.1271  0.0226 -0.2033
23568W        W42422  12.779  11.424   0.638 -0.0464  0.0566  0.0121
23569W        W42423  15.321  15.605  15.870  0.0024 -0.1851 -0.1396
23570W        W42424  11.124   1.507  16.450 -0.1281 -0.0880 -0.0015
23571W        W42425  16.274  16.710   4.306 -0.0443 -0.2274  0.1288
23572W        W42426   5.419   6.889  13.692 -0.0988  0.5003 -0.2273
23573W        W42427   7.621  14.315   2.685 -0.0741  0.1000  0.1840
23574W        W42428  13.497   7.353  17.304 -0.2422 -0.0812 -0.2801
23575W        W42429  14.076   9.054   3.881 -0.1052 -0.2973  0.1081
23576W        W42430   3.320   3.205  13.435  0.1009 -0.1902  0.2168
23577W        W42431  13.964  14.257  17.479 -0.1827 -0.0309 -0.2122
23578W        W42432   7.273   3.107   1.222  0.1781 -0.0298  0.0226
23579W        W42433   5.559   8.873   3.471  0.1405 -0.1054  0.4193
23580W        W42434   5.818   4.055   1.577 -0.2657 -0.0301 -0.0408
23581W        W42435   2.826   5.953   0.192 -0.0953  0.1381 -0.0686
23582W        W42436  16.135   3.661   2.876 -0.0316  0.0063 -0.3922
23583W        W42437  16.234   9.307   1.142 -0.2570  0.0518 -0.0690
23584W        W42438  17.319  16.818   1.162  0.1463 -0.0648  0.0416
23585W        W42439  13.522  13.338   3.860  0.0407  0.1047  0.1458
23586W        W42440  11.619  14.279  13.375  0.1023 -0.4044 -0.3338
23587W        W42441   1.627  10.171  12.996 -0.2253 -0.2384 -0.1153
23588W        W42442  16.324   1.787  15.784  0.1932  0.2279 -0.1636
23589W        W42443   4.126  13.267   6.247  0.0227 -0.0322  0.0704
23590W        W42444  14.957  12.771  13.649 -0.2101 -0.1625 -0.0591
23591W        W42445   7.135   5.043   2.596 -0.1897 -0.1177 -0.0189
23592W        W42446  16.419   9.058  16.478 -0.2409  0.3058  0.1241
23593W        W42447   0.713   1.604  13.201 -0.3127 -0.1408  0.0649
23594W        W42448   2.508   8.389   1.653 -0.4064  0.1127 -0.1339
23595W        W42449   9.871  10.137   3.739 -0.2304 -0.3902  0.0621
23596W        W42450  13.369   7.366   2.041  0.2174  0.0907  0.0292
23597W        W42451   7.749   4.228   4.866  0.5550  0.1490 -0.3129
23598W        W42452   5.347   3.384   0.146 -0.1109  0.0759  0.0522
23599W        W42453  15.196  13.230  17.124  0.2227  0.0147 -0.0708
23600W        W42454  10.063   2.421   1.398  0.1653 -0.0186 -0.0795
23601W        W42455  14.267  13.369  12.587 -0.2668 -0.0461 -0.2286
23602W        W42456  15.316  15.796  14.646  0.0721  0.0043 -0.0331
23603W        W42457   7.901  14.949   4.337 -0.3403 -0.1027  0.0227
23604W        W42458   7.253  16.439   2.198  0.0487 -0.0436 -0.0689
23605W        W42459  13.904   3.551  14.323  0.0416  0.2659 -0.0528
23606W        W42460   3.324  16.606  15.127  0.1315 -0.1514 -0.1331
23607W        W42461  15.597   5.467  17.103  0.0898  0.2164  0.2037
23608W        W42462   7.824   2.212  15.704  0.0116  0.0884 -0.1587
23609W        W42463   4.204  10.662   3.065  0.3450 -0.2012 -0.0534
23610W        W42464  16.245   9.113  14.069 -0.1367 -0.2805  0.3025
23611W        W42465   9.205   5.676   1.496 -0.1352  0.0583 -0.3874
23612W        W42466  16.467   4.543  16.557  0.1202  0.1194  0.3692
23613W        W42467   0.944   3.201   3.375  0.3972  0.2410  0.0022
23614W        W42468   5.935  11.070   3.168 -0.0162  0.0411  0.0887
23615W        W42469  11.245  11.036  12.247 -0.1510 -0.2328 -0.2010
23616W        W42470  16.389  12.964  12.719 -0.1296 -0.0105 -0.0219
23617W        W42471  11.292  11.368  15.734  0.0196 -0.2436 -0.0218
23618W        W42472  15.512  13.989   0.044 -0.1540  0.2169 -0.1583
23619W        W42473   7.316   4.923   2.083 -0.0256  0.0831  0.1411
23620W        W42474   2.845  11.658  13.772  0.0099 -0.1599 -0.1938
23621W        W42475   6.783  14.543   3.236 -0.1295  0.0075 -0.2256
23622W        W42476   3.344  15.762   3.616  0.1630 -0.0304 -0.1945
23623W        W42477  13.901  14.281   3.844  0.1727 -0.0571 -0.0163
23624W        W42478  12.889   9.449   3.233  0.0063 -0.1327 -0.0757
23625W        W42479   4.604   8.910   3.098  0.2957 -0.0734 -0.0153
23626W        W42480  15.068   2.211   0.969 -0.0057  0.0102  0.1308
23627W        W42481  16.453   0.788   0.547  0.1531 -0.2085 -0.0693
23628W        W42482  15.937   4.991   5.381  0.0493 -0.3495  0.4459
23629W        W42483   9.706   8.637  14.833  0.1821 -0.0186 -0.0762
23630W        W42484   7.761  10.930  15.858  0.1718 -0.0843  0.0415
23631W        W42485   7.494   1.683  13.276  0.0212 -0.1131 -0.0112
23632W        W42486   3.945  17.040  13.435 -0.0893 -0.1516  0.0072
23633W        W42487   6.057   2.817  13.604  0.1347 -0.0793  0.1903
23634W        W42488  16.588  14.406  14.257  0.0221  0.1448 -0.2893
23635W        W42489  16.896   4.996   4.382 -0.0731 -0.0032 -0.0060
23636W        W42490   6.238  12.218   1.982  0.1827  0.0602 -0.1417
23637W        W42491  13.589   6.527   0.075 -0.3572 -0.0193 -0.1896
23638W        W42492  10.604  10.124  16.721  0.0285  0.0129 -0.2364
23639W        W42493   3.551   8.718  13.505  0.2288  0.0916 -0.3447
23640W        W42494  10.855  12.617  14.715 -0.1196  0.0116  0.1215
23641W        W42495  16.493   1.638   3.107  0.0979 -0.0464 -0.0601
23642W        W42496   3.727  17.323   3.512  0.2171  0.0919 -0.0412
23643W        W42497   8.648   1.023  16.990 -0.0454 -0.0641  0.1175
23644W        W42498  14.700  15.104  17.300 -0.1392 -0.1328 -0.0723
23645W        W42499   4.279  12.069   3.268  0.3841 -0.2393 -0.0173
23646W        W42500   1.618   9.723   5.524 -0.0748 -0.3071  0.0517
23647W        W42501   1.658   4.315   5.337 -0.0907  0.3249 -0.2234
23648W        W42502  14.731   4.454  12.669  0.0662  0.2130 -0.1440
23649W        W42503  16.441  12.757  15.424  0.1656  0.2507  0.0553
23650W        W42504   5.301   2.502  12.802  0.1438 -0.0712 -0.0699
23651W        W42505  14.043   7.102  14.463  0.2221  0.1268  0.2669
23652W        W42506  16.242   4.067  14.163  0.3616  0.0592 -0.1019
23653W        W42507   4.163   9.787  13.247  0.1052  0.0503 -0.0566
23654W        W42508  13.886  11.022   2.156  0.2240  0.0316 -0.1126
23655W        W42509   2.434   4.903  13.916 -0.1048  0.4573 -0.4512
23656W        W42510  16.691   0.141  16.135  0.0710 -0.1677 -0.1734
23657W        W42511  11.463  12.204   2.338 -0.1516  0.0483  0.2158
23658W        W42512   9.925  17.373   5.431  0.0217  0.3575 -0.3341
23659W        W42513   7.766  13.877   5.198 -0.2189 -0.1959 -0.0709
23660W        W42514   4.993   1.381   2.808 -0.0403  0.0651  0.0250
23661W        W42515   0.036  12.583   3.101  0.2478  0.1766 -0.2417
23662W        W42516   4.153   9.779   1.597  0.2191  0.1925 -0.1988
23663W        W42517  14.242  16.054  15.569 -0.1463  0.0459 -0.0833
23664W        W42518   8.002  11.940  16.629 -0.2382 -0.1704  0.1935
23665W        W42519   3.336  15.419  14.224  0.0297 -0.1753 -0.1751
23666W        W42520  10.760  14.937   1.367  0.0457 -0.0075  0.0349
23667W        W42521   0.657   2.533   3.502 -0.1075 -0.0945  0.0704
23668W        W42522   5.499   0.291   2.167  0.2675 -0.0122 -0.0678
23669W        W42523   1.685  14.751   2.300 -0.0266  0.0056  0.4207
23670W        W42524   8.932   2.375   0.706 -0.1240  0.0135 -0.2190
23671W        W42525  12.850  15.070   3.792 -0.0184  0.0301  0.0510
23672W        W42526  13.914   2.451   1.223  0.1411 -0.1540 -0.0130
23673W        W42527  15.603   0.908   3.331  0.2124 -0.0871  0.4918
23674W        W42528  15.452  13.724   3.742 -0.3620  0.0196  0.2426
23675W        W42529   7.300  15.350  12.459 -0.2168 -0.0167  0.2483
23676W        W42530   9.650  14.642  15.042  0.2099  0.1178 -0.1062
23677W        W42531   9.478  13.235  16.398 -0.1611  0.1480 -0.1525
23678W        W42532  10.231   3.665  16.086  0.0987  0.0191  0.3277
23679W        W42533   6.026  11.677  13.496  0.0759 -0.3224 -0.0809
23680W        W42534   1.227   5.741   4.309  0.1997 -0.2431  0.0615
23681W        W42535   5.608   6.145   2.668  0.0576 -0.2223 -0.1371
23682W        W42536  13.471   4.803   2.574 -0.1586 -0.0953 -0.0936
23683W        W42537   7.316   6.544   4.591 -0.0093  0.0515  0.1087
23684W        W42538   8.439  12.566   3.668  0.0390 -0.3179  0.0604
23685W        W42539   1.225   9.339  15.120  0.0683  0.0148 -0.1547
23686W        W42540  15.047  11.942  12.614 -0.0848  0.1246 -0.2101
23687W        W42541   9.897   3.814   1.103  0.0094 -0.2646  0.1825
23688W        W42542   1.598  16.271   0.520 -0.0720 -0.1377  0.2452
23689W        W42543   2.907   8.517  16.971  0.1465  0.1784  0.1786
23690W        W42544  16.672   8.621   1.995  0.0352  0.0501 -0.3241
23691W        W42545  12.771   2.809  15.121 -0.1296 -0.2092  0.1919
23692W        W42546   2.788   3.961  16.531 -0.1922 -0.3421  0.3624
23693W        W42547   5.662  13.367   3.772 -0.2563  0.1136 -0.0066
23694W        W42548   1.989  13.902  16.852 -0.2042  0.0992  0.1076
23695W        W42549   5.485  15.182  13.168  0.2124  0.0319 -0.0972
23696W        W42550  15.953  15.970   5.279  0.0776  0.1858  0.3259
23697W        W42551   6.779   4.079  14.639  0.1436  0.0882 -0.1193
23698W        W42552   4.227   9.047  13.914  0.0850  0.2037 -0.2635
23699W        W42553  11.790   7.819   5.145  0.1654  0.3083 -0.0495
23700W        W42554  12.188  16.055  14.234 -0.0460  0.0542  0.0877
23701W        W42555   4.093  16.110   5.585  0.0068 -0.0545  0.2527
23702W        W42556  16.325   2.834  15.568 -0.2235  0.2955 -0.0378
23703W        W42557   7.203  10.573   0.467  0.0104  0.0977 -0.3538
23704W        W42558   1.824   6.553   2.525 -0.3384 -0.1504 -0.2009
23705W        W42559   0.128   1.814  16.352  0.1689  0.1868 -0.3499
23706W        W42560  15.313  12.681   2.990 -0.0542 -0.2881 -0.0109
23707W        W42561   8.785   1.246   4.633 -0.0294  0.0493 -0.0245
23708W        W42562   5.765   8.175   4.744 -0.0006  0.3006  0.0757
23709W        W42563  13.071   4.153   3.178 -0.0404  0.0120 -0.1296
23710W        W42564  10.639  10.420  17.192 -0.1051  0.1286  0.1642
23711W        W42565   4.082  13.343   0.620 -0.3235  0.2587 -0.1164
23712W        W42566   5.886  11.300   3.708 -0.2077 -0.1108 -0.1135
23713W        W42567   7.143   8.092  16.956  0.2656 -0.0563 -0.1015
23714W        W42568  15.849   7.331   4.300  0.1325  0.0779 -0.1701
23715W        W42569   6.329   1.964  12.097  0.1952  0.1034  0.3236
23716W        W42570  16.861   1.774   1.209 -0.0378 -0.4941  0.0136
23717W        W42571   4.247   3.187  12.514  0.2145  0.2559 -0.1207
23718W        W42572   7.967   3.644  16.409 -0.0528 -0.0188  0.1672
23719W        W42573  14.885  15.666  14.073 -0.1464 -0.2129  0.3018
23720W        W42574   8.056  11.437  15.046  0.0478  0.1964 -0.3083
23721W        W42575   7.928   8.995   4.705 -0.3316  0.0063 -0.1476
23722W        W42576   5.296   0.422  11.589  0.2260  0.0058  0.2056
23723W        W42577   3.782   5.406  16.063  0.2328 -0.1933 -0.0793
23724W        W42578   8.007   9.737  14.586  0.1939 -0.1416 -0.0186
23725W        W42579   5.510  12.406  16.348 -0.1597 -0.1605 -0.0974
23726W        W42580  13.055   6.999   3.621  0.1816 -0.0483  0.3763
23727W        W42581   3.611   3.848   2.256  0.1876 -0.0691  0.2551
23728W        W42582  17.142  10.121  15.135  0.0587 -0.1714  0.0482
23729W        W42583   4.222  11.357   3.845  0.2729 -0.2148  0.0623
23730W        W42584   0.787  10.265   3.051 -0.1721  0.0781  0.1701
23731W        W42585  10.847   0.617  13.866 -0.2518 -0.0720  0.0782
23732W        W42586   8.664   2.282   1.427  0.0195 -0.1089 -0.1478
23733W        W42587   8.885  14.211   3.652  0.1858 -0.1824 -0.1704
23734W        W42588  17.086  12.336  14.661  0.2179  0.2955  0.1980
23735W        W42589   7.801  10.373   3.360  0.1696 -0.2539 -0.2669
23736W        W42590   8.957  11.049  13.785  0.0130  0.0002 -0.3328
23737W        W42591  11.589   3.200  13.188 -0.1556 -0.0247 -0.1099
23738W        W42592   0.832   2.573   0.189 -0.0269  0.1007 -0.0696
23739W        W42593  13.058   0.619   4.028  0.0658 -0.0533  0.1360
23740W        W42594  11.075  13.354   4.958  0.0017 -0.0570  0.2265
23741W        W42595   4.903   2.783   3.723 -0.2337  0.2653  0.0190
23742W        W42596  10.178  16.730  17.291  0.0697  0.1616 -0.0394
23743W        W42597   0.156   1.189   1.429  0.0888  0.1403  0.1016
23744W        W42598   1.040   5.678   2.982  0.0807  0.1451 -0.1580
23745W        W42599  16.577   3.854   3.040 -0.2254  0.0666 -0.1579
23746W        W42600  11.208   1.519  15.949  0.1562 -0.0638 -0.1385
23747W        W42601   3.994   7.819  16.785  0.1003 -0.3212  0.1339
23748W        W42602  14.355   4.345   3.020  0.0102  0.2362  0.0506
23749W        W42603  14.302   0.218   0.550 -0.3607 -0.2328 -0.1702
23750W        W42604  15.838   9.556   3.453  0.1929 -0.0345  0.1294
23751W        W42605   4.753   0.201  15.267  0.0120 -0.1214  0.0026
23752W        W42606  13.143   0.398   3.354  0.2290 -0.0185  0.2529
23753W        W42607  16.329  11.026  15.414  0.0653  0.1502  0.2523
23754W        W42608  10.052  10.938  16.049  0.0154  0.4753 -0.2382
23755W        W42609  12.885   7.861   4.149 -0.2533  0.0469 -0.0974
23756W        W42610   2.745  16.528  15.927 -0.1956  0.2542 -0.0429
23757W        W42611   9.966   7.385  16.569  0.1450 -0.0725 -0.0787
23758W        W42612   5.907   4.024  12.351 -0.0530 -0.0109 -0.3144
23759W        W42613  10.490   9.748   4.257 -0.0772 -0.0538  0.1180
23760W        W42614   9.835   1.110  12.686 -0.0891  0.1335 -0.4420
23761W        W42615   3.466   5.564   5.056 -0.0466  0.2301  0.0382
23762W        W42616   7.919  13.973   0.778  0.0540  0.0133 -0.2799
23763W        W42617   0.031   9.349   5.055 -0.2182 -0.1001  0.2504
23764W        W42618   7.725   8.361   0.181  0.1253  0.0728 -0.0094
23765W        W42619   7.895   1.189   4.544 -0.0596  0.0895  0.0774
23766W        W42620   3.310   4.762   0.221  0.3258 -0.2454 -0.0580
23767W        W42621  15.306   0.884  16.871 -0.1035 -0.1495 -0.2885
23768W        W42622   8.449  15.011   1.339  0.1420 -0.1712 -0.1606
23769W        W42623  10.637  12.975  17.291 -0.0928  0.0093 -0.1318
23770W        W42624   1.752   8.068   1.057 -0.1233 -0.0805  0.1145
23771W        W42625   7.783   7.394   2.467  0.0487  0.0187  0.1095
23772W        W42626   5.225   6.037  15.724  0.2441  0.3274 -0.0759
23773W        W42627  10.031  14.482  15.333 -0.1659  0.1653 -0.2325
23774W        W42628  13.046  10.716  15.418 -0.0517 -0.0989  0.4018
23775W        W42629   2.657  10.390   2.078 -0.1501 -0.1542 -0.2819
23776W        W42630  12.402  15.100   1.092  0.1716  0.0238  0.1633
23777W        W42631  12.145   7.892   2.271 -0.1497  0.1421 -0.0741
23778W        W42632   0.963   3.956   3.753  0.1711  0.0878 -0.1860
23779W        W42633  10.760   6.507   3.813  0.2085  0.1612  0.2572
23780W        W42634   5.726   2.219  15.343  0.3156 -0.3070 -0.2128
23781W        W42635  14.296  13.282   3.610 -0.0638 -0.0984  0.2865
23782W        W42636   6.367   2.652   4.400  0.4731  0.1453 -0.0465
23783W        W42637  13.327  15.810  15.291  0.2017  0.5655 -0.2235
23784W        W42638  15.738   3.085  12.087 -0.2707  0.3767 -0.0572
23785W        W42639  13.399   8.615   2.377 -0.3531  0.3077 -0.1208
23786W        W42640  16.315  10.556   2.782 -0.1611 -0.0236  0.1339
23787W        W42641   1.835   9.451  17.350  0.2552 -0.3082 -0.2887
23788W        W42642   8.258  14.977   0.077 -0.1429 -0.1728  0.0653
23789W        W42643  10.384  10.277  14.564  0.1073 -0.1194  0.2037
23790W        W42644  15.942  17.098   4.370  0.0668  0.2107  0.0400
23791W        W42645   9.258   1.868  17.340  0.0705 -0.1676  0.0949
23792W        W42646   1.636   3.051  12.183  0.0299  0.2494 -0.1223
23793W        W42647   0.114   2.267  14.485  0.2859  0.3480  0.2459
23794W        W42648  12.396  15.791  17.092  0.1345 -0.2346 -0.1546
23795W        W42649  12.531   4.888  15.824 -0.0892  0.0718 -0.2315
23796W        W42650   8.184   5.749  12.731  0.1308  0.0618 -0.1276
23797W        W42651  16.486   8.997  13.675 -0.0394 -0.0729  0.0443
23798W        W42652  17.213   4.858  15.381 -0.0988 -0.1714  0.2864
23799W        W42653  15.050   5.902  13.818 -0.0245 -0.0552 -0.2924
23800W        W42654  10.899  10.706  14.635  0.2351  0.0903 -0.2483
23801W        W42655   4.339   0.981  16.969 -0.0901  0.0414 -0.0653
23802W        W42656   2.951  15.745   2.402 -0.0190 -0.4195 -0.1344
23803W        W42657   3.614  12.242  16.521 -0.3203  0.1454 -0.1130
23804W        W42658  12.417   4.916   2.818 -0.0376 -0.1666  0.0849
23805W        W42659   6.207  12.522  13.322 -0.1178 -0.1685  0.0041
23806W        W42660   4.496   0.444   0.759  0.2321  0.0538 -0.2797
23807W        W42661   2.028   5.576  14.071  0.4091 -0.2610  0.2332
23808W        W42662  14.580  16.242  17.263  0.0439  0.4937  0.0998
23809W        W42663   8.398   3.388  16.360  0.0570  0.0700  0.2712
23810W        W42664   2.389  16.608   1.149 -0.2641  0.1872  0.1634
23811W        W42665   3.629   1.882  14.890  0.0111  0.2185  0.1085
23812W        W42666  11.780  14.394  13.872 -0.2074  0.0058 -0.0781
23813W        W42667  13.357   2.429   4.810  0.2700  0.0821 -0.1374
23814W        W42668   3.547   5.303  13.672 -0.1273  0.4771  0.1258
23815W        W42669  12.386   1.900  13.497  0.0216  0.2150  0.0403
23816W        W42670   8.115   7.833  13.775  0.0416 -0.2971  0.3443
23817W        W42671   3.686  12.053   1.574 -0.0840 -0.1871  0.1109
23818W        W42672  15.442  15.933  15.133  0.0804  0.2695 -0.0087
23819W        W42673   4.838   5.585  14.008  0.3396  0.1012  0.0376
23820W        W42674   1.090   6.036  16.937  0.3698  0.2465 -0.1304
23821W        W42675  15.264   3.568  16.990 -0.3531 -0.4160 -0.0576
23822W        W42676   2.846   5.585   2.233  0.0610 -0.0994  0.0889
23823W        W42677   2.415   7.332   0.017 -0.1029 -0.2226 -0.1553
23824W        W42678   7.827  12.780  13.819 -0.3313  0.0978 -0.1337
23825W        W42679  16.473  10.345   2.364  0.1460 -0.1745 -0.1229
23826W        W42680   2.825  14.986   4.535 -0.2382  0.0695  0.1797
23827W        W42681  15.528  13.354   4.322 -0.0144 -0.0286 -0.2392
23828W        W42682   8.415   9.046  12.136 -0.0465  0.1966 -0.1438
23829W        W42683   4.302   1.134   4.306 -0.0453  0.1570 -0.0435
23830W        W42684  11.443  10.330  13.012 -0.0992  0.1185 -0.0571
23831W        W42685  14.362   7.507  16.231  0.0567 -0.1858 -0.3697
23832W        W42686  14.822  14.670   0.779 -0.2609 -0.0807  0.2868
23833W        W42687   6.115  10.648  15.847  0.2566  0.2261 -0.0388
23834W        W42688  10.422   9.858  14.865 -0.0900 -0.0021  0.1017
23835W        W42689   4.599   2.318  15.721  0.0687 -0.0824 -0.1357
23836W        W42690   3.833   4.912  13.864  0.0030 -0.1847  0.0399
23837W        W42691  14.568   1.358  14.531 -0.2889  0.0358 -0.1112
23838W        W42692  11.196   4.882  12.261 -0.0333 -0.1812 -0.2382
23839W        W42693  14.134  11.994   0.888 -0.2830 -0.1755  0.0553
23840W        W42694   7.446   0.400  15.739  0.1378  0.1186 -0.0766
23841W        W42695   2.528   7.360  15.522 -0.0998  0.2124  0.2614
23842W        W42696   3.833   2.896  15.633 -0.0296  0.3709 -0.0300
23843W        W42697   1.055  14.885  14.501 -0.0903 -0.1465 -0.0191
23844W        W42698   8.600  11.103   3.366 -0.0647 -0.0686  0.0287
23845W        W42699   9.858  10.158   5.082 -0.1333  0.1389 -0.0683
23846W        W42700   8.942   1.749   1.588  0.0191  0.0629  0.2700
23847W        W42701   5.800   7.545  15.521  0.3562  0.1058 -0.2166
23848W        W42702   0.066  15.306   1.629 -0.2105 -0.3220 -0.4050
23849W        W42703  14.978  12.938  15.016 -0.2617 -0.0800 -0.0162
23850W        W42704   3.870   7.137   1.479  0.0234 -0.1180 -0.0526
23851W        W42705  17.140  13.298   3.550  0.0666  0.0273  0.2465
23852W        W42706   7.939  13.175   1.106  0.0105 -0.1090  0.0539
23853W        W42707  12.305   5.131   0.497  0.0875  0.1250  0.2137
23854W        W42708  10.098  16.198   0.689 -0.0805  0.1434  0.2634
23855W        W42709  10.567  11.674   3.571  0.1440  0.2068 -0.0937
23856W        W42710  10.454  12.986  12.730  0.2434 -0.0758 -0.3370
23857W        W42711  12.000  13.476   2.786  0.1330  0.0880  0.0066
23858W        W42712   7.798   5.741  13.642 -0.2196 -0.2000 -0.3399
23859W        W42713  11.861   4.191  14.248  0.0017  0.2631 -0.0480
23860W        W42714  11.163  15.323   1.924  0.0634 -0.3495 -0.0590
23861W        W42715  14.119   8.247   4.247 -0.0891  0.0910 -0.3984
23862W        W42716   6.597   6.820   0.091  0.0228  0.1199 -0.0048
23863W        W42717   8.389  13.781   0.646 -0.0314 -0.0064  0.0487
23864W        W42718  10.608  14.906  12.771  0.1724  0.1013 -0.1401
23865W        W42719  10.641   9.606  13.918 -0.2099  0.2217  0.0812
23866W        W42720   1.574  14.582   3.993  0.0468  0.0474 -0.0509
23867W        W42721  13.072  11.863   0.868 -0.1106 -0.0010  0.0480
23868W        W42722   5.423   7.365   2.202 -0.3245  0.0846 -0.0208
23869W        W42723   3.751   2.558  14.483  0.0062  0.1921 -0.2367
23870W        W42724  11.475   2.378  13.240 -0.2961  0.0949  0.1062
23871W        W42725   1.665   6.395   1.369  0.1469 -0.1530  0.0805
23872W        W42726   2.058  10.609  13.905  0.2378 -0.0117  0.1415
23873W        W42727   3.082   5.002   0.582 -0.0501 -0.0005  0.1555
23874W        W42728   2.086  13.472  16.036 -0.0012  0.2424 -0.0291
23875W        W42729   9.213   8.168   5.070  0.0946 -0.1587 -0.0591
23876W        W42730  11.447  13.941  16.412  0.1014  0.0907 -0.0358
23877W        W42731  11.526  12.852  15.008  0.0688 -0.1004 -0.1841
23878W        W42732   8.614  10.144  15.272 -0.3698  0.1754 -0.0428
23879W        W42733  13.703   8.580   3.532  0.2581  0.2703  0.0670
23880W        W42734  14.512   6.611   2.101 -0.2258 -0.3638  0.0530
23881W        W42735   2.761  11.879   4.702  0.1459  0.0858  0.0496
23882W        W42736  13.616   9.551   3.865  0.2504  0.1478  0.2744
23883W        W42737   5.809  10.237  14.349 -0.0425 -0.1837 -0.0131
23884W        W42738  15.718  13.142  16.419 -0.3570  0.1401 -0.2118
23885W        W42739  16.122   6.098  16.663  0.0612  0.2073  0.1927
23886W        W42740   1.163   9.892   5.339 -0.2064  0.3348  0.1530
23887W        W42741  15.237   3.097   0.929 -0.1208 -0.1670  0.0142
23888W        W42742   7.761  14.455   5.047 -0.0285  0.1465  0.0144
23889W        W42743   5.837   5.496  12.434  0.0063  0.2737 -0.2345
23890W        W42744   1.359  12.346   2.034  0.3150 -0.0564 -0.1124
23891W        W42745  14.131  16.895   2.748  0.2346  0.0206  0.0731
23892W        W42746  16.544  11.665   1.401 -0.1346  0.1846 -0.0560
23893W        W42747   5.938  11.314  15.344 -0.4127 -0.3526 -0.1327
23894W        W42748   7.647   1.972  14.055 -0.0637 -0.0631  0.0794
23895W        W42749   7.576   0.600  13.957 -0.1527  0.2678 -0.0759
23896W        W42750   4.682  11.981   3.479  0.0226  0.0938  0.1139
23897W        W42751  12.765   7.285  15.476 -0.1907 -0.0668  0.1317
23898W        W42752   7.501   7.841  14.421  0.0173 -0.1784  0.3244
23899W        W42753   8.111   3.815   5.011 -0.1154 -0.2306  0.0785
23900W        W42754   3.219   5.858  15.880 -0.2492  0.0152 -0.0610
23901W        W42755   7.984   9.628  15.082 -0.3265  0.2316 -0.0872
23902W        W42756   4.071  13.864  17.373 -0.0337  0.0977  0.0749
23903W        W42757  12.731   1.822  15.365 -0.1104 -0.1561  0.1466
23904W        W42758   8.932  15.348   3.343  0.1315  0.0584 -0.1388
23905W        W42759  16.949  17.346   2.544  0.2517 -0.2183  0.1331
23906W        W42760   2.084   2.419   2.229 -0.0745 -0.3338  0.0407
23907W        W42761  12.852  15.982  14.882 -0.2630  0.0353  0.0173
23908W        W42762   3.546   8.616   3.371 -0.1602 -0.3020 -0.0202
23909W        W42763   6.834   2.092  14.475  0.0748 -0.2862 -0.1031
23910W        W42764   6.569  15.061  14.425  0.0621 -0.1256  0.1879
23911W        W42765   0.553  12.994   2.214 -0.1371 -0.0526 -0.1095
23912W        W42766  16.514   1.390   4.001 -0.0100  0.0671  0.1634
23913W        W42767   3.856   9.246  13.675  0.0446  0.2370  0.2391
23914W        W42768  12.871  10.546   0.699  0.2216 -0.1145  0.2888
23915W        W42769  17.401   8.694  12.190  0.2170 -0.2171 -0.1166
23916W        W42770   0.229   8.655  13.203  0.0986 -0.3311 -0.3428
23917W        W42771  17.329  17.074   4.248 -0.0644 -0.1087  0.1087
23918W        W42772  10.088   0.513  15.978 -0.1041  0.0723  0.3115
23919W        W42773   7.067  10.858  16.643 -0.0384  0.0967 -0.0957
23920W        W42774  11.673  15.827   3.161 -0.0909  0.2040  0.0903
23921W        W42775  16.997   0.126  15.232  0.0862 -0.3876  0.2260
23922W        W42776  17.103   8.926   0.817  0.1880  0.0151  0.1710
23923W        W42777  12.794   3.478   0.170 -0.1393 -0.2350 -0.2657
23924W        W42778  15.261   4.898  13.592 -0.0870  0.1777 -0.1567
23925W        W42779  15.275  16.384   4.525 -0.1433 -0.2611  0.2247
23926W        W42780   3.330  13.469   3.546 -0.2533  0.2181  0.3707
23927W        W42781   6.944   0.857   1.460  0.2071  0.0421  0.1625
23928W        W42782  16.284   9.237  12.723  0.1495  0.3134  0.0088
23929W        W42783   1.216   7.367  12.716 -0.1406 -0.1208  0.2568
23930W        W42784   4.061   4.572  14.174 -0.0453 -0.0011 -0.1416
23931W        W42785  17.365  13.967   2.991 -0.0077  0.2818 -0.0644
23932W        W42786   1.215  15.710  15.567 -0.2227 -0.2040  0.1287
23933W        W42787  16.739  13.784  15.420 -0.2409  0.0681  0.0003
23934W        W42788   1.839  16.262   1.136 -0.3496 -0.0380  0.0933
23935W        W42789   3.820  12.829  14.864  0.0351 -0.0388  0.3003
23936W        W42790  10.125  15.949  15.176 -0.1728 -0.0724 -0.0526
23937W        W42791  11.827  14.312  17.042  0.0240  0.0231 -0.2754
23938W        W42792   9.488   4.976   1.199  0.0551  0.1061  0.3405
23939W        W42793  13.963  12.043  13.318 -0.0750  0.1983 -0.0976
23940W        W42794   1.068   5.169   5.495  0.3109  0.1797 -0.3073
23941W        W42795   6.650   8.806   4.851  0.0830  0.1799 -0.1774
23942W        W42796  16.461   8.788   4.637  0.2845 -0.1553  0.1774
23943W        W42797  17.237  16.228  14.063 -0.0702 -0.0662  0.0592
23944W        W42798   0.476   3.866  16.419 -0.0274 -0.2197 -0.0931
23945W        W42799   1.566  12.928   5.052 -0.1496  0.1239 -0.1086
23946W        W42800   0.713  11.139  12.991  0.1186  0.0500 -0.0275
23947W        W42801   4.117  15.269  13.578  0.1413  0.1140  0.1729
23948W        W42802   5.381   8.716  12.957  0.0429 -0.2267 -0.1277
23949W        W42803   6.795  14.680  13.338 -0.0881 -0.1022 -0.0030
23950W        W42804   1.731  10.547  12.521  0.2268 -0.3196 -0.0226
23951W        W42805   2.987   8.040   1.042 -0.1978  0.2254 -0.2199
23952W        W42806   2.619   1.875   3.217  0.1128  0.1120 -0.2273
23953W        W42807  16.392   8.202  14.329 -0.2982 -0.3694 -0.0142
23954W        W42808  10.543   0.543   0.017 -0.2594  0.0332 -0.0106
23955W        W42809   2.016  12.013   1.898  0.1688  0.0283  0.0992
23956W        W42810   0.322   7.653   2.734 -0.0135  0.0616 -0.2111
23957W        W42811   9.158   1.011   1.255  0.2763  0.0560  0.0203
23958W        W42812   2.858   4.279   3.539  0.0475 -0.0931  0.0899
23959W        W42813   4.584   7.795   1.986 -0.1770  0.4225  0.0572
23960W        W42814  12.193   0.189  15.107  0.0418 -0.1885  0.1522
23961W        W42815   4.298   3.082  13.007  0.2751 -0.1127  0.3016
23962W        W42816  13.481   4.840   1.949 -0.2473 -0.0555  0.2302
23963W        W42817   8.937  13.429  12.493 -0.0309 -0.2369 -0.1734
23964W        W42818   3.749   7.786   1.258 -0.0245  0.0730  0.1482
23965W        W42819  16.032   8.599   3.263 -0.1832 -0.0797  0.1140
23966W        W42820   3.883   9.131  16.509 -0.1988 -0.0396  0.0589
23967W        W42821  11.603   2.189   0.590  0.0082  0.2247 -0.1087
23968W        W42822   7.767   9.149  15.709 -0.0036 -0.0226  0.1094
23969W        W42823   0.385   5.860  14.320 -0.1334 -0.0104  0.0800
23970W        W42824   0.000  14.215  16.839  0.0708  0.0813  0.2086
23971W        W42825  11.057   1.851   1.818 -0.1193  0.2072 -0.0409
23972W        W42826  15.217   3.369   5.718 -0.0143  0.0646 -0.0342
23973W        W42827  15.261  14.296  13.940 -0.0376  0.3227  0.2682
23974W        W42828  11.934  14.128   4.688  0.4781 -0.0460 -0.2121
23975W        W42829  13.724   2.841   5.105 -0.0913 -0.1367 -0.0575
23976W        W42830   3.256   2.830   3.080  0.1741  0.0107 -0.2466
23977W        W42831   6.115  12.712   2.176 -0.3517 -0.0844  0.0310
23978W        W42832   4.242  16.136  15.080 -0.0754 -0.1704  0.1019
23979W        W42833   4.055   9.807   3.984 -0.0169 -0.2207 -0.2263
23980W        W42834   3.736  13.999  14.081  0.1086 -0.1644 -0.1791
23981W        W42835  11.740   6.234   2.649 -0.0654 -0.1689  0.2756
23982W        W42836   7.894  14.322  15.452  0.0161  0.0281 -0.0503
23983W        W42837   5.408   1.370  13.021 -0.1755 -0.3385  0.0437
23984W        W42838  14.545  11.179   0.433  0.1944 -0.0452  0.0073
23985W        W42839   2.135   2.373   4.354  0.0801 -0.1988  0.3196
23986W        W42840   7.827   9.382   4.326 -0.0953 -0.0099 -0.1651
23987W        W42841  16.978   5.196   2.005  0.0085  0.2735 -0.1630
23988W        W42842   8.664  12.287   4.002 -0.0789  0.2592 -0.1439
23989W        W42843   6.245  10.351   2.246  0.1063  0.1182  0.3987
23990W        W42844   0.440  13.422   4.179  0.1860  0.0529  0.2922
23991W        W42845   5.940   2.375  12.093  0.0424  0.1361  0.1153
23992W        W42846   7.609   6.517  12.749 -0.1529 -0.1553  0.1756
23993W        W42847   4.026  13.785   0.957  0.1424  0.1337  0.0822
23994W        W42848   9.746   9.621   1.356  0.0337  0.1375 -0.2789
23995W        W42849   5.106   6.424   4.097 -0.1292 -0.0425 -0.2757
23996W        W42850   7.806  15.184  15.376  0.1586  0.0227 -0.0567
23997W        W42851  14.111  17.021  14.713 -0.0282 -0.0457  0.3549
23998W        W42852  14.384   6.014   1.044 -0.0200  0.0321 -0.1002
23999W        W42853   7.849  11.006  12.276 -0.1879  0.2776 -0.1464
24000W        W42854   3.391   3.883   4.575  0.2122 -0.1704  0.0792
24001W        W42855   2.806   4.242   2.616  0.0041 -0.0867  0.2778
24002W        W42856   7.228  12.583  12.437  0.2436  0.0418  0.2136
24003W        W42857   4.617   1.056  11.452  0.0401 -0.1917 -0.2126
24004W        W42858   2.742   5.126  17.105 -0.0533 -0.1804  0.1671
24005W        W42859   2.522   4.299   4.801  0.1261 -0.2139  0.0352
24006W        W42860   1.466   0.860   2.492 -0.0604 -0.3208  0.1646
24007W        W42861  17.356   7.641  12.554 -0.1011  0.1927  0.2403
24008W        W42862   2.299   1.063  13.923 -0.0671  0.4018  0.3543
24009W        W42863   1.277   1.438  15.683 -0.0128 -0.0291  0.0705
24010W        W42864  14.218  13.179  15.064 -0.0427  0.0182 -0.2763
24011W        W42865   7.518   6.823   0.582  0.2512  0.0629  0.0676
24012W        W42866   1.425  11.843  14.006 -0.2388  0.0458 -0.1201
24013W        W42867  16.451   8.420  15.488  0.0749 -0.1184  0.1615
24014W        W42868   7.613   9.994  17.256 -0.3376 -0.2806  0.2553
24015W        W42869   9.508   2.861   0.068 -0.2352 -0.0120 -0.0150
24016W        W42870   9.951  14.443   0.336  0.1515  0.0003  0.0097
24017W        W42871  15.244  10.983   1.153  0.2799 -0.0947  0.1056
24018W        W42872   4.903  16.608  13.871  0.3277  0.0736  0.1082
24019W        W42873  11.431  13.126   1.989  0.1215 -0.1523 -0.2057
24020W        W42874   1.478  11.209  14.881 -0.3348  0.2194 -0.3777
24021W        W42875  12.293   8.269   0.613 -0.4054  0.1944  0.0329
24022W        W42876   8.695   6.637   1.035 -0.1304  0.1244 -0.1851
24023W        W42877   9.889   0.084   0.754 -0.4521  0.0202  0.1104
24024W        W42878   1.112   2.732  14.109 -0.2802  0.2035 -0.1993
24025W        W42879   0.359  16.700   5.755  0.0597 -0.0048 -0.0203
24026W        W42880   8.854  11.097  17.457  0.1632  0.0470  0.2556
24027W        W42881  16.534   5.661   3.376 -0.0833  0.0633 -0.0948
24028W        W42882   5.366  11.818   4.915 -0.0129 -0.0287 -0.0217
24029W        W42883  15.523   6.828  15.125  0.0943  0.1085 -0.2268
24030W        W42884  11.850   8.268  14.880 -0.1223  0.2034 -0.0693
24031W        W42885  10.829  15.072  13.152 -0.0199 -0.0037  0.0959
24032W        W42886  15.914   7.097  15.745 -0.0213 -0.6107 -0.0796
24033W        W42887   9.504   4.012   5.200  0.0494 -0.1118 -0.1601
24034W        W42888  17.179   9.649  14.812 -0.1248 -0.0058 -0.0918
24035W        W42889  10.275  10.721   4.338 -0.0980 -0.2428 -0.2626
24036W        W42890  14.814   1.199   3.882 -0.6459 -0.0598 -0.0644
24037W        W42891  15.362  12.357   0.914 -0.0070  0.0813  0.1686
24038W        W42892   6.399  14.956  12.906  0.0385 -0.0662  0.1072
24039W        W42893   9.946   3.872  15.636 -0.0222 -0.2545  0.0547
24040W        W42894   8.192  14.031  13.143  0.1583  0.1502  0.0732
24041W        W42895  11.329  15.534   5.533 -0.0091  0.1335 -0.1352
24042W        W42896  16.199  15.528   2.412  0.0379 -0.2190 -0.0725
24043W        W42897   2.001   3.354   4.679 -0.1930 -0.1096 -0.0264
24044W        W42898   8.712  11.272  13.380 -0.0137 -0.1982 -0.4335
24045W        W42899  10.342  10.014  13.113 -0.1266 -0.1336  0.0835
24046W        W42900   6.240   1.974  16.097 -0.4126 -0.0479 -0.0202
24047W        W42901   5.851   3.315   4.215 -0.1709  0.0675 -0.1911
24048W        W42902   5.933   6.016   3.600 -0.1849 -0.3865 -0.0393
24049W        W42903  10.650   0.823  16.044  0.1441  0.4026 -0.1031
24050W        W42904  10.848  15.641   4.682 -0.1545  0.0652  0.0283
24051W        W42905   2.773   4.830  16.659  0.3246 -0.1179 -0.0254
24052W        W42906  16.572   2.947   4.002  0.0337  0.0981  0.0503
24053W        W42907  13.669   5.526  15.310 -0.0622 -0.4951 -0.1758
24054W        W42908   5.163   8.468  15.770  0.1032 -0.1418 -0.1926
24055W        W42909   7.235   8.787   4.035 -0.3545 -0.0250 -0.1452
24056W        W42910   7.559  14.285   1.086  0.1423 -0.1154 -0.0242
24057W        W42911   8.224  13.906  12.633 -0.3035  0.0478 -0.1448
24058W        W42912   1.748   8.997   5.185 -0.1962  0.1147 -0.0753
24059W        W42913  16.834  13.770   3.053 -0.0405 -0.0869  0.0207
24060W        W42914   3.277   0.826  13.830 -0.2337  0.0772 -0.0698
24061W        W42915  16.185  12.632   1.943 -0.4052  0.1300 -0.1204
24062W        W42916   5.868  16.979  12.397  0.0893 -0.1828 -0.0836
24063W        W42917   8.285   7.467   1.513 -0.1303  0.0116  0.2697
24064W        W42918   6.979   0.402   1.745  0.1745  0.1410 -0.0651
24065W        W42919   2.456   6.740   0.303  0.0074 -0.1295 -0.2780
24066W        W42920   5.860   6.818  14.063  0.1235  0.1149 -0.2418
24067W        W42921   2.561   6.008  15.193 -0.1250  0.0647 -0.0552
24068W        W42922   9.618   4.589   1.592 -0.0800 -0.0356 -0.0142
24069W        W42923  15.472  13.673  16.249 -0.1049 -0.1720 -0.0049
24070W        W42924  15.988  10.634   1.495  0.0960  0.0731  0.2899
24071W        W42925  12.710   0.098   1.377  0.1311 -0.0262  0.0656
24072W        W42926  13.875   8.560  15.837 -0.2275 -0.0052  0.0296
24073W        W42927   8.636  11.448  16.214  0.1070 -0.2702 -0.1838
24074W        W42928  11.200  13.806  15.090  0.0223 -0.0430  0.2483
24075W        W42929   9.446  16.815   2.436 -0.2546 -0.1768  0.4125
24076W        W42930  16.278   5.061   2.739  0.2237  0.0884 -0.0589
24077W        W42931  14.060   9.174   5.151  0.0368  0.1781  0.5233
24078W        W42932  16.056   9.358   2.054 -0.1237  0.0920  0.0314
24079W        W42933  11.925   8.350   2.524  0.0435 -0.2349  0.3735
24080W        W42934   6.646  13.219   1.681  0.3253  0.0990  0.1450
24081W        W42935  13.541   6.888   3.398 -0.2613 -0.5109  0.0544
24082W        W42936   9.714  15.254   4.172  0.0503 -0.1346  0.1548
24083W        W42937   2.391   4.379  15.521 -0.3971  0.1218  0.0478
24084W        W42938  13.352  14.185   0.419  0.1727 -0.3162  0.1258
24085W        W42939   8.525   4.794   3.296  0.2640  0.1905 -0.1311
24086W        W42940   5.801  15.312  17.184 -0.0726 -0.4094  0.0736
24087W        W42941   3.681  17.158   4.017 -0.1362 -0.2887  0.0250
24088W        W42942   7.242  13.821  13.017  0.2199 -0.0077  0.0348
24089W        W42943   9.381   9.843   4.957  0.0216 -0.1468  0.0613
24090W        W42944   8.344   5.249  15.809 -0.3259  0.0530  0.0165
24091W        W42945  15.110   3.143  13.124 -0.2702  0.1854 -0.1135
24092W        W42946  10.660   6.417  16.295  0.0839  0.0245  0.0397
24093W        W42947   6.133   9.969   0.059 -0.1347 -0.1331 -0.2632
24094W        W42948   3.926  12.594   2.463 -0.1139 -0.1614 -0.1440
24095W        W42949   8.614   4.848  16.094  0.1758 -0.1597  0.1270
24096W        W42950   0.288   3.590  16.948 -0.3838  0.0422 -0.0312
24097W        W42951  15.715  16.652  13.356 -0.3562 -0.0597 -0.1897
24098W        W42952   9.321  15.889  14.559 -0.0312 -0.0806  0.2831
24099W        W42953  17.261   8.055  16.763 -0.0002  0.1709  0.1819
24100W        W42954   5.018  10.079  13.306 -0.1870 -0.2751  0.1393
24101W        W42955   3.084  11.074  15.908  0.1920  0.0091 -0.0878
24102W        W42956   6.391  16.177  16.834 -0.0379  0.1051  0.3399
24103W        W42957  17.147  11.440  15.550 -0.0555 -0.1188  0.2032
24104W        W42958   9.534  15.060  15.915  0.0671 -0.2199 -0.0114
24105W        W42959   5.840  13.126  12.544 -0.1322 -0.1875 -0.0930
24106W        W42960  11.439   2.617   4.998  0.0820 -0.0705 -0.0071
24107W        W42961   0.427   8.377   4.596  0.2539 -0.1315 -0.2322
24108W        W42962  14.090   5.676   1.336  0.3268 -0.0501  0.3557
24109W        W42963  16.290   5.921  15.967 -0.1930  0.0571 -0.0726
24110W        W42964   9.769   9.203  15.097  0.1267  0.0518  0.0479
24111W        W42965   9.433  13.864  15.696 -0.0478 -0.0681  0.3737
24112W        W42966   5.844  11.888   2.075  0.2272 -0.0542 -0.0240
24113W        W42967  13.175  16.120  14.013 -0.0515  0.3087  0.0728
24114W        W42968   2.507   8.816  15.874 -0.0246  0.2371  0.1275
24115W        W42969  16.287  14.363   4.833  0.3400  0.2875 -0.0724
24116W        W42970   2.401   8.464  12.360 -0.0123  0.0412 -0.3159
24117W        W42971   9.850  13.987   2.203  0.1181 -0.0143 -0.0598
24118W        W42972  16.396  14.343   1.994 -0.1349 -0.1016 -0.3301
24119W        W42973   6.651  16.004  14.543  0.3800 -0.0842  0.0676
24120W        W42974  15.046  16.472  15.441  0.0890  0.0209  0.2112
24121W        W42975   9.353  16.593   0.179  0.1741  0.1490  0.1647
24122W        W42976  13.680   7.978   4.751 -0.1308 -0.2308 -0.0889
24123W        W42977   9.862  12.638   1.807 -0.2699  0.1740 -0.1452
24124W        W42978  10.001  12.015  13.267 -0.1369 -0.0073  0.1927
24125W        W42979   3.278  12.266   0.118  0.0741  0.1130 -0.0184
24126W        W42980   0.979  11.525   5.475  0.0652  0.3137  0.1708
24127W        W42981   8.184   6.872  15.253  0.1597 -0.3417  0.1544
24128W        W42982   4.463   1.429   4.762 -0.2538  0.0145 -0.1291
24129W        W42983   0.715  16.047   0.261  0.0226 -0.0663  0.1782
24130W        W42984   0.640   4.647  15.022  0.0567  0.1458  0.0605
24131W        W42985   9.942   6.461   4.847  0.1238  0.0707  0.4172
24132W        W42986   5.070   4.329   3.155  0.3080  0.2052 -0.1334
24133W        W42987   9.747   2.389   4.378  0.0829 -0.0162  0.0717
24134W        W42988  15.500   2.079  14.793 -0.0889  0.0364  0.1114
24135W        W42989   6.354   6.723   0.501 -0.1058 -0.0602 -0.0547
24136W        W42990  12.229   8.244  16.557 -0.0223  0.2936 -0.0573
24137W        W42991   8.222   9.620  13.495 -0.5614 -0.0158  0.1264
24138W        W42992   7.979   6.228   3.927 -0.0844  0.2833 -0.0212
24139W        W42993   1.514  11.439   2.885 -0.1575  0.2076 -0.1401
24140W        W42994  15.506  11.227   4.990 -0.1653 -0.2820  0.0964
24141W        W42995  16.146  14.503   2.380  0.2896 -0.0261  0.1465
24142W        W42996  11.499   4.341   2.124  0.2684 -0.1650  0.0697
24143W        W42997  13.385   8.236  14.458  0.1328  0.2608  0.1303
24144W        W42998  11.018  11.990   2.567 -0.3469  0.1458  0.2163
24145W        W42999   4.159  15.901   4.176 -0.5762 -0.2139  0.0881
24146W        W43000  16.216  16.234   1.486 -0.2129  0.0412 -0.2577
24147W        W43001  15.329  10.283   3.427 -0.2658 -0.2297  0.0954
24148W        W43002  14.592  14.541  13.491  0.1895 -0.2145 -0.1862
24149W        W43003   8.001  13.437  12.599  0.0664  0.0725 -0.1890
24150W        W43004  11.308   1.090   3.006 -0.1266  0.2395 -0.1740
24151W        W43005   2.069   8.564   1.401 -0.0957  0.1215 -0.2043
24152W        W43006   4.129  11.921   1.238  0.0429 -0.0995 -0.0353
24153W        W43007  11.009  16.563  12.868  0.1920  0.0994  0.2046
24154W        W43008   4.696  15.636   4.863 -0.3804  0.2500 -0.0131
24155W        W43009  15.141  17.074   2.967 -0.1627 -0.0527  0.2003
24156W        W43010  11.143   4.071   1.786  0.0665 -0.3868 -0.1364
24157W        W43011  16.963   4.576   4.158  0.0058 -0.3559  0.0277
24158W        W43012   8.757   2.018   0.968  0.3656  0.2209  0.1447
24159W        W43013  16.431   7.910   2.296 -0.1553  0.1899 -0.0290
24160W        W43014   1.628   9.163   4.230  0.1669  0.1438 -0.1146
24161W        W43015  12.658  14.595  14.695 -0.0304  0.0050 -0.1567
24162W        W43016  10.707  16.154  13.024  0.2043  0.0098 -0.0090
24163W        W43017   8.748   8.331   2.036  0.0928  0.0062 -0.0944
24164W        W43018   0.578   1.384  16.375  0.0371 -0.1641  0.0618
24165W        W43019   7.534   7.800  16.242  0.3793  0.1449 -0.2529
24166W        W43020   7.870   5.552  15.501  0.1694  0.0894  0.0522
24167W        W43021   7.080   7.638   2.161 -0.1053  0.1367 -0.0324
24168W        W43022  16.802  10.176   5.037 -0.3056 -0.0207 -0.1599
24169W        W43023   0.330  14.897   2.875 -0.1815  0.0215 -0.0263
24170W        W43024  15.866   8.525  16.800  0.1026 -0.0845 -0.3387
24171W        W43025  15.966   5.812  14.277  0.0552  0.3153 -0.0453
24172W        W43026   9.708   1.356  13.161 -0.3758  0.0778  0.1408
24173W        W43027  11.056   1.694  14.335 -0.0444 -0.1455 -0.0506
24174W        W43028  10.281   2.317  16.368 -0.1766 -0.1218 -0.3055
24175W        W43029   7.831   4.679  15.131 -0.1546 -0.0034  0.2440
24176W        W43030   9.447  12.692   5.760 -0.2559  0.1958 -0.0312
24177W        W43031  14.985  16.965   2.402  0.0131  0.0869  0.2158
24178W        W43032   4.964   8.706  16.643  0.1171 -0.0430 -0.1040
24179W        W43033   9.420  12.352  12.871 -0.0409  0.1296  0.1423
24180W        W43034  16.111  12.680   4.633 -0.1034 -0.1592 -0.0523
24181W        W43035   8.174   3.462   0.543 -0.0466  0.0196  0.1996
24182W        W43036   7.394   1.470   2.562 -0.0537  0.2631 -0.1231
24183W        W43037   6.106  10.846  12.205 -0.0448 -0.0660 -0.1520
24184W        W43038   2.726  10.740   3.877  0.0896 -0.0944 -0.2682
24185W        W43039  15.694   4.891   4.933 -0.1382  0.0278 -0.0963
24186W        W43040  13.877  16.086   4.983  0.1133  0.1935  0.1687
24187W        W43041  12.114  17.352   1.976  0.1183 -0.1698  0.1803
24188W        W43042  16.525  13.899   4.639 -0.3369 -0.0560  0.0402
24189W        W43043   3.118   1.978   0.140  0.0251 -0.1138 -0.1652
24190W        W43044   6.322   1.921  15.268 -0.0551 -0.0320 -0.0908
24191W        W43045   3.631  14.212  14.651  0.5186 -0.0236  0.2281
24192W        W43046   0.987  10.196  17.059  0.1600  0.1461  0.2635
24193W        W43047   0.761   2.896   0.618 -0.1336  0.1471  0.0416
24194W        W43048  11.143  11.858   4.174  0.1365  0.0496  0.1516
24195W        W43049   6.081   1.301   3.839 -0.2653 -0.0939  0.0374
24196W        W43050   1.638  16.394   0.019  0.1850 -0.0903 -0.1599
24197W        W43051  16.530  12.123   1.558 -0.0109 -0.2100  0.1624
24198W        W43052  10.882   7.500   3.776  0.0772 -0.0772 -0.0757
24199W        W43053  12.528  16.075   2.302 -0.2119 -0.0898 -0.3616
24200W        W43054  17.148   9.316  16.803 -0.0737 -0.1635 -0.2036
24201W        W43055   2.976   6.029  14.682 -0.1978 -0.2283 -0.1452
24202W        W43056  12.664  12.815  13.561  0.1890 -0.0366  0.3354
24203W        W43057   4.055  10.805   1.318 -0.1177 -0.2755  0.0539
24204W        W43058   0.321   1.555   1.832 -0.0787  0.2202 -0.0004
24205W        W43059  11.554  17.379   2.663  0.0891 -0.1717 -0.0796
24206W        W43060   7.130   1.661  15.252  0.2658 -0.0624 -0.0707
24207W        W43061  12.820   1.755   5.016  0.0463  0.0551 -0.0655
24208W        W43062  12.580   6.092   2.388 -0.0561  0.0621 -0.1101
24209W        W43063  10.148   1.399   4.406  0.3146 -0.0942 -0.2019
24210W        W43064  15.448   0.586   5.505  0.0236  0.0241  0.0960
24211W        W43065  13.757  14.466  15.693 -0.2282 -0.0502  0.3079
24212W        W43066   2.732   8.875   0.907 -0.2941 -0.0777 -0.1888
24213W        W43067   8.063   5.772   4.865  0.0004  0.4208 -0.1213
24214W        W43068   2.298   5.132  15.068  0.3943 -0.2486  0.0329
24215W        W43069   3.156   1.693   0.786 -0.0762  0.0316  0.0469
24216W        W43070  15.351  11.794   0.580 -0.0514 -0.2509 -0.0323
24217W        W43071   6.849  13.012  16.039  0.1427 -0.0325  0.0288
24218W        W43072  10.181   9.624  14.119 -0.1207 -0.1106  0.0914
24219W        W43073  17.032   4.811  14.906 -0.0121  0.0787  0.0019
24220W        W43074  15.943  11.851   3.952 -0.0130  0.2742  0.1040
24221W        W43075   7.122   8.852   1.231  0.5115  0.1075  0.1449
24222W        W43076   5.423   5.921  15.213  0.3001 -0.4611  0.3029
24223W        W43077   5.582   8.708   4.062 -0.0808  0.0557 -0.0465
24224W        W43078  17.161   9.616   3.864  0.2365 -0.0404  0.1702
24225W        W43079   5.342  13.994  13.458  0.2246 -0.1729  0.1484
24226W        W43080  10.609   2.300   2.104  0.4592  0.0233  0.2309
24227W        W43081   1.471   1.261  13.705  0.0451  0.3003 -0.0601
24228W        W43082   0.562   5.438   5.600  0.1539  0.0646  0.2401
24229W        W43083   1.378   6.951   1.294 -0.0188 -0.3453 -0.0892
24230W        W43084   9.546   2.190  12.826 -0.0216  0.0473  0.0759
24231W        W43085   2.660  11.253   2.722 -0.0294  0.1223 -0.0211
24232W        W43086   9.227  10.954  15.854 -0.0721  0.0811  0.1839
24233W        W43087  12.703   9.711  12.679  0.0881 -0.1891  0.2367
24234W        W43088  10.741   8.944  17.387  0.1547 -0.3599 -0.1075
24235W        W43089  13.715   0.629  15.895  0.1556 -0.0929  0.1483
24236W        W43090  17.116  13.566  15.014 -0.1803  0.2790  0.0055
24237W        W43091   8.071   3.405  13.774  0.2770 -0.1684  0.0668
24238W        W43092   5.164   4.231   4.972  0.1134  0.2823 -0.1037
24239W        W43093   7.559  16.505   0.421 -0.3169  0.1593  0.1101
24240W        W43094   0.027   5.722   5.331  0.3903  0.2451 -0.3264
24241W        W43095   2.670  14.645   5.210  0.0518  0.1778 -0.0648
24242W        W43096   2.697   8.106  16.760  0.1097 -0.0390 -0.4374
24243W        W43097   5.433   8.402   2.014  0.6142  0.1247 -0.0970
24244W        W43098   2.672  15.126   4.004 -0.0034  0.0712 -0.0965
24245W        W43099  12.288   9.855  16.085 -0.0017  0.0437 -0.1381
24246W        W43100   5.571   9.478  13.721 -0.2928 -0.2550  0.0434
24247W        W43101  14.557   8.708   0.686  0.0969  0.3304  0.2624
24248W        W43102  15.186  14.329   4.989  0.1943  0.0268 -0.1401
24249W        W43103   2.412  10.492  14.646  0.0020 -0.2987 -0.2626
24250W        W43104   5.960  15.889   0.503  0.0865  0.0386  0.0777
24251W        W43105  14.926  10.047   1.142  0.0293 -0.1967 -0.1230
24252W        W43106   8.068   7.680  16.076 -0.3077  0.3143  0.0332
24253W        W43107   1.527   3.865  17.313 -0.1156  0.1624 -0.0799
24254W        W43108   4.991   3.837  15.158  0.0188 -0.0774 -0.0644
24255W        W43109   3.995  15.751   1.854  0.0032  0.1214  0.2260
24256W        W43110   7.705   4.817  13.961  0.2148 -0.2494  0.0398
24257W        W43111   9.525   5.632   5.169 -0.2182  0.0580 -0.2985
24258W        W43112  10.838  11.054   5.020  0.0428  0.2323 -0.1814
24259W        W43113   6.068  13.168   4.653 -0.3436 -0.0801 -0.2549
24260W        W43114   7.230   5.273  16.475  0.0435  0.0915  0.0260
24261W        W43115  13.346  12.268   0.796 -0.3380 -0.2225 -0.1282
24262W        W43116  17.275  13.016   4.001  0.3085  0.1652  0.1832
24263W        W43117  12.652   8.817  14.861  0.2481  0.2295 -0.3218
24264W        W43118   4.296   4.557  15.934 -0.0981 -0.2170 -0.0910
24265W        W43119  15.314   1.989   3.717 -0.0243  0.1681  0.1896
24266W        W43120  15.278   9.283   4.307 -0.1207  0.2208 -0.2081
24267W        W43121  11.297   9.364   5.387  0.1095 -0.0683  0.3776
24268W        W43122  15.306  15.406   4.284 -0.0571  0.0186  0.1499
24269W        W43123  14.003   6.669   0.346 -0.1945 -0.0235 -0.1983
24270W        W43124  13.281   3.429   1.228  0.1537 -0.0153  0.0840
24271W        W43125   3.863   3.409  15.633  0.4012  0.0178 -0.2032
24272W        W43126   0.020  10.145  13.052 -0.1393  0.0230 -0.0137
24273W        W43127  16.115   0.915   2.354  0.2261  0.0363  0.0170
24274W        W43128   6.999   1.285   4.683  0.0774  0.0948 -0.1555
24275W        W43129   0.412   3.754   0.685 -0.1506  0.3667 -0.0494
24276W        W43130   4.015  11.855  15.096 -0.1115 -0.0862 -0.2412
24277W        W43131   2.812   9.231   2.223  0.1107  0.0172 -0.0321
24278W        W43132   8.687   4.496  14.309  0.0483 -0.2008 -0.0107
24279W        W43133  11.247   5.775   2.958 -0.1566 -0.1259  0.0764
24280W        W43134   5.560  12.181   3.863 -0.0724  0.0180  0.2466
24281W        W43135   1.942  16.256  14.597  0.1196 -0.0774 -0.1236
24282W        W43136   6.717  13.892  17.477  0.0231  0.1935 -0.2430
24283W        W43137   9.483  16.350   4.840 -0.1258 -0.1265 -0.1167
24284W        W43138   1.778  16.545   4.773  0.1620 -0.0021 -0.1269
24285W        W43139   3.863  15.166   2.475 -0.0656 -0.1766  0.1441
24286W        W43140  13.730  14.905   3.037 -0.2813  0.3601 -0.0134
24287W        W43141   5.242   5.647   0.889 -0.1130  0.1073  0.0874
24288W        W43142  14.723   2.865   0.554  0.0159  0.0607  0.1197
24289W        W43143   5.340   2.803  14.314  0.2636 -0.0179  0.1589
24290W        W43144  15.386   7.191   1.042 -0.1586  0.0808  0.0261
24291W        W43145   1.073  16.264  15.680 -0.3404  0.0629 -0.0093
24292W        W43146   6.708  10.177   3.232 -0.0648 -0.0837  0.1412
24293W        W43147   3.446   9.752  16.622 -0.1623  0.0359  0.0860
24294W        W43148   1.500  11.714   3.775 -0.1300  0.0018  0.3844
24295W        W43149  16.243   7.498   5.204  0.3637 -0.0288 -0.3400
24296W        W43150   9.721  13.569  14.822 -0.1643  0.2956  0.1073
24297W        W43151  12.773   3.205   1.923 -0.2196  0.5295 -0.2188
24298W        W43152  11.925   0.682   0.417 -0.1889 -0.1611 -0.1748
24299W        W43153  13.113   8.303  13.398  0.0050  0.0538 -0.4132
24300W        W43154   0.184  16.092  12.747 -0.0527  0.0538 -0.0300
24301W        W43155   5.142  12.155  13.271  0.1919 -0.1882 -0.1379
24302W        W43156   5.601   1.077   2.038 -0.1071  0.0895 -0.2096
24303W        W43157   6.076  14.043   3.699  0.1220 -0.0763 -0.0713
24304W        W43158  15.663   1.882   1.039  0.2606  0.1514 -0.0074
24305W        W43159  15.339   8.431  14.080 -0.4978 -0.4344 -0.1096
24306W        W43160   5.422  15.394  13.647  0.3737 -0.1024 -0.2042
24307W        W43161   1.860   9.965   6.289 -0.3898 -0.0999 -0.1933
24308W        W43162  15.282  11.456   0.072 -0.3361 -0.0768  0.1256
24309W        W43163  12.082  11.886  13.948  0.3211 -0.1853  0.1371
24310W        W43164   6.666  10.596  14.731  0.1802  0.0106 -0.1603
24311W        W43165   8.059   4.820  16.043  0.2750  0.1621  0.1001
24312W        W43166   9.236  11.298  17.260  0.3998  0.2045  0.0140
24313W        W43167   5.452  13.376  17.168  0.0272  0.0266  0.1880
24314W        W43168   9.853   8.753  14.326 -0.4068  0.0578  0.0906
24315W        W43169   2.058   5.510  13.243 -0.1098 -0.0893 -0.0099
24316W        W43170   9.051  16.666   0.713 -0.0790 -0.0660  0.0955
24317W        W43171   9.728   5.185  13.493  0.2596  0.1976  0.0145
24318W        W43172  14.626   4.036  14.485  0.0359 -0.5286  0.1678
24319W        W43173   9.214  16.629   6.356 -0.0085  0.0917 -0.3802
24320W        W43174   5.748   2.557  17.371 -0.1687 -0.0739 -0.1966
24321W        W43175   4.686   8.006  14.997 -0.1630  0.3382 -0.0977
24322W        W43176  11.419   0.720  16.322 -0.0324 -0.0146 -0.1038
24323W        W43177  16.881   2.585  17.304 -0.0779 -0.2131 -0.0328
24324W        W43178  10.369   7.669  16.415  0.2949  0.0125 -0.0339
24325W        W43179   3.902   4.058  14.225  0.2023 -0.0210 -0.0082
24326W        W43180  14.706  11.366  15.154 -0.2700 -0.0001 -0.1065
24327W        W43181   6.779   8.227  15.711 -0.0457 -0.4078  0.1141
24328W        W43182   6.861   9.517   4.781  0.0923 -0.0406 -0.1466
24329W        W43183   4.639  13.448   5.116  0.4916  0.2641 -0.1459
24330W        W43184  16.446   6.765   1.709  0.0283 -0.2898 -0.0439
24331W        W43185  16.847   7.120   2.195  0.2727 -0.0242  0.0470
24332W        W43186  16.173  11.624  13.860 -0.0179 -0.3469  0.0512
24333W        W43187   3.441   5.943   2.759  0.0258 -0.0252  0.0719
24334W        W43188  16.850  15.624   0.799  0.1732  0.4312  0.0399
24335W        W43189   1.902  12.731  12.539  0.1347 -0.1435  0.2225
24336W        W43190  12.489   8.279  14.012 -0.2979  0.0630 -0.2480
24337W        W43191   6.495  13.904  13.120  0.3724  0.1785 -0.0847
24338W        W43192   5.843  16.917   1.215  0.0831  0.2257 -0.1712
24339W        W43193   5.358  16.062  14.375  0.3151 -0.1498  0.2953
24340W        W43194  14.336  15.322   5.069 -0.1598  0.1591 -0.0583
24341W        W43195   3.652   7.944  12.168 -0.3749 -0.0417 -0.0434
24342W        W43196   2.466   5.552   4.944  0.1832 -0.2810 -0.2394
24343W        W43197  10.323  12.579   2.576 -0.3855  0.2666 -0.3702
24344W        W43198   0.486   7.890   3.169 -0.1914 -0.0858 -0.4014
24345W        W43199  10.296   8.852  13.558 -0.1264  0.0806  0.2379
24346W        W43200   2.159   3.400  17.155  0.1340 -0.3159  0.0964
24347W        W43201   4.240   6.497  15.134 -0.4783 -0.1090 -0.1927
24348W        W43202   5.424   2.606  13.367  0.2127 -0.0549  0.1233
24349W        W43203   6.907  12.698  14.838 -0.1144 -0.0520  0.0567
24350W        W43204  11.843   6.758   4.469 -0.0800  0.0212 -0.1788
24351W        W43205  10.541  17.135   2.745 -0.0862  0.3402 -0.0393
24352W        W43206  16.735  13.535  15.844  0.0584 -0.1816 -0.0902
24353W        W43207   2.061  16.519  16.644 -0.2326  0.0749 -0.1722
24354W        W43208   5.314   5.479  13.975 -0.1043 -0.0043  0.3154
24355W        W43209  13.350   6.191   2.043 -0.1198  0.1250 -0.2350
24356W        W43210   2.573   8.278   2.183  0.0519 -0.2974 -0.1674
24357W        W43211   8.842  10.744   2.508 -0.1455 -0.4424 -0.2089
24358W        W43212   4.403   4.656   3.745 -0.0085 -0.1040  0.2814
24359W        W43213   3.754   5.168  15.550 -0.4688  0.2556 -0.1459
24360W        W43214  13.979   7.250   1.263  0.0216  0.1233  0.0524
24361W        W43215  16.720   1.937  16.072  0.1687 -0.0887  0.0738
24362W        W43216  13.716  17.123  16.777  0.0816 -0.1568 -0.0081
24363W        W43217  16.108   5.671  16.920 -0.2026 -0.0987  0.0089
24364W        W43218   4.936  10.690   4.339 -0.0332 -0.0086  0.0615
24365W        W43219   2.588   2.880   0.851  0.2238 -0.0737 -0.1183
24366W        W43220  12.278   2.582   5.134  0.0406  0.1242 -0.2874
24367W        W43221  12.899   3.621  16.209  0.2689  0.1104  0.0228
24368W        W43222   5.446  14.473   0.546 -0.3765  0.2719  0.0941
24369W        W43223  13.786  11.201   4.296  0.1452 -0.0028  0.3586
24370W        W43224   0.067  10.067   4.013 -0.2836 -0.1367 -0.1116
24371W        W43225  16.103  10.416  16.332  0.1672 -0.1592 -0.2207
24372W        W43226  13.786  12.616  15.173  0.3033  0.1106  0.2431
24373W        W43227   6.467  14.376  16.328  0.2118 -0.1177 -0.1395
24374W        W43228   6.654  15.421   0.744 -0.1634  0.1774  0.2475
24375W        W43229  16.866   9.338  16.377  0.0678  0.4954 -0.1006
24376W        W43230  13.154  17.283  14.905 -0.0048  0.1606 -0.1087
24377W        W43231  12.918   0.983  15.103 -0.0939 -0.1208  0.0017
24378W        W43232   9.934  14.506   2.186 -0.0950 -0.0077 -0.0539
24379W        W43233   9.614   9.371   4.788 -0.2463 -0.0606 -0.3881
24380W        W43234  10.303  13.132   4.284 -0.0431  0.1749 -0.2894
24381W        W43235   6.762   5.623  15.028 -0.3509  0.1467  0.1948
24382W        W43236  11.759   8.406  16.351  0.1528  0.0003  0.1241
24383W        W43237  10.778   8.392  17.313 -0.3414  0.0486 -0.1179
24384W        W43238   5.490   6.728   3.870  0.1117 -0.0068 -0.1258
24385W        W43239  13.166  13.788  15.610 -0.2301  0.0784 -0.1030
24386W        W43240  11.016   3.991   5.132  0.1642  0.3426  0.0128
24387W        W43241   8.557  12.617  15.462  0.0941 -0.4961  0.0814
24388W        W43242   0.589   0.147  13.671  0.0279 -0.2194 -0.0259
24389W        W43243   9.846   5.441   1.856  0.5130  0.2787 -0.1799
24390W        W43244   4.027  14.722   1.194  0.0275  0.0256 -0.2035
24391W        W43245   3.721   6.096  14.647  0.0911  0.0901  0.0785
24392W        W43246   4.626   4.721  14.503 -0.1925 -0.0620 -0.0107
24393W        W43247   3.032  15.045  17.359  0.0515  0.3048  0.0931
24394W        W43248  15.862   0.858   5.402 -0.4425 -0.0659  0.1173
24395W        W43249   3.005   1.840  12.377 -0.0537  0.2795  0.0125
24396W        W43250   1.566  12.710   0.010 -0.1739 -0.0695  0.1423
24397W        W43251   1.216   6.498  16.815  0.0939  0.2321  0.1180
24398W        W43252   6.994   4.171  15.072 -0.2500 -0.0685 -0.1238
24399W        W43253  15.939  13.381   1.789  0.2300  0.1911 -0.4086
24400W        W43254   7.715  10.436  13.980  0.1459  0.4093 -0.2436
24401W        W43255   1.562  15.808  12.637  0.2614  0.2082  0.1924
24402W        W43256  11.741  13.739  17.066  0.0781 -0.0074 -0.1092
24403W        W43257  15.584   8.305  15.971 -0.0082  0.0693  0.3117
24404W        W43258  13.569  10.066   3.075  0.4277  0.0721 -0.0975
24405W        W43259   9.421   3.648   3.637 -0.0040  0.0891 -0.0333
24406W        W43260   1.452   6.443   0.090  0.0878 -0.0862 -0.1021
24407W        W43261   8.691   8.965  17.149 -0.2379 -0.1196  0.0341
24408W        W43262   9.199   7.033  12.227  0.0206  0.0654  0.2174
24409W        W43263  14.140   9.054   1.855 -0.0249 -0.0597 -0.1382
24410W        W43264   3.566   6.693   4.274  0.0777 -0.0351 -0.1201
24411W        W43265  14.414   5.274  14.766 -0.0094  0.0397  0.0459
24412W        W43266   1.857  14.215  17.237 -0.2821 -0.0541 -0.1120
24413W        W43267   9.280   3.629   3.073 -0.1717 -0.1103  0.4042
24414W        W43268  10.726  12.919   2.398  0.1580 -0.0591  0.0204
24415W        W43269   2.454   6.450  15.408  0.2966 -0.0444  0.0020
24416W        W43270   8.822   0.322   4.716  0.0706 -0.2389 -0.0231
24417W        W43271  16.708  13.082  17.480  0.0563  0.1584  0.0272
24418W        W43272   4.581  11.026  12.762 -0.0406 -0.0605 -0.2054
24419W        W43273   0.907   9.166  16.052 -0.2075 -0.0391 -0.1899
24420W        W43274   9.230  15.045  14.535  0.0762 -0.3322  0.1214
24421W        W43275  10.467   8.382  13.289 -0.0546  0.1676  0.1787
24422W        W43276   9.273   7.528   1.771 -0.0106 -0.0013  0.6247
24423W        W43277   9.179   7.121  14.198 -0.1753  0.3182  0.1139
24424W        W43278   9.146   6.250   3.081  0.1523 -0.0266 -0.1103
24425W        W43279  14.784   9.598  16.545  0.1922  0.1313 -0.2584
24426W        W43280   4.675  14.040  16.459 -0.1826  0.0979  0.2197
24427W        W43281  14.533   7.199  15.751  0.0751  0.1854  0.2298
24428W        W43282  14.098  14.271  16.559 -0.0547 -0.0644 -0.1748
24429W        W43283   4.549  12.138   0.947 -0.1906  0.0757  0.4573
24430W        W43284  17.199   3.921   3.566  0.0289  0.1894 -0.2273
24431W        W43285   6.461  16.185   1.505  0.2938 -0.2678  0.2533
24432W        W43286   9.116  13.534  14.169 -0.0650 -0.0596 -0.2819
24433W        W43287   5.176   0.934  13.220 -0.2341 -0.2699 -0.1709
24434W        W43288   9.074   2.632  17.385 -0.1522  0.2728  0.1151
24435W        W43289  15.927   8.220  16.343  0.2267 -0.1299 -0.1093
24436W        W43290   9.355   6.373   5.247 -0.1628 -0.2335  0.0054
24437W        W43291   0.293   8.756   1.673  0.1556  0.1825  0.1140
24438W        W43292   0.627   6.910   4.554  0.0278  0.1110  0.1318
24439W        W43293   0.639  13.649   1.805  0.0988 -0.1540  0.1574
24440W        W43294   2.603  14.098   4.004  0.0359 -0.0691  0.0744
24441W        W43295   5.251   7.032  16.180 -0.0036 -0.1403 -0.0604
24442W        W43296   4.609   9.703  14.761  0.2378 -0.0659 -0.1241
24443W        W43297   8.398  16.257  15.096  0.0995  0.0405 -0.1027
24444W        W43298  11.885  15.106  16.434 -0.2013  0.0905 -0.1276
24445W        W43299  13.762   7.920  17.453 -0.1985  0.0847  0.0421
24446W        W43300   3.740  10.438   3.091 -0.2300  0.0126  0.1107
24447W        W43301   3.583  13.182   1.708  0.0835 -0.0444 -0.0885
24448W        W43302  11.897   2.127  12.982 -0.2503 -0.1078 -0.0086
24449W        W43303  11.822  11.642  16.937  0.0713  0.0264 -0.0498
24450W        W43304  11.618   1.436  14.063 -0.1453  0.2448  0.1712
24451W        W43305   1.828  14.001  12.490 -0.4701 -0.0613  0.2465
24452W        W43306   1.152   8.432  15.633  0.1821 -0.0020  0.2437
24453W        W43307  17.287   3.471   1.978 -0.3522  0.1163 -0.3227
24454W        W43308  12.204   9.852   3.266 -0.1260 -0.1497  0.0633
24455W        W43309   3.757  14.132   4.580 -0.2094  0.1680  0.0512
24456W        W43310   8.293   0.470   4.599  0.3951 -0.0379 -0.1820
24457W        W43311   0.576   2.066   0.210 -0.0331 -0.1514  0.1340
24458W        W43312   4.063  15.047  14.066 -0.1615 -0.0228 -0.0946
24459W        W43313   9.142  10.566  13.847  0.0962  0.1426  0.3476
24460W        W43314   4.470   8.340  15.735  0.1802  0.0215  0.2116
24461W        W43315  14.804   1.088  14.141 -0.0973 -0.0765 -0.5461
24462W        W43316  13.422   0.997  14.029 -0.2673  0.0759 -0.1084
24463W        W43317   6.309   5.024  16.258  0.1003 -0.0408 -0.1273
24464W        W43318  10.113   4.475  13.979 -0.1518  0.1438  0.0340
24465W        W43319  14.173  15.571  15.630  0.3095  0.1004 -0.1602
24466W        W43320   6.188  12.731  12.436 -0.2185 -0.1178  0.0923
24467W        W43321  13.119  13.746  14.819 -0.1249 -0.2963 -0.0910
24468W        W43322  10.624  16.763  14.005 -0.1606  0.0836 -0.0845
24469W        W43323   9.547  11.215  14.575 -0.2271  0.0783  0.1703
24470W        W43324   4.728   3.937   3.323  0.1369  0.0300  0.2551
24471W        W43325   1.415   7.549   4.721 -0.0080  0.0298 -0.0008
24472W        W43326  10.298   3.367   2.829  0.3138 -0.2892 -0.0038
24473W        W43327  12.944  13.215   0.292  0.0564  0.2189  0.4121
24474W        W43328   7.828   6.960   2.995 -0.1289  0.0825 -0.3668
24475W        W43329   3.282  12.791  12.385 -0.2842 -0.0380 -0.0213
24476W        W43330  17.350   9.505  15.271 -0.1113 -0.2226  0.0075
24477W        W43331   9.558  12.552   0.601 -0.1786 -0.2673  0.0743
24478W        W43332  10.992  16.481   4.130 -0.1335  0.5247  0.2378
24479W        W43333  10.594   4.961  14.611 -0.0846 -0.0690  0.0412
24480W        W43334   6.707  17.025   1.782  0.2537 -0.0865 -0.2698
24481W        W43335   2.780   6.793   3.933  0.0836  0.2626  0.1808
24482W        W43336   5.338   7.199  12.355  0.0980  0.1261 -0.0198
24483W        W43337  15.942  10.169  16.893  0.1478 -0.1888  0.0447
24484W        W43338   7.611   0.852  15.661  0.0564  0.1025 -0.0955
24485W        W43339   8.785  16.878  12.568  0.5236  0.3329  0.0597
24486W        W43340   5.403  10.094   2.760 -0.0780 -0.0942  0.1067
24487W        W43341  12.349  12.267   0.151  0.1220 -0.0977 -0.0223
24488W        W43342   9.451  15.949   2.659 -0.1515  0.1104 -0.2014
24489W        W43343  12.408   6.983   2.338  0.0905  0.0736 -0.0694
24490W        W43344  16.967  14.593   1.729 -0.2423 -0.1166 -0.3173
24491W        W43345   3.957  13.735   2.971 -0.0494 -0.1302 -0.1112
24492W        W43346  10.786   9.006  13.392  0.0276  0.0970  0.0008
24493W        W43347   9.239   9.838  14.563  0.0657 -0.0922  0.0676
24494W        W43348  10.762   2.321   5.914  0.3077  0.0160  0.4545
24495W        W43349  13.731  10.450  13.300  0.1809 -0.2370  0.0222
24496W        W43350   3.568   8.375  16.241  0.1723  0.1043 -0.0628
24497W        W43351   7.435   8.457  13.421  0.1212  0.6893 -0.3038
24498W        W43352  13.226  17.184  15.856 -0.2825  0.1267 -0.1890
24499W        W43353   4.414   8.163   2.319 -0.1597 -0.0920  0.1606
24500W        W43354   2.962   9.735   2.108 -0.0664 -0.2140  0.1355
24501W        W43355  12.912  10.706  12.375 -0.2264  0.2284  0.4977
24502W        W43356  14.691  15.679  15.707 -0.1548 -0.3287 -0.1926
24503W        W43357  13.356  13.727   1.239  0.0071  0.3340  0.2602
24504W        W43358  16.908   7.890  16.416 -0.0988  0.1522  0.1075
24505W        W43359  14.233  16.609  13.997  0.0263  0.0353  0.1006
24506W        W43360  11.170   5.006   4.704  0.1066  0.0793  0.2208
24507W        W43361  15.472  11.923  13.458  0.0151 -0.3153 -0.0049
24508W        W43362   7.963  14.642  13.939 -0.2635  0.1819 -0.0743
24509W        W43363   7.554   2.231  17.133  0.2193 -0.2082 -0.0752
24510W        W43364   5.326   0.593  16.411  0.0240  0.2786  0.1580
24511W        W43365  12.992   2.825  16.554  0.0125  0.0707 -0.2134
24512W        W43366  16.426   9.974   2.689  0.2520  0.0981 -0.2565
24513W        W43367  15.022  16.792  15.845 -0.1410 -0.1116  0.2328
24514W        W43368   7.103  11.739   4.877  0.1223  0.4150 -0.1770
24515W        W43369   8.848  16.770  11.716 -0.0482  0.0326 -0.2736
24516W        W43370   3.369   6.305  15.627  0.2960  0.1914 -0.1289
24517W        W43371  14.103   5.527  12.993 -0.0261  0.1807 -0.0903
24518W        W43372   6.710  15.850   3.828  0.0211  0.3841  0.0341
24519W        W43373  10.308   4.399   2.837 -0.0870 -0.3308 -0.1448
24520W        W43374   6.229  13.403  16.007  0.2393  0.1231  0.0823
24521W        W43375  17.099  12.313   0.306  0.3333 -0.0577  0.1103
24522W        W43376  16.608  14.554   2.441  0.1015  0.3897 -0.1088
24523W        W43377  14.501   1.683   3.765  0.0325 -0.0003 -0.2706
24524W        W43378  10.144  14.627   0.845 -0.2074 -0.3127 -0.2294
24525W        W43379  13.662  10.187  12.237  0.1760 -0.0423 -0.0542
24526W        W43380   4.177   4.544   3.119 -0.2225  0.2951 -0.3967
24527W        W43381   4.255   1.583  12.623 -0.2219  0.0966 -0.2506
24528W        W43382   5.182   0.127   0.104 -0.2421  0.1015  0.0068
24529W        W43383   8.957   2.642   5.045 -0.1525 -0.2319 -0.2473
24530W        W43384   4.016   3.763   5.091  0.2318 -0.1234  0.1534
24531W        W43385   1.470   0.195   3.238 -0.1030  0.3211  0.0214
24532W        W43386   3.193   6.322   0.142  0.0482 -0.0396 -0.1610
24533W        W43387   7.950  17.110  15.916  0.0908  0.0294 -0.2712
24534W        W43388  11.747   7.607  12.936  0.1511 -0.0967 -0.0381
24535W        W43389  16.475   2.480   2.694 -0.1827 -0.3748 -0.0135
24536W        W43390   6.699  11.656  16.368  0.0531  0.0858 -0.2603
24537W        W43391  14.277  16.005  14.471  0.1729  0.2305 -0.1434
24538W        W43392   2.840  17.090   3.619  0.0246  0.3064 -0.1429
24539W        W43393  14.362   4.785  16.877 -0.0154 -0.4709  0.2130
24540W        W43394   6.825   7.238  15.684  0.0537 -0.1255  0.4677
24541W        W43395   8.381  14.783  14.297 -0.1053 -0.0020 -0.3906
24542W        W43396   1.096  11.559  12.358 -0.0898  0.3412 -0.1341
24543W        W43397  10.022   7.392  12.159  0.1512 -0.1616 -0.0524
24544W        W43398   1.052   0.937  13.798 -0.2145 -0.0544 -0.0549
24545W        W43399   2.993  13.967  13.767 -0.4666  0.0380  0.0908
24546W        W43400   3.163  13.196   0.904  0.1043  0.1302  0.2045
24547W        W43401   6.677  11.975   4.655 -0.1642  0.0156 -0.1383
24548W        W43402  17.294   8.858   4.533 -0.0861 -0.0904 -0.1015
24549W        W43403  12.305   2.482  14.396  0.1366  0.0842  0.3690
24550W        W43404  10.325   6.058  17.146 -0.0181 -0.1883 -0.1509
24551W        W43405  14.794   7.633   3.469  0.3724 -0.1216 -0.1732
24552W        W43406  14.852  14.755   0.195 -0.0455  0.0685  0.0750
24553W        W43407   7.635   8.788   2.467 -0.0418  0.0721  0.0426
24554W        W43408   0.659   7.698  17.269  0.2072  0.1623  0.1364
24555W        W43409  11.160   6.957  14.534 -0.0642 -0.1263  0.0404
24556W        W43410   3.813   4.845   1.085  0.0550  0.1166 -0.2512
24557W        W43411  13.927  16.535   4.254  0.1260  0.1251  0.3350
24558W        W43412   5.973  14.593   2.462  0.1984 -0.2077  0.0659
24559W        W43413   5.853   9.836   1.382 -0.1015 -0.5088 -0.0886
24560W        W43414   1.434  14.598  16.501  0.1657  0.1477 -0.0055
24561W        W43415   7.615   6.120  16.017 -0.0496  0.1290  0.1065
24562W        W43416  13.771   4.642  16.239  0.2103  0.0799 -0.0658
24563W        W43417   3.899   2.773  16.128 -0.1970  0.0979 -0.1035
24564W        W43418  14.004   2.991   1.175  0.0680  0.0378  0.1291
24565W        W43419   2.487   2.570  12.210  0.1485  0.0526 -0.3347
24566W        W43420   2.874   0.972   3.416 -0.0931  0.0241  0.1796
24567W        W43421  15.711   7.233   1.459  0.1850 -0.2685 -0.1855
24568W        W43422   7.549   6.853   1.116 -0.2118 -0.1313  0.2261
24569W        W43423  11.193  15.743   4.337  0.2069  0.2301  0.0588
24570W        W43424   9.112  12.091   3.178 -0.0135  0.2535 -0.2971
24571W        W43425   0.542   7.707   3.963 -0.1140 -0.0551 -0.1832
24572W        W43426   8.934  16.188  13.028 -0.0383  0.2219  0.4558
24573W        W43427  10.828  11.293  15.466  0.1404  0.1650  0.0645
24574W        W43428  16.380  17.265   1.538 -0.1879 -0.1416 -0.0911
24575W        W43429   8.943   7.361  16.543  0.0072 -0.2101  0.2068
24576W        W43430   9.102   3.864   3.995 -0.0055 -0.1649  0.3287
24577W        W43431   9.274  17.132  13.520 -0.1913 -0.0971 -0.2873
24578W        W43432   2.581   7.791   4.918  0.0665  0.0562 -0.0923
24579W        W43433   0.507   0.057   0.370 -0.5297  0.1139  0.0973
24580W        W43434   3.649   7.362   2.925  0.0920  0.1328  0.0979
24581W        W43435  17.300   5.154  17.250 -0.1826  0.2602  0.2307
24582W        W43436   5.788  14.609  15.273  0.0944  0.0880 -0.2031
24583W        W43437  15.677   3.958   2.793 -0.0150  0.1945 -0.3101
24584W        W43438   0.276   1.454  14.046 -0.0577  0.0893 -0.0306
24585W        W43439  12.824  16.299  12.950  0.0339  0.1611 -0.1146
24586W        W43440  16.292   1.006  14.158  0.1621 -0.1881 -0.4351
24587W        W43441   5.056  17.295  13.990 -0.1784 -0.0539 -0.1319
24588W        W43442  17.359  14.192  12.284  0.0254 -0.0365 -0.1848
24589W        W43443   3.811  12.289  15.342  0.1657  0.0086 -0.0922
24590W        W43444   9.616   6.802   5.089  0.0847  0.1525  0.2974
24591W        W43445  16.062   4.905  14.619  0.1626 -0.1139 -0.2598
24592W        W43446   8.746  15.713  16.279  0.1256  0.2265 -0.0436
24593W        W43447   9.175  14.333  15.163  0.0894  0.2949 -0.0880
24594W        W43448   7.629  13.905  16.561 -0.3702 -0.0831  0.0356
24595W        W43449  14.090  11.653   5.368  0.0773 -0.0096 -0.1370
24596W        W43450   2.617  12.196  16.965 -0.0241  0.1229  0.0203
24597W        W43451  11.842  15.611  16.184 -0.0662  0.1284 -0.2393
24598W        W43452  10.612   3.455  15.347  0.2941 -0.1778  0.4067
24599W        W43453   2.608   4.805   4.803  0.2764 -0.0358 -0.4522
24600W        W43454   5.109  12.395   0.173  0.0880  0.0149  0.4962
24601W        W43455   1.285  17.291   1.407 -0.2043 -0.0201 -0.1844
24602W        W43456  14.683  16.188  15.791  0.1332 -0.3056  0.1812
24603W        W43457   8.254   4.305   5.038  0.1884 -0.0601  0.0580
24604W        W43458  15.956   8.653   4.175 -0.1317 -0.2428  0.1892
24605W        W43459   6.200   7.917   2.216 -0.5509  0.3042 -0.3389
24606W        W43460  15.323   1.160  12.901 -0.2579  0.1560 -0.1702
24607W        W43461  11.494  16.684   2.750 -0.2666  0.2098  0.0657
24608W        W43462   7.057  15.286   0.186 -0.1953  0.0460  0.3511
24609W        W43463   1.325   2.080   4.235 -0.3010  0.0276 -0.1167
24610W        W43464   1.225  15.353   0.112  0.3654 -0.2145 -0.2233
24611W        W43465  12.843  15.857   6.217  0.2718 -0.0454  0.2659
24612W        W43466   0.972   6.679   3.029 -0.0438 -0.1304 -0.0079
24613W        W43467  10.142   7.401   5.164  0.3051 -0.0531 -0.1161
24614W        W43468   4.745   7.895   3.202 -0.2951 -0.2073 -0.2109
24615W        W43469  15.525  16.361  12.972  0.1074 -0.1589 -0.0918
24616W        W43470  13.613  11.360  12.689  0.0807 -0.0028 -0.1918
24617W        W43471  14.435  16.982   1.678  0.2152 -0.4956 -0.3743
24618W        W43472   6.917   7.802  14.903  0.1783 -0.0803 -0.0784
24619W        W43473  10.222  10.446  16.840  0.1499  0.1266  0.0458
24620W        W43474   6.508   5.118  14.371  0.1918 -0.1785  0.0951
24621W        W43475  14.353   4.597  13.783 -0.0738  0.0369  0.1110
24622W        W43476   2.735   3.665  14.658  0.2733 -0.0715 -0.1090
24623W        W43477   6.569   9.125   3.191 -0.1537  0.1866  0.0351
24624W        W43478   1.896  14.282   0.688 -0.1795  0.0120 -0.3612
24625W        W43479   5.141  10.934   2.570 -0.2299  0.0159 -0.2145
24626W        W43480   1.834  10.381  16.787 -0.0482  0.1234  0.2344
24627W        W43481   1.652  13.128  13.499 -0.5434 -0.2939  0.1926
24628W        W43482   9.666  14.803   4.072 -0.3809  0.1857 -0.1518
24629W        W43483  12.085   2.802   0.553 -0.3740  0.3598 -0.2985
24630W        W43484   6.067   2.803  13.065  0.0746 -0.1209 -0.2744
24631W        W43485   6.746  16.473  16.947 -0.0301  0.0525  0.0800
24632W        W43486   5.139  11.398   0.766 -0.0051  0.0514 -0.1638
24633W        W43487  12.822   0.194  15.197  0.1654  0.0106 -0.0593
24634W        W43488  10.719  14.135  13.265 -0.3652 -0.0096 -0.0876
24635W        W43489  15.975   8.452  14.939 -0.0621  0.2082 -0.1047
24636W        W43490   5.247  15.353  15.937  0.2544 -0.0848 -0.1420
24637W        W43491  11.176  12.666   0.737 -0.1321  0.4244  0.1352
24638W        W43492   1.994   1.335  17.405 -0.0562  0.0367  0.2543
24639W        W43493  13.862   2.653  12.884  0.3474 -0.0109 -0.0640
24640W        W43494  15.174   6.588  17.356 -0.3126 -0.1919  0.1536
24641W        W43495  10.507  10.679   3.467 -0.1017  0.2266  0.1116
24642W        W43496   6.595   7.699  15.329  0.0329  0.1581 -0.0443
24643W        W43497  13.341  10.303   5.225  0.0770 -0.1967 -0.0508
24644W        W43498  10.949   3.241  14.554 -0.1123  0.0277  0.0059
24645W        W43499   4.022  13.263   2.465  0.4199  0.0174 -0.1925
24646W        W43500   7.070   0.636   3.406  0.2255  0.1857  0.0000
24647W        W43501  13.302  11.485  14.562 -0.0355  0.2946 -0.0961
24648W        W43502   5.405   9.992  13.633 -0.3343 -0.0593  0.4276
24649W        W43503   0.487  15.463   1.003  0.2549  0.1871 -0.1068
24650W        W43504  12.404   1.916  13.006 -0.0749  0.1678 -0.0933
24651W        W43505   5.861   2.362  13.558 -0.1881 -0.0555 -0.1773
24652W        W43506  12.533   8.793  16.298 -0.2039  0.3322 -0.0957
24653W        W43507   6.462   1.697   5.302  0.2648 -0.2974 -0.0156
24654W        W43508   9.571  15.488   5.012 -0.1074 -0.0520  0.2388
24655W        W43509  10.558   4.277   5.260 -0.3428  0.3104 -0.0487
24656W        W43510  11.535  12.838  16.354  0.0473  0.2245  0.1805
24657W        W43511   2.711   7.081  12.329 -0.0492 -0.1054 -0.2059
24658W        W43512  12.346   2.009   2.400  0.2119 -0.1376 -0.0764
24659W        W43513  16.717  16.380   3.564 -0.1568 -0.0974 -0.0619
24660W        W43514  15.035   7.050  14.599 -0.2145 -0.2039  0.0457
24661W        W43515  10.334   9.663  16.788  0.0789  0.2967  0.0642
24662W        W43516   1.513   5.559   2.808  0.0826 -0.2287 -0.2329
24663W        W43517   5.961  13.702  14.480  0.0781  0.0079 -0.1306
24664W        W43518  13.915  16.318  15.975  0.4009 -0.3435 -0.0553
24665W        W43519  10.120   1.749  14.003  0.0833  0.2570  0.0700
24666W        W43520   9.931  11.378  15.296  0.2480  0.1237 -0.1440
24667W        W43521   6.769  10.108  14.361 -0.0770  0.3389 -0.2451
24668W        W43522  12.186  16.710  14.812  0.1684  0.0455  0.3238
24669W        W43523  10.888  13.036   2.862  0.1254  0.0445  0.2005
24670W        W43524   4.330  14.407   3.961 -0.0479 -0.1977 -0.0432
24671W        W43525  12.446   1.056  13.795 -0.2314 -0.0782 -0.1062
24672W        W43526   7.156   3.515  13.395 -0.0821 -0.1029 -0.2802
24673W        W43527   7.879   9.189   2.694  0.0856 -0.0852 -0.0466
24674W        W43528  15.921   6.462  17.013  0.2535  0.1172  0.1348
24675W        W43529   2.245   1.935  16.707  0.0788  0.0597 -0.1030
24676W        W43530   7.703  16.753  17.135 -0.1724 -0.0054  0.3521
24677W        W43531   9.325  15.823  13.243  0.1822 -0.0419 -0.1763
24678W        W43532  14.145  13.823   1.441  0.2134 -0.2683 -0.0509
24679W        W43533   6.734   9.419   3.633  0.0747  0.0132  0.0760
24680W        W43534   5.067   6.385  14.432 -0.0263  0.1476 -0.4328
24681W        W43535  14.455   9.346   1.291  0.0034  0.0667 -0.1341
24682W        W43536   4.165   4.287   3.957 -0.0973  0.3371 -0.1432
24683W        W43537   3.749  10.071   1.808  0.0240  0.0078  0.0262
24684W        W43538  14.083   4.858  11.310 -0.1236 -0.2440 -0.1371
24685W        W43539   0.668   1.130   5.808 -0.2882  0.1315 -0.0267
24686W        W43540   5.346  16.364   4.491 -0.0850 -0.1108 -0.0257
24687W        W43541  16.791  15.639  16.623  0.0339  0.0934  0.2142
24688W        W43542   4.975   2.932  16.917 -0.2877  0.0203 -0.0573
24689W        W43543  10.245   0.951   4.537 -0.3661  0.2481  0.1354
24690W        W43544  11.804  15.036  15.000 -0.2378  0.0550  0.0716
24691W        W43545  14.277  13.841  16.394 -0.0398  0.0916 -0.1293
24692W        W43546  12.499   9.028  15.855 -0.1519  0.1894 -0.0970
24693W        W43547   5.366   0.873  11.958  0.0251  0.1559 -0.0437
24694W        W43548   1.893   5.068   1.222 -0.3546 -0.1651  0.1319
24695W        W43549  16.017  13.892  13.934  0.3545  0.1417  0.1102
24696W        W43550   2.589  13.487   2.107 -0.1049 -0.1965  0.1359
24697W        W43551   8.275  12.376   2.755  0.0925 -0.2102 -0.0313
24698W        W43552   8.946   9.214   4.534 -0.1574 -0.0160 -0.0187
24699W        W43553   3.765  14.222  15.214 -0.1114  0.0905 -0.1023
24700W        W43554   1.355  13.225  12.932  0.0354 -0.1480  0.1134
24701W        W43555  14.166   9.581   1.706  0.1242  0.2971  0.1360
24702W        W43556   0.805  14.337   5.279 -0.0123 -0.2862  0.0500
24703W        W43557   7.829   6.224  16.979  0.1039 -0.1426  0.1228
24704W        W43558   9.687   3.080  14.343  0.1458  0.0495 -0.1693
24705W        W43559   4.326   5.492   1.713 -0.1846  0.2334 -0.0194
24706W        W43560   6.963  14.867  17.456 -0.0371 -0.2406  0.1403
24707W        W43561  16.194   4.966  13.059 -0.0204  0.2993  0.2721
24708W        W43562  13.926  17.286  16.250 -0.0030 -0.3821  0.1533
24709W        W43563  14.791  13.102   2.147 -0.0729  0.2342  0.0081
24710W        W43564  13.392   6.731  14.091 -0.0660  0.2501  0.1012
24711W        W43565  13.531   0.502  13.264 -0.1599  0.2651  0.0659
24712W        W43566   3.419   7.641   0.386 -0.3249 -0.0669 -0.0087
24713W        W43567   4.862   8.009  12.166 -0.0933 -0.0140  0.0542
24714W        W43568  14.212   0.635  12.942 -0.1267 -0.1198 -0.0401
24715W        W43569   1.989   2.468  17.353 -0.0733  0.1000  0.2952
24716W        W43570  10.076   4.724   0.980  0.0045  0.0359 -0.1704
24717W        W43571   0.792   5.843  14.535 -0.0410  0.0201  0.3274
24718W        W43572   4.022   8.824  12.831  0.0251  0.4274  0.5071
24719W        W43573   9.820   5.888   0.390  0.3234  0.3276 -0.2989
24720W        W43574  16.494   6.404  15.685  0.0676  0.1674 -0.0252
24721W        W43575   9.170   4.311  14.348  0.1321 -0.0862 -0.1956
24722W        W43576   9.510  16.913   0.556 -0.0513 -0.0459 -0.1892
24723W        W43577  17.187  13.274  13.290 -0.1540  0.0928 -0.1916
24724W        W43578   4.668  11.498  17.290  0.0824 -0.2146  0.0315
24725W        W43579  11.927  15.252   1.235  0.3021 -0.1671  0.2726
24726W        W43580  13.965   5.548   4.741 -0.1951  0.3236  0.0292
24727W        W43581   9.411  11.965  12.590  0.2153  0.0511  0.1478
24728W        W43582   3.602  13.366  13.063 -0.0497 -0.0552  0.0497
24729W        W43583   9.055  16.908  14.639  0.1255 -0.1396 -0.0992
24730W        W43584  12.259  12.881   1.398  0.1096  0.5509  0.2756
24731W        W43585   6.609   5.400  12.876  0.0550 -0.1726 -0.0646
24732W        W43586  16.401   9.513  16.232 -0.0357 -0.0598 -0.0837
24733W        W43587   2.587   6.217   1.830  0.0477 -0.0443  0.1148
24734W        W43588   0.932   0.766   2.695  0.2364  0.0875  0.1199
24735W        W43589  10.635   2.462  14.584  0.1713  0.0174 -0.0633
24736W        W43590   9.780  16.412   5.234  0.0893  0.0474  0.2532
24737W        W43591  11.008   3.043   3.909 -0.3800 -0.3570 -0.2409
24738W        W43592  16.735  16.234  12.533  0.3532  0.1131  0.3398
24739W        W43593  16.251   1.563   1.888  0.1341  0.0788 -0.1665
24740W        W43594   6.184   4.523   4.983  0.0955 -0.1067 -0.1321
24741W        W43595  12.788   9.281  12.524 -0.0675  0.2051 -0.1234
24742W        W43596   0.222  16.029  15.674 -0.0329 -0.1214  0.0149
24743W        W43597  12.938   4.950   1.221 -0.1062 -0.1019 -0.0212
24744W        W43598  13.830  11.553   5.809 -0.0139  0.1309  0.0242
24745W        W43599   4.763   4.704  15.033 -0.0114 -0.2952 -0.2811
24746W        W43600  14.152   8.272  17.480  0.3310  0.3838  0.0688
24747W        W43601  16.223   6.435  16.105 -0.2719  0.0867  0.2050
24748W        W43602   3.211  15.279   3.830  0.2964 -0.1694  0.1007
24749W        W43603   5.689   5.006   2.352 -0.1103  0.1579  0.0473
24750W        W43604  17.023   1.479  16.267 -0.0420 -0.2062  0.0919
24751W        W43605  13.092   3.779   0.705 -0.0787  0.2221 -0.1382
24752W        W43606   1.145   4.871  14.232  0.2922  0.2047 -0.3950
24753W        W43607   8.793  12.310  13.520 -0.0434  0.0901  0.0855
24754W        W43608   6.432   5.096   1.381 -0.0778  0.0193  0.2165
24755W        W43609  14.095  10.677   4.025 -0.2149 -0.0193  0.1706
24756W        W43610   2.931  17.099  12.870  0.0910  0.0924  0.0967
24757W        W43611   3.314   2.162   0.705  0.3003  0.0915  0.1465
24758W        W43612  13.401   1.320   3.070  0.0412  0.0612 -0.1300
24759W        W43613   0.023   2.656   5.120  0.2118 -0.1650  0.0944
24760W        W43614   3.111  13.078   4.419  0.0202 -0.0415  0.0459
24761W        W43615  14.553   7.971  14.310 -0.2641 -0.0689 -0.1552
24762W        W43616  16.155  13.420   0.436 -0.0524 -0.3154 -0.0428
24763W        W43617   5.100  13.430   1.554  0.6450  0.0148 -0.0333
24764W        W43618   8.599   2.356   2.642 -0.0224  0.1203  0.3341
24765W        W43619   3.379   4.787   2.112  0.0880  0.0162 -0.1514
24766W        W43620   0.605   0.459   3.306  0.0706  0.0514  0.2404
24767W        W43621   1.553   2.854   1.499 -0.1679  0.0049 -0.3259
24768W        W43622  12.090   1.835   1.663  0.2698  0.2290 -0.0086
24769W        W43623   2.544   4.309   0.400  0.2039  0.1323  0.1187
24770W        W43624  10.582  14.295  16.701 -0.3179  0.3864 -0.0200
24771W        W43625   0.422   7.459  11.926  0.1940 -0.0448 -0.1590
24772W        W43626   2.919   9.613  14.760  0.0063  0.0773 -0.0134
24773W        W43627   5.814   0.254  14.995  0.1361 -0.0410 -0.1386
24774W        W43628  14.445   9.945  16.581 -0.3100  0.0172  0.1066
24775W        W43629   3.609  10.348   4.744 -0.0943  0.0934 -0.1875
24776W        W43630  10.828   3.741   0.857  0.1212  0.0670 -0.4116
24777W        W43631  14.249  14.926   5.312  0.1023 -0.5062 -0.0581
24778W        W43632   3.197   9.968   4.725 -0.2434 -0.1106  0.0058
24779W        W43633  12.500   5.315   1.166 -0.2809 -0.3255 -0.1906
24780W        W43634  11.844   8.815   1.285 -0.0747 -0.0309  0.2172
24781W        W43635  17.370   3.384   0.375  0.3307 -0.2240 -0.0906
24782W        W43636  16.976   1.443  17.283 -0.0615 -0.0895 -0.0535
24783W        W43637  13.624   3.934  13.159  0.1366 -0.0071 -0.1591
24784W        W43638   6.741  17.005   2.632  0.1079  0.2917  0.2073
24785W        W43639   4.117  15.368   4.200  0.2325  0.2160 -0.0886
24786W        W43640   6.523  12.852   5.197  0.0603 -0.2291 -0.3077
24787W        W43641  12.934   7.874  14.890 -0.2139  0.0149  0.3256
24788W        W43642   0.696   9.244  14.426  0.0658 -0.0726 -0.0410
24789W        W43643  15.903   8.392  14.468  0.1374 -0.1196 -0.0647
24790W        W43644  14.506  11.689   2.396  0.1804 -0.0652 -0.1443
24791W        W43645   2.616   9.745   3.543 -0.0597 -0.1950  0.3805
24792W        W43646   1.954   8.075   4.237 -0.1133 -0.2867 -0.0935
24793W        W43647   4.576   1.522   2.971 -0.1576 -0.2398  0.2114
24794W        W43648  13.905   4.880  12.998  0.3891  0.1054  0.0549
24795W        W43649   4.920  17.096  11.397  0.1242 -0.0444  0.1333
24796W        W43650   7.568   3.219   2.121 -0.1637  0.2355  0.2200
24797W        W43651  13.933  16.722  16.473  0.1003  0.2365 -0.0269
24798W        W43652   2.224  13.506   4.702 -0.0832  0.0728 -0.1630
24799W        W43653  15.651  14.220   3.676 -0.0205 -0.0744 -0.1923
24800W        W43654   0.189   5.285   1.211 -0.1863 -0.0115 -0.0605
24801W        W43655   1.139   5.392  13.545 -0.1778  0.1418 -0.0102
24802W        W43656   6.700   3.628   4.898  0.0154  0.0650  0.1600
24803W        W43657  10.202   7.357  13.556  0.0953 -0.2561  0.0945
24804W        W43658   9.596   5.792  15.927  0.0424 -0.0076  0.0559
24805W        W43659  13.570  13.094   2.326  0.1063 -0.1776 -0.0747
24806W        W43660  16.426   6.528   4.741  0.0700  0.0650  0.1111
24807W        W43661  14.033   3.694   0.453 -0.4063 -0.0310  0.0813
24808W        W43662   0.886  16.911   3.239 -0.0873  0.3130 -0.4004
24809W        W43663   9.172   4.778   2.670  0.1814  0.1195  0.0033
24810W        W43664  10.549   6.006   2.263  0.0976 -0.0166  0.1006
24811W        W43665  14.763   0.985   4.958  0.0505 -0.0082  0.0433
24812W        W43666  14.000   1.048   3.801 -0.2753  0.0775  0.0566
24813W        W43667   3.069  16.333  13.705 -0.0330 -0.0752  0.0014
24814W        W43668   3.833  17.389  16.498  0.0153 -0.2050  0.1873
24815W        W43669   6.518  11.332   1.888  0.2571 -0.0690  0.0207
24816W        W43670   9.325   5.373   2.722 -0.0163  0.0439 -0.1526
24817W        W43671   8.734   5.378  13.490  0.0654  0.1143 -0.0677
24818W        W43672   1.377   9.895   4.502  0.0790  0.1314 -0.0809
24819W        W43673   5.027  12.896  12.418 -0.2777 -0.0241 -0.3113
24820W        W43674   8.481  11.756   3.155  0.1599  0.1084  0.0850
24821W        W43675   4.715   5.966  17.484 -0.0301 -0.3914  0.0123
24822W        W43676  11.686   7.577  16.930  0.1075  0.1411  0.1793
24823W        W43677  13.890   9.993   1.993  0.0825 -0.1097  0.1556
24824W        W43678  12.423  13.710   3.920 -0.1697 -0.1119  0.0560
24825W        W43679   6.984  15.437  15.660  0.0998 -0.1560 -0.1504
24826W        W43680  14.750   4.389   2.024  0.0052 -0.0487  0.0595
24827W        W43681  17.393   4.779   0.114  0.1990  0.0059 -0.0604
24828W        W43682   6.851   8.774  15.566  0.4951 -0.0627  0.1958
24829W        W43683   5.736  11.355  14.296 -0.1764  0.1675 -0.0908
24830W        W43684   8.697   9.512  12.251  0.2721  0.1354 -0.0533
24831W        W43685  12.234   1.304   1.642  0.0174 -0.2522  0.0918
24832W        W43686   2.421  15.918   5.227  0.0241  0.0736 -0.2903
24833W        W43687  11.146  12.539  16.644 -0.0394  0.1181 -0.1535
24834W        W43688   4.118   4.295   2.623  0.2196 -0.1468 -0.2013
24835W        W43689   1.296  16.909   2.725 -0.1870 -0.2984  0.1146
24836W        W43690  13.324   1.800   0.801 -0.1917 -0.1104  0.1476
24837W        W43691   4.018   9.656  16.015  0.3131 -0.2046  0.0182
24838W        W43692   5.575   5.942   0.485 -0.2372 -0.1271  0.1802
24839W        W43693  17.044  15.683   3.476 -0.3918 -0.2381  0.0391
24840W        W43694   6.562  10.646   2.548  0.2119 -0.1503  0.0091
24841W        W43695   0.848  15.307  14.603  0.1657  0.1605 -0.0115
24842W        W43696   6.611  10.367   0.450 -0.1389  0.2306 -0.0346
24843W        W43697   5.433  17.062   1.850  0.0349  0.0937  0.1115
24844W        W43698  11.076   6.735   1.489 -0.2139  0.0027 -0.1594
24845W        W43699   0.750   4.459  12.940 -0.0167 -0.1438 -0.1976
24846W        W43700   6.676  10.010   0.040  0.2793  0.0212 -0.0793
24847W        W43701  13.702   5.246   5.115 -0.1319  0.3249  0.0016
24848W        W43702  14.257   9.632  17.353 -0.0012 -0.0573 -0.2101
24849W        W43703   5.170   8.639  13.823 -0.4179  0.0486  0.2342
24850W        W43704   6.635   6.492  17.201  0.2205  0.0785  0.0580
24851W        W43705  16.835   5.493   0.646  0.1103  0.3413 -0.2103
24852W        W43706  14.666  12.290   5.117 -0.4146 -0.0298  0.3082
24853W        W43707  12.855  12.643   3.820  0.3478 -0.1599  0.4112
24854W        W43708   5.110   7.618   3.547  0.2262  0.1023 -0.0686
24855W        W43709  13.538  14.071   2.179  0.2588 -0.3148  0.3027
24856W        W43710  16.374   5.265  14.471 -0.0522  0.1240  0.3212
24857W        W43711  13.441  14.538   5.305  0.0283  0.2123 -0.1921
24858W        W43712  15.635  16.105   2.165  0.0506  0.2685  0.0918
24859W        W43713  12.075  11.368  15.687  0.1919  0.0480 -0.1035
24860W        W43714   8.240   1.777   3.088 -0.2793  0.0642 -0.1356
24861W        W43715  15.580   7.394  12.517  0.0697  0.1104  0.0501
24862W        W43716  13.368   9.288   1.436  0.3609  0.0872  0.2288
24863W        W43717  15.857  15.564  15.022 -0.2311 -0.0274  0.1219
24864W        W43718   5.174   0.385  15.572 -0.0915 -0.2340  0.3543
24865W        W43719  17.301   3.070  14.834  0.0575  0.1882  0.0135
24866W        W43720   6.233   0.933   0.267  0.3900 -0.0948  0.0212
24867W        W43721  14.563   1.009  15.864  0.1165 -0.0984 -0.0537
24868W        W43722  14.514  12.103  14.815 -0.1725 -0.0476  0.0229
24869W        W43723   6.176   9.283   1.217 -0.1434  0.0709 -0.0135
24870W        W43724  13.439  11.439   0.084  0.2016 -0.2523 -0.1619
24871W        W43725   0.051   3.211   3.385  0.1264  0.0197 -0.1467
24872W        W43726   9.311   1.954   4.389  0.0519 -0.1031 -0.1286
24873W        W43727   9.675  17.166   4.592 -0.5322  0.5054 -0.0956
24874W        W43728   2.408  14.332  15.206 -0.0929 -0.2962 -0.1016
24875W        W43729  11.571  14.870   4.117 -0.0379 -0.1336 -0.0717
24876W        W43730  13.871   4.826  16.706  0.0553  0.2008 -0.0257
24877W        W43731   8.126  16.123   4.866  0.2149  0.0340 -0.0334
24878W        W43732   7.258   9.936  16.850  0.1243  0.2753 -0.1541
24879W        W43733   7.599   6.336  17.388  0.0873  0.1226 -0.2777
24880W        W43734  11.408   9.534  14.530 -0.0052 -0.2339  0.2438
24881W        W43735  13.903   0.268   2.319 -0.0396  0.1220  0.1379
24882W        W43736  11.469   7.089  15.154 -0.2141 -0.1453  0.0472
24883W        W43737   9.179   6.636  14.063 -0.0145 -0.0272  0.0841
24884W        W43738   8.596  14.903   3.321 -0.1572 -0.1945 -0.1297
24885W        W43739   2.875  11.549   3.071 -0.2117 -0.0420 -0.0002
24886W        W43740  17.332   4.121  12.387  0.0982  0.3582  0.0569
24887W        W43741  12.952   3.991   2.283 -0.1420 -0.3364  0.3252
24888W        W43742   4.920  13.510  12.981 -0.2255  0.0271  0.2536
24889W        W43743  13.629  15.329  13.196  0.0851 -0.1267 -0.0729
24890W        W43744  14.234   9.304   0.331 -0.0828  0.0106 -0.0234
24891W        W43745   1.168  14.360   3.641  0.0162 -0.1396 -0.2634
24892W        W43746  10.371   1.546   0.624 -0.0895  0.0563 -0.2934
24893W        W43747  12.969   2.690   1.857 -0.0137 -0.0386 -0.0279
24894W        W43748  11.207   2.668   4.203  0.1672  0.2213 -0.1387
24895W        W43749  10.993  11.684   0.461  0.0961 -0.2374 -0.0656
24896W        W43750   7.084  17.273   0.862  0.1427  0.1152  0.2442
24897W        W43751   8.657  11.224   1.383 -0.0302 -0.1089  0.1704
24898W        W43752  11.846  10.791  14.429  0.0147 -0.5774 -0.0361
24899W        W43753   0.055   9.737   2.480  0.0858 -0.0922 -0.0006
24900W        W43754  11.731   2.393   3.335 -0.0844  0.1184  0.1276
24901W        W43755   5.373  16.907  13.972  0.2595 -0.0111  0.1723
24902W        W43756   6.109   6.432   2.655 -0.1345  0.2883 -0.0269
24903W        W43757  16.175   9.854   1.170  0.2131 -0.2644 -0.1324
24904W        W43758   5.621   8.513  15.937  0.2915 -0.1371  0.0782
24905W        W43759  15.677   7.197  12.060 -0.3060 -0.1499  0.2428
24906W        W43760   5.664   6.578  17.068  0.1716  0.1627 -0.0315
24907W        W43761   7.896   3.764   0.869  0.0126  0.3725 -0.1008
24908W        W43762   4.743   8.577  17.473 -0.2930  0.1112 -0.0267
24909W        W43763  14.833   3.841  16.191  0.0538 -0.0495 -0.2384
24910W        W43764   0.391  16.847  14.346  0.1262 -0.1493  0.1383
24911W        W43765   6.167   6.418   3.843  0.2669 -0.4989 -0.1372
24912W        W43766   3.255  16.713   5.742  0.0068 -0.0048  0.0406
24913W        W43767   8.087  17.082   2.587  0.1101  0.0758 -0.0071
24914W        W43768  15.694   2.262  17.260 -0.0124  0.3230  0.0526
24915W        W43769  15.977   8.968  14.857 -0.0813 -0.2465 -0.2839
24916W        W43770   3.085  15.325   3.248  0.3012 -0.1233  0.1619
24917W        W43771   8.343   8.258   0.001 -0.3570 -0.0569 -0.0469
24918W        W43772  17.310   8.776  14.131 -0.1046  0.2523  0.1192
24919W        W43773   5.572   5.758  17.456  0.1169 -0.1719  0.0841
24920W        W43774  15.723  15.686   1.211 -0.1458 -0.0245 -0.0755
24921W        W43775   0.502   2.704  15.163 -0.0918  0.0547 -0.2812
24922W        W43776   2.425   6.085   4.488 -0.4967 -0.0863  0.0827
24923W        W43777  10.447  15.774   2.482 -0.2655  0.2267  0.3556
24924W        W43778  13.908  16.249   1.015 -0.0561 -0.0641 -0.0759
24925W        W43779  15.673  13.162  16.958  0.2102 -0.0905  0.1633
24926W        W43780   5.088   7.148  15.245  0.2178  0.3184  0.3244
24927W        W43781   3.153   7.246   0.518 -0.2204  0.1966 -0.0105
24928W        W43782   9.924  10.340   0.358  0.2433  0.0607 -0.0307
24929W        W43783   1.175  11.204  17.157  0.1368 -0.0765  0.2792
24930W        W43784   7.029  10.663  15.602  0.0260  0.0176  0.3013
24931W        W43785  11.389  16.098   4.065 -0.0874  0.0416 -0.0475
24932W        W43786   3.418   0.241   2.770 -0.2744 -0.0460 -0.1669
24933W        W43787  16.802   9.223   2.398 -0.0577 -0.1394  0.1605
24934W        W43788   7.651  13.840   2.741  0.1972  0.0758  0.2083
24935W        W43789  11.263   2.883  15.979 -0.0808  0.0351 -0.0094
24936W        W43790   3.168  10.312   0.444 -0.0447  0.0246  0.0915
24937W        W43791  14.131  14.118  12.080 -0.1194  0.2030 -0.0599
24938W        W43792   1.047   0.372  13.643 -0.3609 -0.0234 -0.3467
24939W        W43793  16.448  14.598  13.741  0.1436  0.0500 -0.1335
24940W        W43794  16.582  17.310  14.442 -0.0381  0.1990 -0.0607
24941W        W43795   6.278   6.240  13.654  0.0127 -0.1016  0.1372
24942W        W43796  16.001  12.384  16.120  0.3069 -0.0764  0.1772
24943W        W43797   6.468  16.815   5.305 -0.1957  0.0660  0.2364
24944W        W43798   9.265  16.198   3.648  0.5073 -0.2491  0.0126
24945W        W43799  15.679  10.433   0.400 -0.2384  0.0007  0.0417
24946W        W43800   9.183  11.943   1.462 -0.1946  0.2063 -0.0118
24947W        W43801  14.143   8.255   1.365  0.2526 -0.0957 -0.0301
24948W        W43802  14.315   6.822   2.516 -0.2153  0.0531  0.0153
24949W        W43803  14.520   4.989   2.920 -0.0825  0.0539 -0.3647
24950W        W43804  14.011  11.388   6.224  0.1084 -0.0380 -0.1183
24951W        W43805   5.509   1.395   3.043  0.1746  0.1319  0.3040
24952W        W43806   8.115   4.602  14.297 -0.0214 -0.0322 -0.0563
24953W        W43807  12.846   0.546  15.860 -0.0589  0.1324 -0.1457
24954W        W43808  15.778   6.311  13.351  0.4524 -0.3827  0.2204
24955W        W43809  17.031  14.167  13.579 -0.0119  0.0515  0.1619
24956W        W43810   2.617  14.148  16.505  0.3391  0.0142 -0.1526
24957W        W43811   4.713   9.204   1.615  0.1308  0.0656 -0.0895
24958W        W43812  12.503  12.710  11.883 -0.0838  0.0462  0.1159
24959W        W43813  13.569   5.561   3.213 -0.0503  0.0599  0.0702
24960W        W43814  10.645   6.724  15.350  0.2700 -0.0033  0.2017
24961W        W43815   8.370   3.395   2.380  0.3103 -0.0498  0.0651
24962W        W43816   7.371  10.504  16.466  0.2260 -0.1825 -0.1692
24963W        W43817  10.888  14.123  14.448  0.0036 -0.0796  0.2560
24964W        W43818   0.455  11.124  14.993  0.2194 -0.0086 -0.0400
24965W        W43819   2.603   8.175  14.792  0.2632  0.1223 -0.1870
24966W        W43820  10.594   0.891  11.242  0.3080  0.1729  0.0726
24967W        W43821  16.936   7.617   1.515 -0.0200  0.0431 -0.0484
24968W        W43822   4.258  16.095  16.650  0.2400 -0.0278  0.1050
24969W        W43823  15.882   3.755  16.183  0.1536  0.1404 -0.1980
24970W        W43824   4.671   2.370   2.322 -0.1477 -0.1569  0.0278
24971W        W43825   6.726   8.811   0.030  0.0461 -0.1027 -0.1674
24972W        W43826  14.643   5.166   0.777  0.0764 -0.1103 -0.2776
24973W        W43827   2.422   1.401   4.291  0.1472  0.0854  0.0666
24974W        W43828   1.070   0.494   3.152  0.1098 -0.1445  0.0974
24975W        W43829  12.766  13.433   4.277 -0.1196  0.1926  0.0541
24976W        W43830  13.490  15.009  14.357 -0.0537 -0.0996  0.1573
24977W        W43831  14.190  16.255  15.047 -0.2165  0.3262 -0.2077
24978W        W43832  15.619  14.036  13.566  0.0276  0.2986 -0.1937
24979W        W43833  10.857   9.928  15.285 -0.2916 -0.1689  0.0606
24980W        W43834   4.678   7.324   2.660 -0.0741 -0.3599 -0.3532
24981W        W43835   4.222  14.549   3.234  0.1131 -0.2607  0.0221
24982W        W43836   1.926  10.815   3.750 -0.1423 -0.1192 -0.3327
24983W        W43837   3.183  11.304   6.541  0.2329  0.1338  0.1340
24984W        W43838   6.513   4.381  13.854  0.1247  0.2788 -0.1369
24985W        W43839   8.850  16.164   0.871 -0.0645  0.0687  0.1281
24986W        W43840  16.721  16.551  14.200  0.0245 -0.0855  0.1651
24987W        W43841  15.739   3.614   1.751 -0.0682  0.1195 -0.1832
24988W        W43842  14.192  17.151  12.456 -0.1689 -0.0207  0.1708
24989W        W43843   8.242   7.134   2.784  0.0270  0.0847 -0.1289
24990W        W43844  12.861   9.053   1.325 -0.0410  0.0862 -0.1960
24991W        W43845  15.076   4.921   3.099  0.0200 -0.3505 -0.1676
24992W        W43846  17.221   6.938  13.357  0.0712  0.3045 -0.1224
24993W        W43847   3.232  13.321   3.978  0.2383 -0.0214  0.2900
24994W        W43848  12.904  16.912   3.625  0.1037  0.1240  0.0083
24995W        W43849  14.581   2.483  12.793  0.1120  0.0767 -0.0516
24996W        W43850  10.965  12.173  15.258  0.3302  0.0785 -0.0344
24997W        W43851   3.875   1.849  13.894  0.0588  0.2226 -0.1374
24998W        W43852   4.815   1.284  15.782 -0.0372 -0.0505 -0.2683
24999W        W43853  15.646  17.083  13.828 -0.1547  0.2425 -0.0163
25000W        W43854  15.843  11.139  13.512  0.0964  0.1177  0.1176
25001W        W43855  16.827   2.016   3.447  0.0668 -0.0847 -0.0380
25002W        W43856  14.837   4.497  14.304  0.0131  0.1951  0.2645
25003W        W43857   8.902   0.813  16.311  0.0757  0.0829  0.0748
25004W        W43858   8.785   0.587  16.716  0.1841 -0.3009  0.1523
25005W        W43859  11.598   6.476  16.378 -0.1848  0.2556  0.2067
25006W        W43860   4.912   4.879   2.535  0.2453 -0.1326  0.1731
25007W        W43861   3.225   5.861  11.402 -0.0511 -0.1103 -0.0112
25008W        W43862  13.544   5.227  16.680 -0.0461  0.0501  0.3892
25009W        W43863   4.015  16.088  14.571  0.0889  0.0388 -0.0362
25010W        W43864   8.406  16.610   3.963 -0.1924  0.0778  0.0215
25011W        W43865  11.701   7.963   0.727  0.0280 -0.0392 -0.0328
25012W        W43866   9.672  15.357   0.574  0.0375 -0.1037 -0.0032
25013W        W43867   4.411   5.642   4.122  0.0612 -0.3027  0.0327
25014W        W43868   8.867  16.904   1.680 -0.0842  0.2561  0.0508
25015W        W43869   7.868  11.595  13.154 -0.1697  0.0151 -0.0645
25016W        W43870   9.061  13.923  16.881  0.1545  0.2388  0.3962
25017W        W43871   3.963  16.882   2.103 -0.0934  0.1123  0.1892
25018W        W43872   2.183  13.564  12.748 -0.0434 -0.0502  0.1078
25019W        W43873   8.312  14.637  14.764 -0.1563  0.1037 -0.2433
25020W        W43874  11.119  12.044   1.480 -0.0104  0.0366 -0.0256
25021W        W43875  16.680  11.840  12.978  0.0714 -0.0471 -0.0741
25022W        W43876  16.648   8.484   4.179  0.0122 -0.1533 -0.1099
25023W        W43877   1.339  15.306  15.875 -0.0908  0.0410 -0.0789
25024W        W43878  13.317   7.362   3.347 -0.0653 -0.0584  0.0289
25025W        W43879  14.306   3.466   5.050 -0.0895 -0.2221 -0.1539
25026W        W43880   9.777  13.391   5.126 -0.1762 -0.3686  0.0901
25027W        W43881   0.641   8.512   5.161  0.1697 -0.1675  0.0440
25028W        W43882   2.282  17.384   0.837 -0.1711 -0.4358 -0.0227
25029W        W43883   4.056  16.285  12.468  0.1553  0.0654 -0.1534
25030W        W43884  11.587  12.913   0.514  0.2458 -0.5755  0.0475
25031W        W43885  15.396  11.777   3.303  0.1092 -0.1861  0.0452
25032W        W43886  15.210   8.493   2.817 -0.0573  0.2901  0.2100
25033W        W43887  15.099   6.462  14.350  0.0332 -0.0372 -0.1519
25034W        W43888  10.098  14.808   3.573 -0.0340  0.0986 -0.0678
25035W        W43889   3.824   7.797  13.729  0.2955 -0.0315 -0.2097
25036W        W43890   6.931   9.196  15.954 -0.0135  0.0747  0.2294
25037W        W43891   1.593  15.001   2.740  0.2888 -0.0928 -0.0294
25038W        W43892  14.191  10.878  17.027 -0.3064 -0.2766 -0.0084
25039W        W43893  15.127   4.379   4.482  0.1935  0.2039 -0.1246
25040W        W43894  12.169   7.902  13.984 -0.2653 -0.0412 -0.0875
25041W        W43895   1.506   1.658   2.048  0.1030  0.1926  0.0794
25042W        W43896  11.076  10.097   5.082  0.1085 -0.0371  0.0441
25043W        W43897   2.087  16.764   2.298 -0.0530 -0.0848  0.0902
25044W        W43898   8.748   8.960   0.664  0.1061 -0.2847  0.2184
25045W        W43899   1.702  11.372   0.881 -0.2826  0.3039 -0.1530
25046W        W43900   5.397  10.236  12.580 -0.0029 -0.0028  0.0256
25047W        W43901   9.990   9.749   4.226  0.2707 -0.0458  0.0117
25048W        W43902   9.247  10.683   2.829  0.1676 -0.4478 -0.1005
25049W        W43903   8.225  15.085  17.081  0.1069 -0.0812  0.1123
25050W        W43904  13.375   6.912   2.379  0.0899  0.0642 -0.1957
25051W        W43905  14.825  13.780  15.536 -0.0353  0.1235  0.1991
25052W        W43906  14.059  16.721  15.086 -0.3389 -0.2536  0.3117
25053W        W43907   2.881  11.884  12.450  0.0559 -0.0836 -0.0540
25054W        W43908   6.395  14.469  13.058 -0.3325  0.1416  0.0898
25055W        W43909   6.213   2.660   3.345 -0.0117  0.0820 -0.2911
25056W        W43910   6.253  10.287   0.865 -0.1756  0.0502  0.4009
25057W        W43911   3.102   4.520  14.134 -0.0799 -0.1928  0.0015
25058W        W43912   3.991   8.316  13.740 -0.0093  0.1084  0.0332
25059W        W43913   8.746   1.097   2.030  0.0623 -0.2937 -0.1852
25060W        W43914   2.193   4.181  11.184  0.2516  0.0805 -0.0485
25061W        W43915   0.048   7.846  11.947 -0.0920  0.1699 -0.1325
25062W        W43916   9.717   0.460  12.362  0.2886 -0.0089  0.0863
25063W        W43917   2.589   6.378  17.458 -0.0557 -0.2333 -0.2827
25064W        W43918   9.555   7.293  15.632 -0.1045  0.0359  0.0232
25065W        W43919   6.767   6.055  12.115 -0.1829  0.0866  0.0733
25066W        W43920  14.572   0.122  17.121 -0.3339 -0.0396  0.1639
25067W        W43921   0.031  14.296   1.515  0.0622  0.2462  0.1811
25068W        W43922   0.096   7.892  14.404 -0.2054  0.1336  0.0312
25069W        W43923  10.058  14.888  12.877  0.1678 -0.0412 -0.4408
25070W        W43924   7.455   8.658  16.393 -0.0812 -0.0656 -0.1990
25071W        W43925  12.740   8.535   3.475  0.3218  0.0213 -0.0249
25072W        W43926  12.410   6.208  15.107 -0.1134  0.2534 -0.1337
25073W        W43927   8.668   4.994   4.547 -0.1016 -0.1199 -0.1911
25074W        W43928   1.427   4.501   0.441 -0.2492 -0.4067 -0.2825
25075W        W43929   3.950   0.976  15.222  0.3140  0.1743 -0.1076
25076W        W43930  16.221  14.940   5.467  0.1390 -0.1751 -0.3056
25077W        W43931   1.753  14.758  13.538 -0.1059 -0.1390 -0.0262
25078W        W43932  13.191  15.982   0.700  0.0380  0.1268 -0.2111
25079W        W43933  10.024  13.270  14.498  0.0496  0.1869  0.1701
25080W        W43934   8.864  11.552  15.035 -0.1786 -0.0200 -0.1135
25081W        W43935   2.170   0.252   1.871 -0.2143  0.1584 -0.1333
25082W        W43936  11.028  14.636  14.535  0.0223 -0.1647 -0.0531
25083W        W43937   0.212   8.858  12.608 -0.4732 -0.1974 -0.1844
25084W        W43938   6.204   9.700   4.155 -0.0558 -0.1777  0.3647
25085W        W43939   6.466   8.468  16.206 -0.3148 -0.0539 -0.1612
25086W        W43940   6.734  13.143   3.208 -0.1750 -0.3854  0.2879
25087W        W43941  10.580   7.677  13.823 -0.1362  0.1358 -0.0467
25088W        W43942   4.283   5.802  12.490  0.1938 -0.1898  0.2207
25089W        W43943   7.410   5.034  12.537  0.2491 -0.2574 -0.0678
25090W        W43944  13.745  17.046   2.986 -0.2694 -0.0414  0.0584
25091W        W43945   6.241  15.004  14.750 -0.0217  0.1265 -0.2436
25092W        W43946   9.004  13.016   3.352  0.2852 -0.0589 -0.0973
25093W        W43947  15.394  11.741   1.915  0.1957 -0.2522  0.0488
25094W        W43948   1.736  13.651   2.534 -0.0106 -0.1962  0.3284
25095W        W43949  13.401  10.725   4.408 -0.1595 -0.2123 -0.3165
25096W        W43950  15.715   9.326  17.012  0.0478  0.0678  0.0822
25097W        W43951  14.767   6.830   2.562  0.2056 -0.0486  0.2105
25098W        W43952  15.874   7.155  13.337  0.1517 -0.1566 -0.0462
25099W        W43953  12.860   2.352   2.290 -0.0261 -0.0211  0.2607
25100W        W43954   0.466  12.795  15.249  0.0171 -0.0491  0.0198
25101W        W43955   4.706   6.046   3.953  0.2397  0.1737  0.2691
25102W        W43956   4.399   3.745   4.741  0.1300 -0.1747 -0.1190
25103W        W43957  10.942   8.698   0.287 -0.2191 -0.3188  0.4233
25104W        W43958  16.731  11.139  15.163  0.2511  0.0370  0.0479
25105W        W43959   9.750   2.488  16.140  0.0785 -0.0634 -0.2224
25106W        W43960   6.411   6.431  15.807  0.0540  0.2020  0.2628
25107W        W43961  17.360   3.242  15.862  0.0916 -0.1465 -0.0566
25108W        W43962  10.127  13.384  15.368  0.0791  0.0373 -0.0255
25109W        W43963  13.102   3.328   4.568  0.3789 -0.0466 -0.1942
25110W        W43964   4.070   6.902  16.928 -0.5146  0.2730 -0.2462
25111W        W43965   0.846  10.746  13.262  0.3083  0.1284 -0.1082
25112W        W43966  13.272  16.549  13.747  0.0638 -0.1971 -0.0537
25113W        W43967  10.066   0.533   2.964 -0.1034 -0.3109 -0.0239
25114W        W43968   4.356   3.033   4.417 -0.1004  0.2337  0.1893
25115W        W43969  13.103  11.639  16.757  0.0639 -0.0211 -0.1064
25116W        W43970  14.461   3.074   4.526  0.3235  0.3932  0.1347
25117W        W43971  10.012   2.254  13.260  0.1464 -0.3470  0.2478
25118W        W43972   3.381   9.673   5.100 -0.0924  0.1443  0.0629
25119W        W43973   0.542   3.800  14.966 -0.0639 -0.0775  0.0427
25120W        W43974   1.207  11.996   3.519  0.2116  0.1763  0.0783
25121W        W43975   5.984   1.561  12.422 -0.0834  0.2099  0.0202
25122W        W43976  14.768   1.578   4.239 -0.0221 -0.0274 -0.2227
25123W        W43977   7.095   8.587   4.791 -0.1642 -0.2520 -0.3119
25124W        W43978  14.094   1.669  12.690 -0.0061  0.1138 -0.0107
25125W        W43979   0.000  14.286  15.222 -0.0894 -0.0941 -0.0517
25126W        W43980  12.086  13.725   1.372 -0.0102 -0.0010  0.2499
25127W        W43981  11.679   7.664  14.020 -0.0030  0.0000  0.0314
25128W        W43982  16.098  14.212   3.378 -0.0287 -0.1622  0.0757
25129W        W43983  13.864  15.445  16.853  0.1110 -0.1239 -0.0249
25130W        W43984  14.440  15.302   2.704  0.1396 -0.0003 -0.0643
25131W        W43985  15.718   4.287  14.226 -0.1706 -0.0402 -0.0178
25132W        W43986   3.073   6.150   1.888  0.0021  0.0984  0.0705
25133W        W43987   5.078  12.852  15.670  0.3215  0.2471  0.2091
25134W        W43988   8.736   5.521   1.305  0.1301 -0.2035 -0.1859
25135W        W43989  13.536  13.821   4.696  0.1180  0.2457 -0.4555
25136W        W43990   5.900  12.727  16.360 -0.2855  0.1317 -0.2370
25137W        W43991   9.615  10.562  13.487 -0.0432  0.0589 -0.1210
25138W        W43992  13.725   0.568  12.276  0.1082 -0.2286  0.0406
25139W        W43993   9.167   8.625   1.782  0.1088 -0.2325  0.1225
25140W        W43994   4.248   5.403  14.079  0.0100 -0.0294 -0.2581
25141W        W43995   6.672   5.043   4.224  0.2134 -0.0713 -0.1435
25142W        W43996  15.197   2.886   3.427  0.1830  0.0283 -0.1512
25143W        W43997   9.034  13.156  13.651  0.4987  0.0931 -0.0352
25144W        W43998  12.507  10.900   2.278  0.0422 -0.2837 -0.2184
25145W        W43999   7.341  16.741   4.481  0.1561 -0.5468 -0.1671
25146W        W44000   1.884   8.359  13.110  0.1157 -0.2537 -0.1931
25147W        W44001   7.480  12.138  12.405 -0.1049 -0.0114 -0.2899
25148W        W44002   0.578   9.801   3.077 -0.1521 -0.0664 -0.1509
25149W        W44003  13.749  12.038   0.558 -0.0920 -0.1698  0.0562
25150W        W44004   4.465   8.853  16.253 -0.1148  0.1158  0.0203
25151W        W44005   2.013   6.148   2.272  0.0015  0.0724 -0.0375
25152W        W44006   4.163   6.067   4.227  0.0304 -0.0606 -0.2921
25153W        W44007  16.035  11.423  12.325 -0.0184 -0.1190 -0.0243
25154W        W44008  12.958  11.181  17.376 -0.2385  0.2115  0.1587
25155W        W44009  10.014   7.047   2.816  0.0891  0.4783  0.1207
25156W        W44010  10.512   0.269   1.270  0.1706 -0.0944  0.0803
25157W        W44011  13.340  10.916   1.201  0.0272  0.2160 -0.0218
25158W        W44012   7.037   8.898  13.573  0.2903  0.2262 -0.3095
25159W        W44013  11.497   7.469   2.736  0.2532  0.1745  0.1248
25160W        W44014   1.306  11.478   0.129  0.3277  0.1368 -0.0220
25161W        W44015   1.259  16.535   6.343 -0.0788 -0.0834 -0.2236
25162W        W44016  12.755   0.140  13.259  0.2569  0.0316  0.0418
25163W        W44017  14.522   7.096   1.245 -0.2680  0.0588 -0.1197
25164W        W44018   6.118  11.553   0.939  0.1279  0.0130  0.2535
25165W        W44019   7.705  15.176  12.690 -0.2055  0.0983  0.0883
25166W        W44020   0.670   7.633   2.268 -0.0628 -0.1760  0.0835
25167W        W44021   7.867  16.400   0.018 -0.4541 -0.1393 -0.2093
25168W        W44022   0.492   0.536   0.297  0.1650  0.0904  0.0665
25169W        W44023   9.980  15.873  16.847  0.0272 -0.2616 -0.0566
25170W        W44024  16.048  16.842   0.098  0.1399 -0.1797  0.2547
25171W        W44025   1.669   4.738  14.409 -0.0066 -0.0079  0.0738
25172W        W44026   0.403  16.518   4.713  0.1106 -0.1917 -0.1475
25173W        W44027  16.380   9.900  13.815 -0.0487 -0.0066  0.1281
25174W        W44028  11.108   1.780   1.176  0.0745  0.0331 -0.0688
25175W        W44029  16.180   2.225  14.875 -0.1808  0.0764 -0.1184
25176W        W44030  13.340   1.691  14.690 -0.1814 -0.1356  0.1342
25177W        W44031   9.003   7.019   0.958 -0.3161  0.1009  0.1346
25178W        W44032  11.642  11.781   3.942  0.1246  0.1418 -0.0119
25179W        W44033  12.540  15.301  17.034  0.0686 -0.1013  0.0578
25180W        W44034  11.017  11.452   2.272  0.1500  0.0306  0.4100
25181W        W44035   5.447   5.624   2.845 -0.0823 -0.1251 -0.0375
25182W        W44036   1.412  17.324   0.231 -0.2822 -0.2107 -0.1488
25183W        W44037  13.297   8.554   0.971 -0.0581  0.2141 -0.1523
25184W        W44038   7.129   7.280  12.326 -0.2215  0.0122 -0.1387
25185W        W44039   6.573   7.193  16.084  0.2298  0.3542 -0.0627
25186W        W44040   8.753  16.461   3.650  0.1229  0.0238  0.2186
25187W        W44041  13.506   0.114   4.801 -0.0697  0.1948 -0.1260
25188W        W44042   5.858  10.704   0.806  0.1981 -0.1086 -0.1461
25189W        W44043  11.216   5.969   0.063  0.2412  0.1768 -0.0095
25190W        W44044   9.149   6.867  13.202 -0.0487  0.1192 -0.1357
25191W        W44045  12.534  14.136  17.367  0.0586 -0.0372 -0.3910
25192W        W44046   3.983   9.548  17.450 -0.1896 -0.2743  0.1807
25193W        W44047   2.911  10.258   5.450 -0.4352  0.0520 -0.2703
25194W        W44048  14.500   6.277   1.677 -0.1239  0.1224  0.1095
25195W        W44049   0.196   2.436  15.442 -0.2684  0.0947  0.1558
25196W        W44050   8.798   8.800   4.294 -0.4178 -0.1373 -0.1812
25197W        W44051   6.258   6.118   2.294 -0.0957 -0.0293  0.0231
25198W        W44052   4.613   4.296   3.028  0.1748  0.2627 -0.0901
25199W        W44053   2.890   9.694  12.796  0.0164  0.0148 -0.2469
25200W        W44054   8.491   4.838  15.585  0.3726  0.2711  0.0251
25201W        W44055  16.981  10.468   1.702 -0.0443 -0.1249  0.0979
25202W        W44056  16.462  12.668  13.979  0.2573 -0.1404 -0.1898
25203W        W44057  15.918   5.735   3.890  0.0561  0.3262 -0.0168
25204W        W44058   8.943  14.377  16.137 -0.0055  0.3283 -0.1274
25205W        W44059  11.449   3.447  17.078  0.3530  0.1514 -0.0087
25206W        W44060   3.804  14.784  13.131 -0.0695  0.3083  0.1534
25207W        W44061   4.308   8.836   5.429  0.3378 -0.2734  0.0742
25208W        W44062   5.843   3.569  16.770 -0.0644 -0.0874  0.2968
25209W        W44063   6.010   5.678  11.896  0.2531  0.0568 -0.1317
25210W        W44064   2.871  10.897   0.943  0.1306  0.3704 -0.2483
25211W        W44065   8.869   9.458   0.687 -0.0685  0.2466 -0.4594
25212W        W44066  17.405  10.701  15.998  0.1365 -0.1680 -0.0645
25213W        W44067  15.838  16.676  15.397  0.1607 -0.0560  0.0654
25214W        W44068   5.883  11.732  12.838  0.1007  0.0412 -0.1166
25215W        W44069  12.832   9.400  15.807  0.0050 -0.1541  0.1226
25216W        W44070  16.937  10.152  14.631  0.0140  0.3009 -0.0318
25217W        W44071   8.157  15.725  12.206  0.0364 -0.0569  0.0341
25218W        W44072   4.725   1.959   2.714 -0.0066  0.1380 -0.3233
25219W        W44073   2.065  15.497   2.388  0.1091  0.0607  0.3367
25220W        W44074   8.950  15.063   1.117  0.1852 -0.0488  0.0234
25221W        W44075   2.651  17.367   2.409 -0.0561 -0.3254 -0.1373
25222W        W44076  10.628   7.066  13.765 -0.1281 -0.0274 -0.2130
25223W        W44077  16.623   5.884   1.526  0.0066  0.1116  0.2235
25224W        W44078  12.910   3.282   2.820 -0.2892 -0.1340  0.2652
25225W        W44079   3.889  14.010  12.461  0.1752 -0.0152  0.0792
25226W        W44080  14.608  10.702   1.588 -0.2079 -0.1472  0.2285
25227W        W44081  16.769   1.346  13.418  0.3185 -0.2989  0.0915
25228W        W44082  14.026  12.888  14.125 -0.1160 -0.1251 -0.2671
25229W        W44083  10.731   0.327  14.269  0.0830  0.2813  0.1038
25230W        W44084  13.399   4.787  16.540  0.0645 -0.0284 -0.0477
25231W        W44085  10.101   4.483   4.064 -0.1071  0.1296 -0.1860
25232W        W44086   2.522   3.255   0.036  0.0344 -0.0902  0.1661
25233W        W44087   9.209  11.830  17.383  0.3133 -0.2503  0.2426
25234W        W44088  12.682   7.951  16.493 -0.2152 -0.1782 -0.2899
25235W        W44089   3.833   8.369   3.040 -0.0137 -0.0440  0.1034
25236W        W44090  15.109  14.449  13.487  0.0227 -0.1129 -0.1771
25237W        W44091   8.978   7.922   4.723 -0.1630  0.1906 -0.1164
25238W        W44092   9.420   4.538  16.557 -0.1171  0.1220 -0.0361
25239W        W44093   3.262  11.083   0.721  0.1095 -0.2996  0.2186
25240W        W44094   2.535  16.366  13.480  0.2694 -0.1911  0.2205
25241W        W44095  16.954  15.345  13.871  0.2494  0.4185 -0.2803
25242W        W44096  13.013   6.270   4.887 -0.2209  0.0487  0.2167
25243W        W44097   3.824   6.058  15.131  0.0038  0.1674 -0.1262
25244W        W44098   8.493  11.888  13.643  0.1195 -0.0393  0.0545
25245W        W44099   6.572   5.641   2.209 -0.1486  0.1601 -0.3336
25246W        W44100  15.174  14.855   4.251 -0.2056 -0.2004  0.1303
25247W        W44101   1.520  12.853   1.332  0.0867  0.0337  0.1570
25248W        W44102  10.948   8.382  16.577  0.5103  0.1393  0.1752
25249W        W44103  12.734   6.213   0.939  0.2610 -0.1284 -0.2390
25250W        W44104   8.051   5.158  14.252  0.0278  0.0533 -0.1493
25251W        W44105   4.566  12.161   0.327  0.1224 -0.0522 -0.0812
25252W        W44106  14.436  10.115   3.167  0.1022  0.3567 -0.3414
25253W        W44107   3.594  13.010   3.329  0.1322  0.0986  0.2396
25254W        W44108  10.632   9.762  12.817 -0.2093  0.0970  0.0287
25255W        W44109  12.851   6.779   4.020  0.0666  0.2759  0.0852
25256W        W44110   8.575   6.952  15.752 -0.2196 -0.3336 -0.0452
25257W        W44111  16.354  13.055   0.737  0.0286  0.0235 -0.3679
25258W        W44112   4.377   3.366   2.988 -0.3315  0.0693  0.0922
25259W        W44113  15.930  13.567  16.301 -0.1215  0.2446 -0.0489
25260W        W44114   7.343   2.498  16.775 -0.0825  0.2372  0.3072
25261W        W44115  16.185   5.598   2.400  0.0248 -0.0659 -0.0522
25262W        W44116   5.462   2.419   4.518 -0.2219  0.0888  0.0932
25263W        W44117   4.332   0.003  13.477 -0.0165  0.3171  0.1063
25264W        W44118  14.359   6.134  16.086 -0.0856 -0.1074  0.1550
25265W        W44119   8.846   8.395  11.162  0.0306  0.0905  0.1532
25266W        W44120  12.749  14.281   4.690 -0.0092 -0.3397 -0.1690
25267W        W44121   7.936   6.247   2.351 -0.0130 -0.1688  0.0475
25268W        W44122   6.785  11.963  15.338 -0.0703 -0.0579 -0.1145
25269W        W44123  16.749   2.562   1.716 -0.4665 -0.0295  0.0967
25270W        W44124   0.915   9.835  15.239 -0.0281  0.0280 -0.0660
25271W        W44125   4.804  14.916   3.855 -0.3208 -0.0837  0.2334
25272W        W44126   8.130   4.638  17.307  0.0602 -0.4449 -0.2514
25273W        W44127   3.907   3.517   2.949  0.3915  0.0223 -0.0999
25274W        W44128   6.817  13.499   3.995  0.0697  0.0169 -0.1874
25275W        W44129  10.087   7.851   3.311  0.0434  0.0739  0.2576
25276W        W44130   6.098   3.793   0.371 -0.1571  0.0705  0.3340
25277W        W44131   2.822   7.968   1.562 -0.1447 -0.1739 -0.1938
25278W        W44132  13.576   2.235  12.701 -0.2723 -0.2598  0.1488
25279W        W44133   1.070   6.636  15.743  0.2251 -0.1982 -0.2329
25280W        W44134   5.878   4.963   1.202  0.1050  0.1441  0.2078
25281W        W44135   7.152  14.336  16.388  0.2388  0.3566  0.0868
25282W        W44136   4.869  16.834  16.682  0.1512  0.0359 -0.2230
25283W        W44137   1.621   1.644  17.198 -0.1361  0.0825  0.0911
25284W        W44138  13.011   0.392   0.950 -0.1648  0.0538  0.0920
25285W        W44139  13.053   2.041   4.631  0.0254 -0.2274 -0.0336
25286W        W44140   1.475   8.009   4.882 -0.0306  0.0818  0.1081
25287W        W44141  16.311   2.069   4.856 -0.0523  0.1950  0.0114
25288W        W44142   3.802   8.521   1.288 -0.1373  0.1201  0.3199
25289W        W44143  11.146  14.333   3.621 -0.1845 -0.1216  0.1576
25290W        W44144   0.424   2.435  17.322  0.2869 -0.0261 -0.2993
25291W        W44145   1.664   0.731  15.303  0.0963  0.0673  0.0673
25292W        W44146   0.363   9.162   3.848 -0.1532  0.0690 -0.1339
25293W        W44147   8.197   0.891  14.686 -0.0977  0.0404  0.2389
25294W        W44148  14.553  14.972   0.480  0.1512 -0.2403  0.2214
25295W        W44149   5.560  13.459  14.622 -0.4759  0.1220 -0.3386
25296W        W44150   9.606   6.946   0.127  0.0652 -0.0468 -0.1020
25297W        W44151   4.136  10.943  12.597  0.0233  0.1211 -0.0016
25298W        W44152  15.240  13.901  15.227  0.1177 -0.1859  0.2052
25299W        W44153  11.756   9.565  14.899 -0.4310 -0.1976 -0.2554
25300W        W44154  10.300   5.178  15.813  0.0766 -0.1903  0.1892
25301W        W44155  17.134  15.479   3.929 -0.2509 -0.0433  0.1684
25302W        W44156   4.603   8.573  14.792  0.0384 -0.2176  0.0667
25303W        W44157   2.026   2.968   1.303 -0.2968  0.0035 -0.1889
25304W        W44158   6.541   3.619  16.195  0.0996 -0.0969 -0.1531
25305W        W44159   7.015   2.821  17.033  0.1517 -0.1495  0.0242
25306W        W44160  11.062  13.988  16.104 -0.3932  0.1619  0.1178
25307W        W44161   6.165   2.162   1.742 -0.1500 -0.0617 -0.1411
25308W        W44162   7.322  13.506  12.602 -0.1012 -0.4270 -0.0208
25309W        W44163  13.740  14.741  13.849  0.1182  0.0851  0.0507
25310W        W44164   4.190  13.122  14.480  0.1347  0.1571 -0.2839
25311W        W44165  13.420  12.930   0.358  0.0788  0.1683  0.0138
25312W        W44166   8.616   5.985  17.425 -0.3551  0.0492 -0.0070
25313W        W44167  11.000   9.748  14.228 -0.2233 -0.2636 -0.0613
25314W        W44168   0.007   8.543   3.148  0.0817 -0.0152  0.1915
25315W        W44169  16.715   1.162  12.827  0.1169 -0.1179  0.0769
25316W        W44170   7.771  10.856  13.622  0.0769  0.1599 -0.1699
25317W        W44171  13.269  14.597  16.331  0.2456  0.1922 -0.1449
25318W        W44172  16.533  10.446  11.410 -0.1258  0.0374  0.0225
25319W        W44173   8.937  13.306   3.794 -0.1746  0.1071 -0.1829
25320W        W44174   6.624   1.229  16.607  0.1341  0.3019 -0.2558
25321W        W44175  12.817  11.761  15.581  0.0992  0.0258  0.0487
25322W        W44176  10.223   8.709   5.042  0.0741  0.1862  0.7080
25323W        W44177  12.969  14.316  13.305 -0.0662  0.1015  0.6380
25324W        W44178   2.609   5.343  16.649  0.0229  0.0240  0.1561
25325W        W44179   9.328   0.722  12.508 -0.0883 -0.2444  0.1254
25326W        W44180   4.002   2.424  13.146  0.2062 -0.0812  0.0796
25327W        W44181   3.609   7.991  12.720 -0.0141  0.0472 -0.0880
25328W        W44182  14.967   0.722   2.156  0.0826  0.0918  0.1282
25329W        W44183  11.118  15.629   0.677  0.1618  0.2539 -0.1751
25330W        W44184  11.888   3.720  17.087  0.0656  0.3799  0.0256
25331W        W44185  10.264   1.245  15.346 -0.0078  0.1380  0.1336
25332W        W44186  14.295  13.401  16.737 -0.0798 -0.2708  0.0947
25333W        W44187   6.670   7.413   3.434  0.1720  0.2044  0.0722
25334W        W44188   4.685  15.628   0.598 -0.0481  0.0919  0.1943
25335W        W44189  11.847  16.515  13.466  0.0177 -0.2772 -0.0538
25336W        W44190   4.028  14.533  14.918  0.1641 -0.0516 -0.0073
25337W        W44191   2.656  13.416   3.116 -0.5105 -0.1755 -0.0045
25338W        W44192   5.079  15.527   4.462 -0.0276 -0.1846 -0.0651
25339W        W44193   0.034   6.596   2.984  0.1122 -0.0644 -0.1411
25340W        W44194   3.197   0.614  14.835 -0.0880 -0.0813 -0.1034
25341W        W44195  17.135   8.466   1.796 -0.1241 -0.0682  0.0948
25342W        W44196   2.130   7.784  17.372 -0.1069  0.4753 -0.1193
25343W        W44197   1.959   2.939   0.078 -0.1320 -0.0942 -0.0564
25344W        W44198  15.625   1.623  12.965  0.1595  0.3082 -0.2628
25345W        W44199  11.050  10.305   4.152  0.1411 -0.2399  0.2099
25346W        W44200  10.321  16.309   0.232  0.0345  0.0435  0.1965
25347W        W44201  13.476  16.189   0.284  0.0803 -0.0121 -0.0023
25348W        W44202   8.635  12.251  14.999  0.1744  0.1936 -0.1015
25349W        W44203  16.477   8.062  17.342 -0.0694  0.0343  0.0466
25350W        W44204  17.170  11.629  14.182  0.1383 -0.0294  0.3452
25351W        W44205  10.894   2.817   4.717 -0.0806  0.1153  0.1532
25352W        W44206  11.920   2.027   4.294  0.3477 -0.1722 -0.1286
25353W        W44207   9.678  15.842   0.842  0.2903  0.3243 -0.1363
25354W        W44208  11.762   2.076  17.423  0.2671 -0.1143 -0.1633
25355W        W44209  10.080   1.272   0.322  0.0440  0.0893 -0.1137
25356W        W44210   4.120   3.935   2.316 -0.0199 -0.3927  0.2677
25357W        W44211   2.251   0.708  13.434  0.0352 -0.4515  0.0226
25358W        W44212   5.667  13.272   0.706  0.2739  0.2141  0.0874
25359W        W44213   7.073   4.502   2.926  0.2488  0.0826  0.1672
25360W        W44214   3.428  13.824  12.445 -0.1610 -0.2711  0.0381
25361W        W44215  17.091  16.652  17.453  0.0767  0.0727  0.4933
25362W        W44216   9.636   2.871  15.896  0.0340 -0.0509  0.0938
25363W        W44217  16.599  13.761  14.922  0.0707  0.2816 -0.0528
25364W        W44218   1.249   8.246   0.313 -0.2408 -0.2306 -0.3228
25365W        W44219   9.011  16.286   0.352  0.0005 -0.1504 -0.2370
25366W        W44220   1.378   8.497   3.483  0.2212 -0.1531  0.0381
25367W        W44221   3.503   2.014   3.719 -0.0141 -0.1743 -0.4652
25368W        W44222   3.958   1.251   1.690 -0.0393 -0.1181 -0.1744
25369W        W44223  13.500  17.165   4.046  0.1760  0.1061 -0.1991
25370W        W44224  17.129  15.159  15.461 -0.0351 -0.3618 -0.0353
25371W        W44225  10.332  12.705  14.377 -0.3429  0.1687 -0.0723
25372W        W44226  12.728  14.734  15.608 -0.0380 -0.1818  0.0940
25373W        W44227  10.967   6.399   2.323  0.0454 -0.0650 -0.0186
25374W        W44228  17.354  10.526  15.443  0.0516 -0.0277 -0.0674
25375W        W44229   7.422  11.700  14.247 -0.0210 -0.2915 -0.1427
25376W        W44230  13.621   0.673   2.177  0.1113 -0.2936 -0.0666
25377W        W44231   9.457   1.831   0.296 -0.1132  0.1788 -0.2249
25378W        W44232   5.981   2.927   3.728  0.0043  0.4647  0.1196
25379W        W44233   0.812  16.129  15.326  0.0747  0.0483  0.1163
25380W        W44234   0.850   8.996   2.185 -0.2350 -0.0017 -0.0263
25381W        W44235  17.165  15.558   2.619 -0.1413  0.1582 -0.0195
25382W        W44236  16.110  11.772  17.476  0.2922 -0.0234 -0.2890
25383W        W44237   0.346   4.472   2.912 -0.1242  0.0135 -0.3095
25384W        W44238   9.673   8.526   1.872  0.1398 -0.1033  0.0942
25385W        W44239   2.521   8.821   1.386  0.0291 -0.0813 -0.4882
25386W        W44240  13.848  14.057  12.776 -0.1766 -0.0906  0.2010
25387W        W44241   6.201   3.523   2.229 -0.1247 -0.0528  0.0760
25388W        W44242   8.816   8.104   1.150  0.0199 -0.1253  0.0784
25389W        W44243   1.610   8.350   4.454  0.0788 -0.1588 -0.1049
25390W        W44244   3.431   4.629  14.929 -0.1124 -0.1336  0.0970
25391W        W44245  16.178  13.764  15.279  0.1254 -0.0255 -0.1059
25392W        W44246   9.922   6.230  12.952 -0.4049 -0.0679  0.0825
25393W        W44247   3.516  12.571  17.340 -0.1768  0.1856  0.0285
25394W        W44248   9.385   4.732   0.374  0.1145 -0.0781 -0.1760
25395W        W44249  15.182   9.801  16.907  0.1183 -0.0612  0.1500
25396W        W44250  13.098   4.528   2.285 -0.0104  0.1636 -0.3060
25397W        W44251   1.800  12.242   4.555 -0.1352 -0.0867  0.0504
25398W        W44252   2.906  16.517  16.737 -0.2878  0.0905 -0.0666
25399W        W44253   4.301  11.025   2.154 -0.0955 -0.1783  0.2444
25400W        W44254  11.253  15.979  14.054 -0.2389  0.4056  0.1292
25401W        W44255   8.761   3.256  16.806  0.1110 -0.0905  0.0040
25402W        W44256  13.229   8.064   3.830 -0.2346 -0.2198 -0.0482
25403W        W44257  15.752  16.144  17.482  0.0403 -0.2723  0.0294
25404W        W44258   3.040   3.536   0.977  0.0948 -0.0291  0.2852
25405W        W44259  14.965   9.451  13.397  0.1715 -0.3568 -0.0467
25406W        W44260   4.724  15.816  15.782 -0.0268  0.1847  0.1031
25407W        W44261   0.602   1.859  16.280 -0.2363 -0.0940 -0.0343
25408W        W44262   7.968  10.067  13.702  0.5238 -0.4401 -0.1418
25409W        W44263   0.962  14.975   1.706  0.2076  0.3274 -0.0198
25410W        W44264   7.142  14.521   2.778  0.0133 -0.1903  0.0397
25411W        W44265  10.771  11.092   4.193 -0.1007 -0.0238  0.4988
25412W        W44266  17.241   1.738   3.780 -0.1850 -0.4871 -0.1075
25413W        W44267   8.350   0.203   0.167  0.2103  0.0080  0.0498
25414W        W44268  11.976   7.984   1.495 -0.0497  0.0535  0.4238
25415W        W44269  10.583   0.817  16.620 -0.0690 -0.0060 -0.0568
25416W        W44270   8.581   0.545   3.134 -0.0879 -0.1087  0.2421
25417W        W44271  14.083   6.428  13.509 -0.1070 -0.1587  0.4925
25418W        W44272   1.928   7.950   2.050  0.0001  0.1355 -0.2170
25419W        W44273  14.261   2.476   2.179  0.0833 -0.2908  0.1929
25420W        W44274   1.177   7.675  17.194 -0.2272 -0.0023  0.2658
25421W        W44275   1.607   2.479  14.898 -0.0991 -0.2572 -0.4151
25422W        W44276   5.786  10.521   4.611  0.0256  0.1401 -0.0050
25423W        W44277   6.649  10.731  16.991  0.0003  0.1203 -0.0261
25424W        W44278   9.332   6.214   1.345 -0.0119 -0.3098  0.0240
25425W        W44279   6.244  14.205   4.766 -0.0968 -0.0333 -0.0122
25426W        W44280   4.174  10.760   5.214 -0.2606  0.1372 -0.1283
25427W        W44281   3.969  13.228   3.077 -0.0146  0.2377 -0.0309
25428W        W44282   0.185   5.456  14.658  0.0813  0.1693  0.0209
25429W        W44283   4.627   6.427  13.170  0.2963  0.1998  0.0578
25430W        W44284  13.518   8.573  12.491 -0.0394  0.0879  0.0962
25431W        W44285   1.685  15.489   2.747 -0.1428  0.1496 -0.2212
25432W        W44286   6.655   8.244  15.112  0.2204  0.0539 -0.1681
25433W        W44287  16.755   1.908  13.947 -0.0804 -0.2393 -0.0078
25434W        W44288   7.572   4.017   2.461  0.0067  0.3315 -0.2105
25435W        W44289  16.867   5.748   0.236 -0.0547  0.1874 -0.4088
25436W        W44290  15.793   6.934  16.772  0.1841  0.0906  0.0406
25437W        W44291   6.637   1.531  15.270 -0.1446 -0.0841  0.1040
25438W        W44292   0.979   8.049   3.232  0.1316  0.0507 -0.0384
25439W        W44293   3.776  13.545   4.672 -0.2192 -0.1031  0.1350
25440W        W44294   6.595   4.638   1.629  0.1119 -0.0897 -0.2872
25441W        W44295  15.499   6.178  12.952 -0.0116 -0.3486  0.6487
25442W        W44296   6.872  11.579   1.112 -0.1983  0.3982  0.0292
25443W        W44297  10.911  12.228  12.734  0.1058  0.1087 -0.2499
25444W        W44298  14.466   3.613  17.339 -0.0974 -0.1419  0.0035
25445W        W44299  14.856  17.178  15.067 -0.0064 -0.3072 -0.1269
25446W        W44300   6.834   6.871  12.399  0.3369 -0.1523  0.1415
25447W        W44301   2.501   5.792   2.571 -0.1774  0.2118  0.0844
25448W        W44302   9.116   2.720   1.519  0.2890  0.3098  0.0965
25449W        W44303  10.450  15.164   5.150 -0.0606 -0.1473  0.1512
25450W        W44304  11.977  16.535   2.051  0.1602 -0.0648  0.0778
25451W        W44305  15.917   8.010   2.534 -0.0135 -0.1195  0.0813
25452W        W44306   6.874   0.627  15.038  0.0261 -0.1333  0.1909
25453W        W44307  11.149   7.861   0.915 -0.1554 -0.2755 -0.3447
25454W        W44308   6.123   2.607   5.628  0.0474  0.1428  0.0912
25455W        W44309   3.409  12.601  13.286 -0.1572 -0.1081  0.0564
25456W        W44310  14.354  10.846  15.437  0.1814 -0.0184  0.2581
25457W        W44311   5.906  17.304  12.892 -0.2171 -0.1923  0.0737
25458W        W44312  11.051  11.942   3.554  0.0849  0.1302 -0.1657
25459W        W44313  14.600  10.025  13.673 -0.2425 -0.2971 -0.4392
25460W        W44314   1.177  16.648   0.011 -0.2179  0.4309 -0.2822
25461W        W44315   0.808   6.481   4.296  0.2306  0.0868 -0.2777
25462W        W44316   7.410  15.896   0.774  0.1230 -0.0215  0.0454
25463W        W44317   7.033   5.750   2.474 -0.2586  0.1750 -0.0650
25464W        W44318  11.090   8.369   2.584  0.1651  0.0005 -0.1088
25465W        W44319   7.746  13.336   5.118 -0.0836 -0.4069  0.0683
25466W        W44320  11.459   3.961   5.443  0.0203  0.0304 -0.2046
25467W        W44321   1.196   8.087  16.488  0.0204  0.0789 -0.1617
25468W        W44322  16.384   6.347  14.226  0.1895 -0.1129  0.0737
25469W        W44323   7.354   0.389  14.793  0.3665  0.3521  0.1039
25470W        W44324   5.039   0.573  17.395  0.0245  0.1089 -0.1274
25471W        W44325  17.063  14.462  14.117  0.1493  0.2490  0.1599
25472W        W44326   0.907  16.656   1.504 -0.1359  0.0919 -0.2054
25473W        W44327   6.341  11.452   1.371 -0.0384 -0.0407  0.1786
25474W        W44328  11.449  16.662   4.072  0.0785 -0.0660 -0.3510
25475W        W44329   3.713   2.364  15.679  0.2452  0.0766  0.0317
25476W        W44330   6.545   1.322  14.801 -0.0027  0.1729 -0.1971
25477W        W44331   5.853   2.598   1.961  0.0541  0.0655  0.0327
25478W        W44332  12.416   1.784   4.092 -0.0765 -0.2680 -0.0107
25479W        W44333   3.544   4.832   1.569 -0.1341  0.0926 -0.0346
25480W        W44334  12.466  10.776  11.886 -0.2888 -0.0299 -0.0893
25481W        W44335   6.415  17.089   1.356  0.0303 -0.0324 -0.0589
25482W        W44336  10.423   9.717  15.348  0.3312  0.1408  0.0219
25483W        W44337   5.126  16.621  15.620  0.0056 -0.0519  0.2364
25484W        W44338   9.521  11.842  14.469  0.2109  0.1943 -0.0441
25485W        W44339  16.573  12.533   4.246  0.1340  0.2394 -0.1502
25486W        W44340   7.021  15.740   0.417 -0.0152 -0.0138  0.0767
25487W        W44341  14.216  13.165  17.204 -0.0606 -0.2206 -0.0759
25488W        W44342  16.957   7.824  15.703 -0.2671  0.1324  0.2397
25489W        W44343   1.393  11.083   2.243 -0.0715 -0.0292 -0.0480
25490W        W44344   2.907   1.773   2.513  0.0581  0.0718 -0.1555
25491W        W44345   9.308  10.713  14.773  0.0223 -0.2218 -0.3185
25492W        W44346   0.420   7.282   0.606 -0.3479  0.1278  0.0012
25493W        W44347   5.272   6.329  16.682 -0.0120 -0.1554 -0.1143
25494W        W44348   8.970   4.727   3.142 -0.2226  0.1092  0.0117
25495W        W44349   3.785  12.575   2.979  0.1465  0.0381  0.1278
25496W        W44350   1.146  12.986   2.447  0.3226  0.1596 -0.1458
25497W        W44351   0.504   7.300   1.333  0.0003  0.1108 -0.0753
25498W        W44352   5.319   2.013   3.409 -0.1360  0.1404 -0.2433
25499W        W44353   1.102   0.579  13.141 -0.1666  0.3549 -0.0713
25500W        W44354   1.491   8.586   1.363  0.2701  0.1752  0.0499
25501W        W44355   7.125   0.751  17.327 -0.1908 -0.1327  0.1394
25502W        W44356   9.753   4.678  12.770  0.0601 -0.2178 -0.2538
25503W        W44357  16.042   9.201  16.050 -0.3843  0.3309 -0.3171
25504W        W44358   5.774   3.746   1.980  0.0637 -0.1028 -0.0919
25505W        W44359   7.186   3.723  16.632  0.0841 -0.1457 -0.1129
25506W        W44360   3.324   7.322  16.442  0.2067 -0.0869 -0.1619
25507W        W44361  14.407  16.841   4.908 -0.0691 -0.0526 -0.0488
25508W        W44362  16.835   3.889   5.373 -0.0413  0.0508 -0.0686
25509W        W44363  14.051   4.412   1.291  0.0083  0.0600  0.1599
25510W        W44364   8.331   4.641  12.809 -0.0394 -0.0014 -0.0496
25511W        W44365   1.062   1.327   4.958  0.1561  0.0488  0.3051
25512W        W44366  10.028  10.703  13.272 -0.0458 -0.0878  0.0221
25513W        W44367  12.174   2.829  13.794 -0.1546 -0.4896  0.3348
25514W        W44368   9.092   0.481  15.680  0.2125  0.0046 -0.2545
25515W        W44369   3.879   6.564   1.473  0.0022  0.1152 -0.2261
25516W        W44370   9.759   9.905  16.196 -0.0531 -0.1682  0.1988
25517W        W44371   8.012   3.543  12.226 -0.1191  0.0106 -0.0443
25518W        W44372  15.470   7.354   2.232  0.3796  0.0227  0.0838
25519W        W44373   6.149   6.998  14.409  0.1346  0.1310 -0.3271
25520W        W44374  14.344  11.063  16.403 -0.2576  0.1129  0.2539
25521W        W44375  10.668   5.096  16.786  0.5721  0.1722  0.2012
25522W        W44376   8.249  11.868   5.017 -0.0598  0.2581 -0.1438
25523W        W44377   1.497   6.956   0.100  0.1458 -0.0214  0.1647
25524W        W44378  11.688   3.326   3.763  0.0025  0.2421 -0.1533
25525W        W44379   6.101   0.695  15.088 -0.2494  0.1831  0.2385
25526W        W44380   3.852   1.105   2.510 -0.1247  0.1021  0.2139
25527W        W44381   4.644   7.051  16.653 -0.2189 -0.2679 -0.1388
25528W        W44382  14.170   5.069   0.674  0.0590 -0.1050  0.0424
25529W        W44383   7.044  13.371  14.233 -0.0844 -0.1560  0.2607
25530W        W44384  13.526  15.717   3.665  0.0511  0.1332  0.0598
25531W        W44385   4.472  11.606   0.328 -0.0013 -0.0358 -0.2012
25532W        W44386   7.711   6.262  16.482 -0.0540  0.0431 -0.0136
25533W        W44387  15.435   3.619   3.614 -0.0047 -0.1072  0.4007
25534W        W44388  12.248  12.268   3.336  0.1410 -0.1030 -0.1124
25535W        W44389   1.065  10.655  17.191 -0.2105  0.0966  0.0339
25536W        W44390   2.739  11.668  14.806  0.4327  0.2037  0.0774
25537W        W44391   3.174   9.968  13.192 -0.0926  0.1931  0.2308
25538W        W44392   7.974   8.296  13.930 -0.0090 -0.2099 -0.0883
25539W        W44393  16.975   3.280   0.672  0.0718  0.0273  0.2111
25540W        W44394   5.834  15.292   1.346 -0.1337  0.2985 -0.2790
25541W        W44395   3.811  12.251   3.402 -0.0797 -0.0284 -0.4657
25542W        W44396   8.282   8.527  15.408 -0.0351  0.1635 -0.0356
25543W        W44397  14.849   1.977  16.360  0.0540  0.3028 -0.1593
25544W        W44398  11.508  11.444   3.542  0.2797 -0.0395 -0.3191
25545W        W44399   9.116   0.556   3.048 -0.1577 -0.1751  0.2378
25546W        W44400   1.427  13.799   0.637  0.3171 -0.0487 -0.2590
25547W        W44401  10.696   3.599  15.944 -0.1167 -0.2197  0.2713
25548W        W44402   8.562   4.442  13.580  0.5022  0.0974 -0.0261
25549W        W44403   9.792  12.341  12.376 -0.0245 -0.0712 -0.1339
25550W        W44404   9.878  15.097   0.898  0.1586  0.4106 -0.1245
25551W        W44405  13.201   1.672   4.147  0.1719 -0.1254  0.2189
25552W        W44406  13.924  12.907   0.287 -0.2726 -0.5520 -0.0538
25553W        W44407  14.551   3.000   3.029 -0.1893 -0.0287  0.1197
25554W        W44408   5.311   0.082  13.468 -0.1847 -0.2597 -0.1029
25555W        W44409  12.422  14.635   1.196  0.0647  0.1251  0.0678
25556W        W44410  10.758   6.560   3.343 -0.3025  0.0637 -0.0084
25557W        W44411  12.553   5.060  16.743 -0.0177 -0.0794  0.1244
25558W        W44412  16.757  12.007   4.303 -0.1043  0.0068 -0.0618
25559W        W44413   4.177   3.941   1.254  0.0373 -0.4240  0.1472
25560W        W44414  16.355  13.811  16.622 -0.0486  0.0077  0.1736
25561W        W44415   1.597   6.648   1.787 -0.2501 -0.1382 -0.2175
25562W        W44416  14.330   1.431  15.802 -0.1826 -0.1458  0.1255
25563W        W44417  14.428   5.392  14.107 -0.2344 -0.1155  0.2131
25564W        W44418   7.230   8.017  13.373 -0.0028  0.0348 -0.2425
25565W        W44419   9.774   8.638  16.407  0.1531 -0.1220  0.2440
25566W        W44420   3.696  11.282  14.439  0.0146  0.0488  0.0363
25567W        W44421   7.482  11.440   2.371 -0.0081 -0.0058  0.1998
25568W        W44422   8.463  15.214  16.600 -0.1390 -0.0515 -0.1780
25569W        W44423   2.352   3.477  15.584 -0.5030 -0.3308 -0.3190
25570W        W44424   4.327   9.207   4.519  0.1708  0.0244  0.3979
25571W        W44425  14.896   1.768   2.095 -0.1901  0.1996  0.3105
25572W        W44426   3.015  12.514  14.204  0.2000 -0.1218  0.0929
25573W        W44427  14.831  10.213   4.222  0.2209  0.2094 -0.3355
25574W        W44428   2.688  10.003   0.549  0.0551  0.1264 -0.1488
25575W        W44429   8.353  13.970  16.029  0.2115  0.2548 -0.1685
25576W        W44430  11.800   4.391   4.808 -0.0714  0.0934 -0.2939
25577W        W44431   5.969  16.094  14.178 -0.2654 -0.2684  0.0993
25578W        W44432  12.209  14.722  16.380 -0.1204 -0.0945 -0.1791
25579W        W44433  13.536  11.942   2.529 -0.0456  0.4646 -0.0447
25580W        W44434   2.429  12.807  15.544  0.0396 -0.2394 -0.2404
25581W        W44435  15.835  13.249   2.635  0.2589 -0.0965  0.0461
25582W        W44436  12.109   6.976  16.343  0.0776 -0.1498 -0.2135
25583W        W44437   5.707   3.363   4.752  0.0387 -0.1058 -0.0890
25584W        W44438  11.333   5.018   1.653 -0.0903 -0.2319 -0.1885
25585W        W44439   5.096  12.583   1.779  0.1401  0.1488 -0.2239
25586W        W44440  10.613  13.857  17.011 -0.3394 -0.1226  0.3475
25587W        W44441  16.101  15.694   4.176 -0.1879 -0.1606  0.1187
25588W        W44442  12.070   6.069   1.536  0.2837  0.0028 -0.0988
25589W        W44443   4.771   8.150  14.506 -0.0083  0.1543  0.2537
25590W        W44444   8.798  10.801   0.441 -0.1176  0.1867  0.1036
25591W        W44445   6.135   9.152  16.341  0.0907 -0.1458 -0.1976
25592W        W44446  14.008   8.059   3.478  0.0740 -0.1425  0.2983
25593W        W44447   1.929  15.494  13.842 -0.0046  0.0679  0.0753
25594W        W44448  12.774  11.903   3.813 -0.0947 -0.0407 -0.2334
25595W        W44449  10.939  16.067  12.492 -0.0059  0.0903  0.2027
25596W        W44450  17.277   3.626   1.435  0.1919 -0.0845  0.1956
25597W        W44451  16.261  12.717  17.241  0.0551  0.0864  0.2023
25598W        W44452  14.923  13.592  13.254 -0.0599  0.1065  0.1136
25599W        W44453  12.925  16.928   5.025 -0.1949 -0.0726 -0.1268
25600W        W44454   9.143   5.145   3.925  0.0215  0.2791  0.0360
25601W        W44455  12.752   7.415  14.613 -0.3245  0.0072 -0.1990
25602W        W44456   3.240   0.376   1.261 -0.1502 -0.1936  0.0987
25603W        W44457   8.790  12.802  17.468 -0.1962 -0.0021  0.2039
25604W        W44458   4.797   4.395  16.377 -0.1781 -0.2271 -0.0794
25605W        W44459  16.522   9.598  17.359 -0.0475 -0.1867  0.0769
25606W        W44460  15.862  11.815   3.443 -0.0799 -0.2472 -0.1224
25607W        W44461   5.682   1.828  12.839 -0.0418  0.0059  0.1306
25608W        W44462  10.941  11.234   2.778 -0.1508 -0.0268 -0.1897
25609W        W44463   9.560  13.076   1.705  0.0670  0.1549  0.2496
25610W        W44464   0.100  15.795   0.770 -0.0259 -0.1025 -0.1402
25611W        W44465   5.468  10.206  17.313  0.0396  0.0970 -0.0186
25612W        W44466   7.078   6.258  17.047 -0.0302  0.0615 -0.0080
25613W        W44467  11.560  16.028  13.438  0.1147  0.0833 -0.1941
25614W        W44468   4.092   6.918  14.843  0.4791  0.0247 -0.0589
25615W        W44469   5.450   7.639   1.558 -0.1633 -0.2769  0.0162
25616W        W44470   0.898  15.226   5.752  0.1536 -0.0972 -0.1559
25617W        W44471  12.719   8.136  12.134 -0.0088 -0.2790  0.0425
25618W        W44472   7.503   3.225  13.040  0.2249  0.1407  0.4662
25619W        W44473  13.879   5.687   2.692  0.1880  0.2102 -0.0605
25620W        W44474   6.931  12.784   4.779  0.1655 -0.0347 -0.2815
25621W        W44475   0.829   1.846  14.641  0.0281 -0.1930 -0.1027
25622W        W44476   4.928  14.236   0.574 -0.0776  0.0591 -0.2739
25623W        W44477   3.138  12.017  14.137  0.0881 -0.1620  0.1290
25624W        W44478   1.593   9.788   4.995  0.0547  0.0474 -0.1468
25625W        W44479   1.459  11.596  13.564  0.5247 -0.1972  0.0345
25626W        W44480   4.538  15.327  13.073 -0.0697 -0.0983 -0.1550
25627W        W44481   7.256   3.122   3.034 -0.2048 -0.2205 -0.1391
25628W        W44482   0.102   3.616  16.170 -0.2193  0.0971  0.0345
25629W        W44483  14.402   3.121   1.976  0.0232 -0.1187  0.0220
25630W        W44484   0.369   8.942   5.157 -0.1261 -0.0463  0.0578
25631W        W44485  12.709   2.025  16.589 -0.1648  0.0526  0.1591
25632W        W44486   1.173   9.196   1.429  0.0142  0.2672  0.1324
25633W        W44487   1.656  15.945  13.088 -0.2782 -0.1792 -0.1587
25634W        W44488   6.144  10.533   4.242 -0.0152  0.0247  0.0782
25635W        W44489   7.707   8.446   2.845 -0.3048  0.2630  0.0535
25636W        W44490   9.106  16.445  14.045  0.2126 -0.0373 -0.1593
25637W        W44491   3.232  13.314  16.808  0.3073  0.2890 -0.3437
25638W        W44492   4.164  14.475   6.321 -0.1502  0.0369  0.0434
25639W        W44493   5.849  14.633  12.935  0.0213  0.0326 -0.1451
25640W        W44494   6.619   4.284  15.880  0.2572  0.4624 -0.0149
25641W        W44495   3.037   4.260   0.236  0.1497 -0.0505 -0.0770
25642W        W44496   2.787  11.610   0.111 -0.0097  0.0891  0.0265
25643W        W44497   3.043   8.061  13.923  0.0072  0.0153 -0.1682
25644W        W44498  10.912  10.602   2.645 -0.1180  0.0039 -0.0834
25645W        W44499   1.311  14.552   5.366 -0.0738  0.1368 -0.1402
25646W        W44500   2.399   6.670   1.653 -0.1832  0.2227 -0.1268
25647W        W44501   9.759  16.456   1.038  0.1635 -0.0624  0.1986
25648W        W44502   3.913  15.285   0.169  0.0078 -0.1141 -0.0568
25649W        W44503  10.666   9.656  16.395  0.0276 -0.0000 -0.2779
25650W        W44504  10.947   3.817  15.436  0.0253 -0.1588  0.1567
25651W        W44505   9.172  13.978   3.080 -0.2022  0.1126  0.3319
25652W        W44506   6.432   7.216  15.383  0.0514  0.0481  0.1443
25653W        W44507  14.729  10.358   5.151 -0.0829 -0.1016  0.2304
25654W        W44508   6.107  11.443   4.791  0.2007 -0.2082 -0.1460
25655W        W44509  12.793  10.982   4.308 -0.1277  0.0273  0.1973
25656W        W44510   3.649  13.328   4.275 -0.0791  0.0116  0.1122
25657W        W44511  12.089   0.865   6.157 -0.2490 -0.0186  0.1399
25658W        W44512  12.146   8.491  11.024 -0.0813  0.0675 -0.2605
25659W        W44513   7.038   0.502  16.918 -0.0945 -0.1701 -0.1159
25660W        W44514   1.442   9.693  12.789 -0.2420 -0.1058  0.0006
25661W        W44515   2.117  16.798   0.816  0.1802 -0.2860  0.0004
25662W        W44516   4.943   4.253   1.732  0.0198  0.3263  0.0450
25663W        W44517  11.639  15.759   0.582 -0.0669 -0.1461 -0.3605
25664W        W44518  10.053   0.757   0.648  0.0123 -0.4032 -0.1498
25665W        W44519  12.763   2.694  15.834  0.0889  0.1396 -0.1920
25666W        W44520  16.548  10.276   4.577 -0.1672 -0.2190 -0.1033
25667W        W44521   9.436   6.112   3.950 -0.1499 -0.4091  0.1066
25668W        W44522  16.844   8.234   3.315 -0.0843  0.0510 -0.0382
25669W        W44523   9.157  15.642  17.156 -0.0754  0.3151 -0.3208
25670W        W44524  11.216   8.489  15.523 -0.0960 -0.0337  0.2553
25671W        W44525  15.983   2.327  13.106  0.1487  0.0263 -0.0459
25672W        W44526  14.346   0.795   4.006  0.1026  0.3172 -0.0679
25673W        W44527  10.918  10.521  16.056  0.2632 -0.1889 -0.1415
25674W        W44528  16.449   4.157  12.211 -0.1856  0.1661  0.2279
25675W        W44529   4.020   7.642   3.692 -0.0826  0.0106 -0.2133
25676W        W44530  15.046  13.068   4.632 -0.2668 -0.1486 -0.0274
25677W        W44531   0.864   1.334  15.934  0.4531  0.1549  0.0675
25678W        W44532   7.597  15.813   2.697 -0.0161 -0.0462  0.2522
25679W        W44533   0.986   3.494  13.167  0.0377  0.1387  0.2315
25680W        W44534  12.950  15.100  12.190 -0.3074  0.0075 -0.0826
25681W        W44535  15.418  13.323  15.913  0.4294 -0.0611  0.2056
25682W        W44536  11.448   8.110   3.715 -0.0329 -0.0982 -0.0457
25683W        W44537  13.872  13.467  14.868  0.0080 -0.0817  0.1324
25684W        W44538   7.624  11.554   1.748 -0.1735  0.0672  0.2237
25685W        W44539  12.788  15.757   4.371 -0.0317 -0.2065 -0.2876
25686W        W44540  14.712  10.477  15.138  0.0765 -0.3237 -0.1198
25687W        W44541   2.292   9.393   4.489 -0.0187  0.2055  0.0997
25688W        W44542  16.498   2.312  17.291  0.0636 -0.0666  0.0853
25689W        W44543   8.534  14.234  14.562 -0.1565  0.0207 -0.3403
25690W        W44544  14.455   6.206  16.903  0.0537  0.1273  0.2928
25691W        W44545   2.640  12.311   0.734  0.0002 -0.0514  0.1800
25692W        W44546   6.184  12.140   0.237 -0.0547  0.3283 -0.0546
25693W        W44547  14.133  16.749   0.195 -0.2031 -0.0683  0.2385
25694W        W44548  16.527  15.067  13.550 -0.0509  0.1032  0.1088
25695W        W44549   7.791   4.029  13.371 -0.0789 -0.0347  0.1594
25696W        W44550  11.516   1.039   3.502 -0.0298 -0.0232 -0.0735
25697W        W44551  13.712   4.750  15.759  0.3923  0.2525 -0.4345
25698W        W44552   9.129   8.720   0.376  0.0243  0.0624 -0.0077
25699W        W44553   1.227   1.412   3.890 -0.1167  0.3640  0.3473
25700W        W44554  12.738  14.774  16.954 -0.1459  0.1254 -0.0703
25701W        W44555  16.355   2.456   5.170  0.0985 -0.2585 -0.0557
25702W        W44556   5.733  12.643   1.845 -0.3452 -0.0591 -0.3360
25703W        W44557  11.274   8.788   3.842 -0.0568  0.1350  0.0448
25704W        W44558  16.598  15.152  15.412 -0.0458  0.0357 -0.2650
25705W        W44559   8.575   4.879   2.843 -0.0466 -0.2209  0.1074
25706W        W44560  14.826  15.672  14.869 -0.0216 -0.1058  0.0957
25707W        W44561   5.275   2.626  15.348  0.0613  0.2338  0.3117
25708W        W44562  11.436   0.184   1.239  0.3142  0.2444  0.4827
25709W        W44563   4.359  14.783  13.257 -0.2601 -0.1385 -0.5841
25710W        W44564  16.167   3.335   4.060  0.0690  0.1212 -0.1143
25711W        W44565   6.798   4.865   2.193 -0.1475 -0.1500 -0.1825
25712W        W44566  14.813   2.608   3.233  0.0552 -0.2012 -0.0467
25713W        W44567  14.830   6.572  12.077 -0.1851  0.0896  0.0574
25714W        W44568   4.859   3.220  12.287 -0.0406  0.1102 -0.1022
25715W        W44569  14.104  10.132  14.015 -0.1824 -0.2590 -0.0804
25716W        W44570   0.259  13.071  14.769 -0.4615  0.1662  0.1715
25717W        W44571   5.142  10.651   1.715 -0.0388  0.0878 -0.0752
25718W        W44572   9.281  16.962  12.479 -0.1016 -0.0596 -0.0277
25719W        W44573   6.365   9.301  14.538 -0.2505 -0.0113  0.0062
25720W        W44574  13.205  10.548  13.101  0.0790  0.0387 -0.0264
25721W        W44575   1.130  10.614   3.293  0.0095 -0.0565 -0.1252
25722W        W44576   3.622  13.933  12.908  0.1019 -0.4127 -0.4422
25723W        W44577  13.725   1.435  13.050 -0.1670  0.0758  0.1722
25724W        W44578   7.799   1.135  13.806  0.2226  0.2234 -0.1218
25725W        W44579  14.978  10.682  13.865 -0.1145 -0.2206  0.2087
25726W        W44580  12.041   2.361  15.721 -0.2995 -0.1723  0.1497
25727W        W44581  12.228   9.670  16.574 -0.2391 -0.1219  0.1468
25728W        W44582   7.416  12.525   2.674 -0.0079 -0.0291  0.0255
25729W        W44583  15.277   5.096   1.438  0.1336 -0.2589  0.0545
25730W        W44584  12.561   0.662  13.519  0.1177  0.0210 -0.3104
25731W        W44585  11.399   9.583  15.937  0.2974  0.1424 -0.4485
25732W        W44586   2.530  16.954  15.117  0.0584  0.1841 -0.3739
25733W        W44587   1.469  12.187   0.369  0.1291  0.5334  0.1938
25734W        W44588   6.262   4.912   4.446  0.0888 -0.0374 -0.2325
25735W        W44589  10.992  11.966  11.029 -0.1034  0.2107 -0.0093
25736W        W44590   1.274  11.044  16.579  0.1918  0.3157 -0.0198
25737W        W44591  13.518  14.754   2.610  0.3088 -0.1036  0.0932
25738W        W44592   5.268  11.728   2.887 -0.2048  0.0804 -0.0519
25739W        W44593  14.572   7.302  13.185  0.0986  0.0300  0.0417
25740W        W44594   0.181  16.247  13.212 -0.1744 -0.0207  0.2128
25741W        W44595   1.808   1.768   3.525  0.1717  0.0286 -0.0373
25742W        W44596   0.307  12.549   1.267  0.2208  0.0458 -0.2417
25743W        W44597   8.257   3.973  13.553  0.0715  0.1712  0.0624
25744W        W44598  11.914   8.232  12.738  0.3849 -0.1296 -0.2361
25745W        W44599  12.888   6.185  13.352 -0.0911 -0.2106  0.0131
25746W        W44600   7.643  16.103   2.162 -0.1480 -0.1542  0.0067
25747W        W44601  11.214  17.067   6.214  0.3135  0.1194 -0.1409
25748W        W44602  11.112   9.719  13.073 -0.1791  0.1622 -0.0351
25749W        W44603   9.517   6.419   2.200 -0.2720  0.1126  0.0493
25750W        W44604  12.500   3.644   3.515 -0.1302 -0.1310  0.0865
25751W        W44605   7.089  12.644  12.987 -0.3190  0.1385  0.3647
25752W        W44606  16.497   3.609  16.390  0.0168  0.2397  0.3343
25753W        W44607   6.196  10.938  14.765  0.0077 -0.0412  0.0207
25754W        W44608   4.879   9.938  16.538 -0.2305  0.1238 -0.1954
25755W        W44609  14.264   4.633  12.692  0.1333 -0.5813  0.0803
25756W        W44610   8.515  12.528  16.073  0.1279 -0.1323  0.2823
25757W        W44611   8.478  10.601  15.286 -0.0170  0.0873 -0.0306
25758W        W44612  11.766  10.673  13.110 -0.1552 -0.1883 -0.0319
25759W        W44613   4.128   9.196   1.741 -0.1865  0.0098  0.0191
25760W        W44614  12.217   5.538   4.102  0.0816 -0.0781  0.6099
25761W        W44615   3.837  11.807   3.221 -0.3162 -0.1037  0.0125
25762W        W44616  10.165   5.370   1.033 -0.2177  0.2058 -0.1762
25763W        W44617   7.876  11.301   4.297 -0.1005  0.1732 -0.0031
25764W        W44618   2.601   5.531   5.459 -0.1021 -0.0092  0.0696
25765W        W44619   0.340   9.777   1.339 -0.0939 -0.0013 -0.0545
25766W        W44620  15.383   7.147   4.589 -0.0114  0.6292 -0.0297
25767W        W44621  11.627   8.417   0.982 -0.0014  0.0069 -0.0714
25768W        W44622   7.277   2.721  12.324 -0.0844  0.1017  0.0811
25769W        W44623  13.660  15.399  15.844 -0.0276 -0.1188 -0.0160
25770W        W44624   4.108   8.936   2.157  0.1986  0.3908  0.1162
25771W        W44625  12.242  11.112   4.507  0.1850 -0.0228 -0.2483
25772W        W44626  17.216   4.307  14.039 -0.1388  0.1343 -0.1698
25773W        W44627  10.131   5.994   1.833  0.2222  0.1420  0.0324
25774W        W44628   7.431  14.184   4.115  0.2481  0.2733 -0.1443
25775W        W44629   7.082   9.724   3.738  0.0659 -0.1748 -0.2348
25776W        W44630  10.986  12.376   4.356  0.3588  0.0208  0.1027
25777W        W44631  12.177   3.060   5.115 -0.1154  0.3634 -0.1968
25778W        W44632   0.236  11.866  16.967  0.1406  0.2251 -0.0784
25779W        W44633   8.860   3.337  12.844  0.0944 -0.1201  0.0672
25780W        W44634   6.268   9.589  15.457 -0.2897 -0.1282 -0.3196
25781W        W44635   0.008   9.105  13.082 -0.2109 -0.0214 -0.2072
25782W        W44636  14.017  11.573  12.584  0.2582 -0.0384  0.0585
25783W        W44637   7.306   4.522  14.156  0.1902  0.3210 -0.1829
25784W        W44638   5.388  14.538  13.531 -0.2092  0.2700 -0.2687
25785W        W44639   0.935  16.654  15.404  0.0939 -0.1595 -0.2124
25786W        W44640   6.567   5.848   0.270 -0.2188 -0.0382 -0.0574
25787W        W44641   6.065   9.022  14.244 -0.0920  0.2133 -0.0406
25788W        W44642  17.383  11.394  13.294 -0.0585  0.0805  0.0983
25789W        W44643  15.846   1.827   1.932 -0.0357  0.1707  0.1092
25790W        W44644   3.114   0.822  16.015 -0.0817 -0.1264  0.1646
25791W        W44645   3.242   6.900   0.935  0.0470 -0.1213  0.1655
25792W        W44646   0.520   9.946  12.898  0.0917  0.2220  0.2072
25793W        W44647  14.450   8.602  17.232  0.0853  0.3420 -0.2122
25794W        W44648   4.037   0.933   5.290 -0.1381 -0.0223  0.3684
25795W        W44649   0.769  14.034   2.900 -0.1216 -0.1472  0.1676
25796W        W44650   6.268   0.381  13.144  0.1442  0.1423  0.2382
25797W        W44651   1.848   1.097   2.711  0.1202 -0.0133  0.1725
25798W        W44652  11.905  14.938   5.238 -0.0573  0.3329 -0.1339
25799W        W44653   7.989  13.477  14.950 -0.2161 -0.1591  0.2057
25800W        W44654  11.613  11.841  13.847  0.2218  0.1343 -0.1485
25801W        W44655  16.219   4.581   1.426 -0.0673  0.1691 -0.3200
25802W        W44656   0.819   7.315  12.998  0.0279  0.1008  0.0502
25803W        W44657   5.961  11.185   0.044  0.0845 -0.3412 -0.0213
25804W        W44658   7.143  10.508   4.784 -0.0311 -0.2104  0.0424
25805W        W44659  11.458  15.755  15.214 -0.0055 -0.2611  0.0533
25806W        W44660  16.668  17.211   0.546 -0.1021  0.0055 -0.0902
25807W        W44661   1.234   2.782   0.539  0.0071  0.0917  0.0145
25808W        W44662   7.162  17.111   2.891 -0.3295  0.0084  0.0685
25809W        W44663   9.206  17.372  17.442  0.0537 -0.0600  0.1161
25810W        W44664   0.603  16.560   4.240 -0.1258 -0.1129  0.1422
25811W        W44665   3.351   5.958   3.840 -0.1208 -0.2283 -0.2834
25812W        W44666   4.288   5.071  15.256 -0.1355  0.0297 -0.3074
25813W        W44667   6.836  17.192  15.733 -0.1958 -0.0834  0.0781
25814W        W44668  10.829  12.866  14.068  0.2454  0.1344 -0.2497
25815W        W44669  17.270  14.253  11.390  0.1126 -0.0963 -0.2548
25816W        W44670   1.139   5.396   3.380  0.1814 -0.0056  0.0685
25817W        W44671   0.253   4.650   2.418 -0.3059  0.2405 -0.0786
25818W        W44672   7.250  17.126  12.816  0.1336  0.1319 -0.1658
25819W        W44673   5.725  13.921  16.681  0.2136  0.0972  0.1187
25820W        W44674  12.705   3.940   0.421 -0.2103 -0.0571 -0.2639
25821W        W44675  11.016   2.532  16.706 -0.0790  0.2682 -0.1715
25822W        W44676   4.439   4.722   1.196 -0.1024 -0.1611  0.1336
25823W        W44677   7.628   4.198   0.626  0.0861 -0.0874 -0.0377
25824W        W44678  11.657  11.028  15.728  0.0172 -0.1737  0.1464
25825W        W44679  13.909   4.327  13.353  0.0200  0.2578  0.1988
25826W        W44680   3.348   7.200   4.668 -0.2338  0.2052 -0.1851
25827W        W44681  14.294   9.498  15.125 -0.1593 -0.4471 -0.0111
25828W        W44682  15.549  11.306   3.068  0.0568 -0.1992 -0.0720
25829W        W44683  11.457   9.590  16.425  0.1848  0.0596 -0.2986
25830W        W44684   5.145  12.829   0.505 -0.0960  0.1191  0.1890
25831W        W44685  12.526  15.347   0.566  0.0294 -0.4168 -0.2620
25832W        W44686  10.573   7.761  17.028  0.0754  0.0291 -0.2302
25833W        W44687  15.486   5.426   3.913  0.2141  0.0444 -0.2439
25834W        W44688  15.631  12.776   0.841 -0.5549  0.1758 -0.2991
25835W        W44689   8.832  14.364   0.651 -0.0644 -0.2256 -0.2491
25836W        W44690   8.147  11.633  14.551 -0.1139 -0.1274 -0.1343
25837W        W44691   9.820   4.442  15.708 -0.1832 -0.0278  0.1107
25838W        W44692   3.553  16.261   0.762  0.2623  0.2275 -0.1002
25839W        W44693   9.034   7.928  11.146  0.0892 -0.1984  0.1848
25840W        W44694   7.510   0.345   4.209 -0.1325 -0.0229 -0.4462
25841W        W44695  15.542  10.623  17.126 -0.1660  0.1328  0.1483
25842W        W44696  12.367  10.962  17.044  0.2128 -0.0701  0.1295
25843W        W44697   7.267  12.010  15.429 -0.1823 -0.0092  0.2071
25844W        W44698  16.580   9.297  16.926  0.0884 -0.0598  0.3616
25845W        W44699  13.993   8.749   5.362 -0.0896 -0.1681 -0.1742
25846W        W44700   1.233  11.559   0.985  0.3771  0.0281 -0.1077
25847W        W44701  15.948   0.146   1.345 -0.1018  0.0203  0.2344
25848W        W44702   2.301  15.453   4.993 -0.0247  0.3837 -0.3115
25849W        W44703  17.263  15.186   4.391 -0.1269 -0.0624 -0.1776
25850W        W44704   7.271  12.719   4.400  0.2410 -0.0141  0.0963
25851W        W44705   5.523   6.755   2.524 -0.0102 -0.1822 -0.1247
25852W        W44706   7.737   1.938   1.895 -0.1891 -0.0461  0.1833
25853W        W44707   5.222   7.562  17.111  0.0630 -0.2163  0.0644
25854W        W44708  14.497   0.037  16.143 -0.5103 -0.0232 -0.3794
25855W        W44709   6.500   9.144  12.213  0.1626  0.1538  0.0312
25856W        W44710   6.716   3.060   1.886  0.4571  0.1985 -0.0755
25857W        W44711   7.613  14.262  13.703 -0.0041 -0.2999  0.0628
25858W        W44712   3.298   6.034   5.150  0.2488  0.3156 -0.1629
25859W        W44713   2.992   0.635   2.063 -0.0186  0.3843  0.0462
25860W        W44714   0.336   1.608  16.742 -0.0453 -0.0575  0.1043
25861W        W44715   2.359   3.538  14.382 -0.0666 -0.2376 -0.0969
25862W        W44716   0.336  17.147  13.623  0.0770  0.0243  0.0030
25863W        W44717   2.605   8.409   4.811  0.0278  0.2908  0.2849
25864W        W44718  12.340   6.696  14.987  0.4290 -0.0774 -0.0573
25865W        W44719   6.531  11.283  12.749 -0.1887  0.0021 -0.2244
25866W        W44720  15.266   4.742  15.104 -0.0067 -0.1799  0.0383
25867W        W44721   9.029  14.826  14.989 -0.0277 -0.1214 -0.1753
25868W        W44722  17.067  15.436  17.088 -0.1078  0.0743  0.2858
25869W        W44723  14.959   2.119  17.375 -0.2475 -0.2244 -0.0087
25870W        W44724   3.058   1.090  14.680  0.1093 -0.2605  0.0445
25871W        W44725  11.239   3.318   0.036 -0.2547  0.0103 -0.0956
25872W        W44726   1.978   3.310  12.438 -0.0170  0.0154 -0.2883
25873W        W44727  12.916  12.009   1.403  0.4200  0.0523 -0.0678
25874W        W44728   7.124  15.001   2.968  0.1463  0.0659  0.0368
25875W        W44729   3.769  17.074  14.353  0.2474 -0.1114  0.2139
25876W        W44730  13.081  14.581  12.113 -0.2383  0.1117 -0.2424
25877W        W44731   5.514  11.434   0.394  0.0802  0.1305 -0.0177
25878W        W44732  16.609  13.606   1.358  0.0318 -0.0458  0.0945
25879W        W44733  17.155  16.592   3.974 -0.3499  0.0977 -0.3639
25880W        W44734  13.852   5.985   3.967  0.1423 -0.1289  0.2069
25881W        W44735   3.689   9.899  12.833  0.3054  0.0789  0.0952
25882W        W44736  15.585   6.113   3.447 -0.1267  0.0712  0.1997
25883W        W44737   5.319  11.950  12.173  0.0006 -0.1366  0.3958
25884W        W44738   6.521   0.563   1.163 -0.0055  0.0844  0.2030
25885W        W44739   1.091  11.884  13.275 -0.0036  0.2789  0.1389
25886W        W44740  14.688  13.463  14.223 -0.1750  0.2472 -0.0862
25887W        W44741   4.294   7.400  16.823 -0.0455  0.2128 -0.1581
25888W        W44742  14.447  12.879   0.105 -0.3660 -0.1311  0.0453
25889W        W44743   6.139  13.029  13.300 -0.0902  0.3337  0.0018
25890W        W44744   9.220  14.893   1.626 -0.1495  0.0525  0.0219
25891W        W44745  10.404   1.225   2.892  0.2245 -0.0571 -0.2854
25892W        W44746   8.780   7.767   3.780  0.1857 -0.0297 -0.0221
25893W        W44747   6.195   0.370  16.876 -0.0297  0.0551  0.3358
25894W        W44748   5.867  10.985   1.524 -0.0458  0.1100  0.0933
25895W        W44749   0.175   1.480  17.329  0.1691  0.1459 -0.0955
25896W        W44750  15.046  10.933  14.980  0.0488 -0.4133  0.2399
25897W        W44751  15.803   4.730  11.968 -0.1546  0.2101  0.1204
25898W        W44752  15.141  16.305  15.921 -0.2800 -0.2567 -0.1101
25899W        W44753  15.318   2.704  13.195  0.2792 -0.2665 -0.0093
25900W        W44754   4.780   9.219  15.423 -0.0501  0.1318 -0.2105
25901W        W44755   0.356   2.664  14.638  0.1202 -0.0206 -0.0416
25902W        W44756   4.932  12.125   4.769  0.1352 -0.1737 -0.1067
25903W        W44757   8.684   4.142  13.953 -0.0072 -0.0771 -0.0704
25904W        W44758   9.480  13.683  12.578  0.0610  0.2522  0.1304
25905W        W44759   1.353  13.576   4.579  0.0411  0.2396 -0.0650
25906W        W44760   7.274   7.285   0.590 -0.1445  0.0194  0.0477
25907W        W44761   4.852   2.329  13.146 -0.3284 -0.0984  0.2807
25908W        W44762  11.558   3.385   0.795  0.1557  0.1634  0.1535
25909W        W44763  11.278   5.747  11.762 -0.2366 -0.0666 -0.0486
25910W        W44764   4.325  11.996  14.675  0.0566 -0.2152  0.2005
25911W        W44765   2.319   0.896  15.296  0.1266 -0.0809 -0.1062
25912W        W44766  15.785  16.145  13.361 -0.1115  0.0766 -0.0956
25913W        W44767  12.197  16.053   1.921  0.3021 -0.1937  0.2307
25914W        W44768   3.730  16.145   2.110  0.0029 -0.0342  0.1394
25915W        W44769  13.438   9.927   0.126 -0.0461 -0.0195  0.2142
25916W        W44770   6.282  14.928   5.375 -0.0056  0.0385  0.1005
25917W        W44771  14.071  14.859   5.809  0.4603  0.0519  0.2612
25918W        W44772   4.467  10.200   3.655 -0.1038 -0.0357 -0.0878
25919W        W44773   2.930  16.375   2.451 -0.0374  0.3213  0.1344
25920W        W44774  15.187  14.156  14.788  0.0639 -0.1498  0.0660
25921W        W44775  14.581   5.353   4.959 -0.1039 -0.0988 -0.0972
25922W        W44776   7.468   1.778  12.523  0.1334  0.0376 -0.1995
25923W        W44777  11.226  10.252  13.853  0.0413 -0.1281  0.1978
25924W        W44778  10.929   6.882  17.182  0.1343 -0.0850 -0.1632
25925W        W44779   5.059  11.185  14.775  0.1054 -0.1494 -0.0052
25926W        W44780  14.569  14.531  12.701 -0.0228  0.0434  0.4239
25927W        W44781  11.968   6.385   0.804 -0.0950 -0.2100 -0.1178
25928W        W44782  16.229  15.991   3.633  0.1337 -0.1567  0.1772
25929W        W44783   7.631   3.950  12.205  0.2056  0.0906  0.0630
25930W        W44784   9.571   7.152  13.311 -0.1925 -0.1419  0.0025
25931W        W44785  11.419  11.940   0.338  0.0674 -0.0192  0.2792
25932W        W44786  11.535  10.155   0.068  0.1489  0.2636 -0.2213
25933W        W44787   6.835   1.913  12.248 -0.3350  0.3257 -0.1577
25934W        W44788  14.255  14.749  13.101 -0.1047  0.0379 -0.0723
25935W        W44789   1.345  10.448   0.081 -0.2802 -0.0880  0.1474
25936W        W44790   4.368  14.936  15.493 -0.4066  0.0957 -0.2884
25937W        W44791  17.200  13.297  16.485  0.3129  0.2214 -0.0594
25938W        W44792  13.445   4.961   4.791  0.2152  0.2111 -0.0219
25939W        W44793   5.961  15.167   4.492 -0.1931 -0.2566 -0.0083
25940W        W44794   7.642  12.299   1.204 -0.1107 -0.0772  0.3514
25941W        W44795   3.945   7.159   5.554  0.2353  0.3426 -0.1328
25942W        W44796  15.120  15.867   4.545  0.0934  0.2000  0.2791
25943W        W44797   4.397  13.533  16.114  0.1586 -0.1827  0.2165
25944W        W44798  12.292  14.059   0.442  0.1549 -0.0484  0.0854
25945W        W44799   5.368   3.791  14.748  0.0308  0.2115 -0.0077
25946W        W44800   0.721   1.606  17.200  0.0287  0.0212  0.4256
25947W        W44801  14.784  13.850   0.064  0.0358 -0.1438  0.1129
25948W        W44802  16.646  16.684   1.463 -0.0817 -0.1129  0.1138
25949W        W44803   3.715   8.669  13.973 -0.1828  0.1294  0.0553
25950W        W44804   7.268  17.060  17.465  0.2878 -0.0428  0.0313
25951W        W44805   5.628   0.550   4.108 -0.2119  0.1398  0.0210
25952W        W44806   2.834   4.324  12.812 -0.3057  0.2601  0.2052
25953W        W44807  11.671   6.233   4.866 -0.0676  0.0162 -0.1247
25954W        W44808   9.379   5.762  14.035  0.5510  0.3122  0.3565
25955W        W44809   1.555   7.511   1.868  0.0948 -0.0974 -0.1484
25956W        W44810  10.551  17.247  14.340 -0.0953  0.0316  0.2430
25957W        W44811   2.436  11.999  17.438  0.0165  0.2990 -0.1080
25958W        W44812   2.524  11.109  12.677 -0.0280 -0.1390  0.0823
25959W        W44813  13.216  17.126   2.767 -0.1496  0.1754 -0.0090
25960W        W44814  13.694   7.685  16.980  0.1219  0.1628  0.0250
25961W        W44815   8.018  10.628   5.131  0.3870 -0.1578  0.1807
25962W        W44816  10.267  14.762   5.403  0.1261 -0.2682  0.0386
25963W        W44817  15.833   0.566  13.452 -0.4158 -0.0069 -0.3583
25964W        W44818   1.741  10.114   5.814 -0.1699  0.2100 -0.0327
25965W        W44819   0.101  13.548   5.218 -0.0490  0.2895 -0.1152
25966W        W44820  10.968   0.611  16.387 -0.3510 -0.0801 -0.0532
25967W        W44821   1.179   7.433   4.275 -0.1457 -0.0489  0.2878
25968W        W44822   5.117   3.817  15.751 -0.0917  0.3011  0.1931
25969W        W44823  12.835  10.322   1.649 -0.0428  0.1052 -0.0700
25970W        W44824   4.619  14.376  13.181 -0.1447 -0.0009  0.2751
25971W        W44825   0.333   5.741   0.115 -0.1220 -0.0444 -0.0373
25972W        W44826   3.812  10.866   2.836  0.2981 -0.0184 -0.0584
25973W        W44827   5.287  11.418  13.990  0.0747  0.0637 -0.2471
25974W        W44828   9.533   7.190   4.106 -0.0341  0.1347  0.0479
25975W        W44829   2.941   6.023  16.692  0.2468 -0.0813 -0.0857
25976W        W44830   4.030   2.935  14.666 -0.1191 -0.4069  0.3404
25977W        W44831  12.325  15.440  16.182 -0.1076  0.0921  0.0903
25978W        W44832   6.486   6.665   2.401  0.0910  0.0587 -0.2262
25979W        W44833  16.718  12.529  15.047 -0.1719 -0.1182 -0.0224
25980W        W44834  16.816   0.143   0.906 -0.0272 -0.3029  0.0098
25981W        W44835   6.634  12.635  15.820  0.3750  0.2835 -0.2589
25982W        W44836  14.030  16.045   3.997 -0.1515 -0.3968  0.0050
25983W        W44837   4.442  16.908   4.447 -0.0363 -0.0869 -0.2486
25984W        W44838   5.014  11.231   2.988  0.1920 -0.2977  0.0629
25985W        W44839  17.338  11.112  17.406 -0.1609 -0.0956 -0.2532
25986W        W44840  11.561  15.466  14.765  0.1757 -0.2556 -0.0820
25987W        W44841   4.795  13.648   0.557 -0.4046 -0.1809 -0.4406
25988W        W44842  14.177  11.884  16.885 -0.1031 -0.0426 -0.2508
25989W        W44843   5.508   0.634  14.768 -0.0187  0.0931 -0.1119
25990W        W44844   3.899   2.125  15.257  0.0558  0.0192  0.0425
25991W        W44845   9.601   5.223   3.859 -0.0169 -0.2093 -0.0055
25992W        W44846  16.881   9.492  15.763 -0.0467 -0.1593 -0.1742
25993W        W44847   4.023  13.423  15.787 -0.4148  0.3472  0.0589
25994W        W44848  12.634   3.342   2.414 -0.4043  0.1909  0.2969
25995W        W44849   6.056   7.674   0.207  0.0427 -0.1769  0.0621
25996W        W44850  10.281   8.135  17.220 -0.2347  0.1344 -0.1975
25997W        W44851  15.631   5.657  14.823  0.2063 -0.1297  0.0626
25998W        W44852   3.794   9.271  13.044 -0.1216  0.0418 -0.1401
25999W        W44853   4.818  15.479  17.122 -0.0245 -0.0554 -0.1759
26000W        W44854   7.057   0.118  17.334 -0.0967  0.0217 -0.2281
26001W        W44855  15.424  16.503  15.108  0.0088  0.1194 -0.0174
26002W        W44856  12.168   7.422   5.061 -0.0559 -0.0427 -0.0806
26003W        W44857   8.692   0.556  15.297  0.0002 -0.0573 -0.1722
26004W        W44858   9.273   5.396   3.512  0.1786 -0.1872  0.0419
26005W        W44859   9.463  11.771   2.051  0.0218  0.2348 -0.1054
26006W        W44860  14.227  15.997   0.647 -0.1245 -0.0025 -0.1678
26007W        W44861   0.090  13.018   3.343 -0.1212 -0.2047  0.4052
26008W        W44862   9.117   6.822   3.328  0.0775  0.1053 -0.1178
26009W        W44863  14.065  11.353  16.738  0.2557 -0.0405 -0.0974
26010W        W44864   1.717   4.250  14.265  0.1139 -0.0057 -0.1213
26011W        W44865   2.146   0.194  13.518  0.0207  0.0076  0.0586
26012W        W44866   2.333   1.030   0.154 -0.0462  0.1884 -0.2058
26013W        W44867   9.636  10.395   4.649 -0.0194  0.2752 -0.0183
26014W        W44868   1.970  13.783   3.243  0.0709 -0.1177 -0.2896
26015W        W44869  16.024   6.276  15.689 -0.0747  0.1565  0.0916
26016W        W44870   2.302  16.860   4.930  0.1736 -0.1091 -0.1353
26017W        W44871   7.271   6.480  15.992 -0.0057 -0.1150 -0.1296
26018W        W44872  13.468  12.618   4.552 -0.0695  0.1556  0.1046
26019W        W44873   5.757   5.050   4.396  0.3929 -0.2436 -0.0111
26020W        W44874  10.148  17.353   4.693 -0.3958  0.2052  0.0095
26021W        W44875   3.438   8.425   0.319  0.2251  0.1244 -0.1592
26022W        W44876  10.076   3.041   3.131  0.0079 -0.0837  0.1616
26023W        W44877   7.063   4.946  15.571  0.1961 -0.2599 -0.1950
26024W        W44878  12.934   6.958   0.754  0.0865  0.2351  0.1861
26025W        W44879  15.899   8.672   2.215 -0.3749  0.0946 -0.0162
26026W        W44880   8.280   0.536  13.483 -0.0960  0.1202 -0.2233
26027W        W44881   3.389   2.601  14.925  0.0505 -0.0098  0.1540
26028W        W44882   7.816   2.948  13.672  0.0138  0.2529  0.1949
26029W        W44883  12.375  15.450   1.431 -0.1931 -0.3430 -0.1474
26030W        W44884   8.319   2.954   3.880 -0.0539  0.1508  0.0144
26031W        W44885   3.749  16.032   4.404  0.0040  0.1200 -0.1184
26032W        W44886  12.512   7.694   1.298 -0.3118  0.1942  0.1924
26033W        W44887   6.430   1.897  12.649 -0.3779  0.1972 -0.0798
26034W        W44888   0.042   1.981   0.198  0.1815 -0.2111 -0.1403
26035W        W44889  13.076   3.015  12.752 -0.1106 -0.0441 -0.0390
26036W        W44890   6.448   5.469   0.012  0.2368 -0.1709  0.0378
26037W        W44891   7.473   0.872   3.565 -0.0372 -0.1254  0.3007
26038W        W44892   3.148   8.670   3.056 -0.2197  0.0673 -0.0054
26039W        W44893   1.767   1.198   2.225 -0.0742 -0.1902 -0.1445
26040W        W44894   0.681  10.439   4.892  0.0257 -0.1663 -0.1398
26041W        W44895   8.070   6.512  16.264 -0.1530  0.0015  0.2582
26042W        W44896   8.872   6.197  13.121  0.4710 -0.1944 -0.0641
26043W        W44897  16.369  11.788   2.945 -0.0622 -0.0912 -0.1122
26044W        W44898   3.382  16.605   3.286  0.2821 -0.1029 -0.1745
26045W        W44899  15.761  13.847   4.154 -0.3088  0.1564  0.0990
26046W        W44900   6.961   6.715  14.006 -0.0339 -0.1365  0.3464
26047W        W44901   0.861  11.470  15.243 -0.1053  0.1854  0.0151
26048W        W44902   9.828  11.633   5.431  0.1221  0.1421  0.2806
26049W        W44903   0.186   9.314   4.573  0.2020  0.0924  0.4133
26050W        W44904   9.358  12.855  14.747 -0.0126 -0.2075  0.3372
26051W        W44905  12.920   9.127  17.382 -0.0550 -0.4126  0.0829
26052W        W44906  15.304  13.500   1.934  0.0606 -0.0297 -0.1212
26053W        W44907   0.783   7.755   4.435 -0.4464  0.0229  0.0993
26054W        W44908  15.039  16.937   0.058 -0.0970 -0.0164  0.5004
26055W        W44909   8.757  14.647   1.903  0.5290  0.3151 -0.0696
26056W        W44910   5.546   1.772  15.710 -0.1280 -0.1940  0.0166
26057W        W44911   6.207   6.984  14.998 -0.1765  0.1077 -0.0133
26058W        W44912   6.620   9.865  16.098  0.0395 -0.1343  0.1491
26059W        W44913   7.688   0.154   3.411 -0.2475 -0.0129  0.3036
26060W        W44914  10.098   4.812   2.963 -0.0589 -0.3027  0.2081
26061W        W44915   7.264  10.401  16.993  0.1685 -0.0720 -0.0972
26062W        W44916  16.850  12.029   3.378  0.1576  0.1185 -0.0776
26063W        W44917   8.806   6.953  16.199 -0.4280 -0.0719 -0.1423
26064W        W44918  14.003   8.350  13.689 -0.0753 -0.0307  0.1339
26065W        W44919  16.414  14.116  14.606  0.1852  0.0191 -0.2657
26066W        W44920  13.359  11.380  11.266 -0.0624 -0.1601 -0.0210
26067W        W44921   7.194   9.076  12.675 -0.0840  0.0147  0.0440
26068W        W44922   4.485   0.405  13.833  0.2602 -0.1529 -0.0656
26069W        W44923  14.350   3.993   1.218 -0.2291  0.0784 -0.5786
26070W        W44924   3.001  10.189  14.668  0.0846  0.0071  0.1320
26071W        W44925   1.569   0.579  15.810 -0.1280  0.1292 -0.2087
26072W        W44926  10.453  16.676   2.582  0.1625  0.2676  0.2481
26073W        W44927   2.501  12.734  15.038  0.1465 -0.0045 -0.1472
26074W        W44928   6.680  16.720   4.812  0.2251  0.1756 -0.2492
26075W        W44929  12.979  12.958   2.452  0.0937  0.0031 -0.0576
26076W        W44930  13.063   0.261  16.213  0.0001  0.3296  0.1610
26077W        W44931  15.669   0.438   4.091 -0.3712 -0.1363  0.1258
26078W        W44932  13.690   1.823  15.046  0.0191 -0.1831 -0.0775
26079W        W44933  15.694  14.178   1.312 -0.2126 -0.0875  0.4651
26080W        W44934  10.626   7.458   4.235  0.1241  0.0841  0.1282
26081W        W44935  11.907  15.839  14.930  0.0140  0.0274 -0.2459
26082W        W44936   2.729   9.613  17.035 -0.0699  0.0235  0.0022
26083W        W44937   4.996   1.095   1.043  0.1074 -0.2121 -0.3267
26084W        W44938   5.875  10.495  17.457 -0.1553  0.1196  0.2673
26085W        W44939   6.614   2.608  17.332 -0.0736 -0.0297 -0.1703
26086W        W44940   0.621   8.322  17.095  0.1040 -0.1369  0.0896
26087W        W44941   0.130   6.323  16.683 -0.1312 -0.0538  0.0808
26088W        W44942  13.428  10.705   0.712  0.1319  0.3436  0.0629
26089W        W44943   3.822   4.083  15.614 -0.0663  0.0642  0.2496
26090W        W44944  12.141   0.734  14.762  0.3815 -0.1149 -0.1933
26091W        W44945  10.386  10.878   0.400 -0.2447  0.0538  0.2153
26092W        W44946   0.507   6.468   3.268 -0.1130  0.0497  0.1849
26093W        W44947   1.790   4.704  16.177 -0.2497 -0.1310 -0.1763
26094W        W44948   9.708  11.425   2.397  0.1147 -0.0007 -0.0797
26095W        W44949  13.923  10.966  15.691 -0.0665  0.0537 -0.1626
26096W        W44950  14.206   9.093  14.163 -0.0837  0.1368  0.2474
26097W        W44951   3.323   1.560   1.790  0.3877 -0.0400 -0.2034
26098W        W44952  11.658   1.478  13.548  0.2567  0.4570 -0.1470
26099W        W44953   7.956  15.937  12.828 -0.0340  0.2687 -0.1561
26100W        W44954  17.049   8.943   4.954  0.0205  0.4107  0.0553
26101W        W44955  10.032  13.762  13.169  0.1036  0.0788 -0.1546
26102W        W44956  10.651  15.987   2.039  0.1063 -0.4440 -0.2897
26103W        W44957   2.174  11.291  16.404 -0.0300 -0.0546  0.0436
26104W        W44958  11.265   1.959   2.446 -0.0900  0.1511 -0.2068
26105W        W44959   3.500   1.752  13.550  0.1555  0.1781  0.0259
26106W        W44960  16.856  10.864  12.739 -0.1335 -0.2941 -0.0846
26107W        W44961  16.406  10.251  13.267  0.0652 -0.0529 -0.1225
26108W        W44962  13.238   4.219  13.003 -0.0221 -0.1311  0.2462
26109W        W44963   9.247  15.775   3.286  0.1734 -0.3523  0.2035
26110W        W44964  14.988   0.617  13.994 -0.0344 -0.0015 -0.0966
26111W        W44965  12.593   0.635  14.471  0.3352  0.1329  0.2558
26112W        W44966   3.950   1.212   0.297  0.1064 -0.0371 -0.1982
26113W        W44967   6.934  11.070  17.438 -0.0070  0.0414  0.1494
26114W        W44968   2.502  13.772   5.512  0.0611  0.0793  0.1499
26115W        W44969   1.486  13.820   2.976  0.0024 -0.1184  0.0781
26116W        W44970  11.554  10.220   4.435  0.0704  0.2549  0.1961
26117W        W44971  15.037   5.697  13.069  0.0086  0.1006  0.0254
26118W        W44972  17.316  14.781  13.110  0.0762  0.0302  0.1005
26119W        W44973  12.674   2.432   5.470 -0.2245 -0.0049 -0.0024
26120W        W44974   8.365  13.315   3.958  0.0504  0.0964  0.0019
26121W        W44975  14.579   7.634  12.371 -0.1958 -0.0507 -0.2970
26122W        W44976   4.512   4.878   4.630 -0.0198 -0.0188 -0.0249
26123W        W44977   7.224  16.107   2.622  0.1463 -0.1711  0.1023
26124W        W44978   1.423   2.967   0.054 -0.0923 -0.0054  0.0438
26125W        W44979   6.367   9.966  15.108 -0.0117 -0.1919 -0.0787
26126W        W44980   6.521  15.492  12.944  0.0366  0.1373 -0.4106
26127W        W44981   6.577   0.079  16.193 -0.1119  0.1201  0.0464
26128W        W44982   0.729  12.752   5.390 -0.2198 -0.2457  0.1451
26129W        W44983   5.525   4.195   3.122 -0.0041 -0.2633  0.2474
26130W        W44984   7.837  11.254   1.059 -0.3831  0.2348  0.2277
26131W        W44985  12.362   0.719   4.745  0.1948  0.2911 -0.0973
26132W        W44986   5.514   0.271   6.150  0.0373 -0.3278  0.0116
26133W        W44987  10.041   8.751  12.090  0.0598  0.0538 -0.2745
26134W        W44988   2.621  15.627  15.651 -0.2608 -0.0566 -0.2488
26135W        W44989   5.561   7.594   3.200 -0.0182  0.0478 -0.1313
26136W        W44990   9.153   6.690   0.058 -0.6032  0.0387 -0.0531
26137W        W44991  16.856   6.068  17.260 -0.2302  0.0747  0.1072
26138W        W44992  11.080  12.785  13.491 -0.0389 -0.1172 -0.1353
26139W        W44993  15.896  13.037   2.119 -0.0613  0.2636 -0.1349
26140W        W44994  14.817  11.307  12.681 -0.0900 -0.1468 -0.0476
26141W        W44995  12.847  14.470  16.066 -0.1675  0.0834  0.0657
26142W        W44996   8.622   0.487  12.608  0.3878  0.0547 -0.1250
26143W        W44997  13.872  15.527   5.230  0.2177 -0.2448  0.2188
26144W        W44998  10.512  16.872   3.152 -0.2394  0.0936 -0.1128
26145W        W44999  11.914  11.444   2.437  0.2662 -0.1615 -0.1074
26146W        W45000   5.487  15.150   3.387 -0.0706  0.1422  0.2726
26147W        W45001  13.616  13.134   1.324  0.1667 -0.2781  0.1110
26148W        W45002   6.874   9.424  13.656 -0.0516  0.1061 -0.3750
26149W        W45003  12.498   4.838  12.924 -0.0988 -0.0434  0.0347
26150W        W45004  14.023   3.069  15.612  0.0139  0.3209  0.0719
26151W        W45005   0.246   6.732  17.015 -0.0394  0.1093  0.0616
26152W        W45006   5.197  16.229   1.238  0.1925 -0.4515  0.1577
26153W        W45007  11.480   3.499   2.142  0.0715  0.1447  0.3357
26154W        W45008   2.678   4.352   1.974 -0.0441  0.2258 -0.3134
26155W        W45009  15.905  13.813  12.108  0.2485 -0.0966 -0.1896
26156W        W45010  12.223   1.719   4.669 -0.0072  0.3676  0.0461
26157W        W45011   4.484   8.795   0.400  0.1308 -0.1328  0.1301
26158W        W45012  13.858   5.922  15.657 -0.2082 -0.0865  0.3381
26159W        W45013   6.879   0.308  14.543 -0.1819  0.0355  0.2293
26160W        W45014  12.376  13.781  15.206  0.0260  0.0478  0.3024
26161W        W45015  13.164  10.399   2.100  0.0478  0.0289 -0.0255
26162W        W45016   2.736  13.957  14.978  0.1382  0.0845 -0.0688
26163W        W45017  16.438  16.173   5.208 -0.1262 -0.2481  0.1110
26164W        W45018   3.210  11.333   0.176  0.0705 -0.1964  0.1767
26165W        W45019  11.492   7.400   5.351 -0.0978  0.2410 -0.3265
26166W        W45020   6.798   9.716   1.428  0.1712 -0.1647  0.0577
26167W        W45021   9.896   7.347  16.046  0.1891 -0.2735 -0.1519
26168W        W45022   5.322   1.434   0.277 -0.1097  0.0614  0.2153
26169W        W45023   1.856   0.858   3.706  0.0153  0.0761  0.1143
26170W        W45024  12.465  16.875   3.120  0.2149 -0.0054  0.0409
26171W        W45025  10.656   1.733  16.248  0.2203  0.1785  0.0936
26172W        W45026   0.499  12.085   1.425  0.0673  0.1604 -0.2491
26173W        W45027   4.496  14.804  13.921 -0.1608  0.0320  0.1777
26174W        W45028  15.211   6.715  12.810  0.1062 -0.0911 -0.0186
26175W        W45029   5.858   5.741  14.055 -0.0329  0.1599 -0.0119
26176W        W45030   5.342   2.699   1.237  0.0865  0.2330 -0.2773
26177W        W45031  12.870   8.034   3.453  0.0516 -0.0861  0.0219
26178W        W45032  12.572   2.051  14.205 -0.2638  0.0313 -0.0398
26179W        W45033   2.712   1.642   4.696 -0.0577 -0.0290 -0.1406
26180W        W45034  11.231   8.688   5.823  0.1275 -0.2287  0.0006
26181W        W45035   7.205   0.178  14.162  0.1810  0.2521  0.0991
26182W        W45036  14.121  10.414   4.831  0.0322  0.2383 -0.0800
26183W        W45037   0.172   5.350   3.110 -0.0472 -0.4275 -0.0986
26184W        W45038  14.522   4.828  15.751  0.4116  0.0633 -0.1044
26185W        W45039  11.444   4.544  15.548  0.1787  0.0364 -0.0617
26186W        W45040  15.452   4.917  15.877 -0.0668  0.0013  0.3484
26187W        W45041   6.308   9.613   1.600 -0.0788  0.3175 -0.2360
26188W        W45042  11.110  10.365   4.652  0.1399 -0.3712 -0.1252
26189W        W45043  15.053  10.722  15.999 -0.1659  0.0053 -0.1252
26190W        W45044  11.702   3.861  12.495 -0.0175 -0.2347 -0.0961
26191W        W45045  10.209  16.907   1.363 -0.0019 -0.1255  0.2109
26192W        W45046   7.456  11.203  15.562  0.1583  0.0460 -0.1909
26193W        W45047   0.393  10.011  13.551  0.0148 -0.2126 -0.0597
26194W        W45048   7.610  11.965  13.857 -0.3604 -0.1342  0.2947
26195W        W45049  14.919   7.780   0.080 -0.0023  0.0192  0.1066
26196W        W45050  12.242  16.291   0.601 -0.5216  0.0494  0.2539
26197W        W45051  16.351  12.538  12.445  0.1024 -0.2678  0.0914
26198W        W45052  13.393   1.109   1.975  0.1881 -0.2783  0.1225
26199W        W45053  15.933  10.026  15.448  0.0913  0.1689 -0.1308
26200W        W45054   5.542   3.681  13.356 -0.0027  0.1834  0.0976
26201W        W45055   1.808   0.071  15.967  0.0654  0.1099 -0.1342
26202W        W45056  10.430   2.698  12.255  0.4466 -0.0597 -0.0478
26203W        W45057   6.530  11.811   2.139  0.0922  0.2411  0.2044
26204W        W45058   1.210  10.534  16.669 -0.0319  0.3365 -0.1314
26205W        W45059   1.497  14.578   3.177  0.0506 -0.1861  0.1500
26206W        W45060   4.150   8.740   4.761  0.0296 -0.0142 -0.1341
26207W        W45061   7.758  15.857  13.408  0.0318  0.2163  0.1920
26208W        W45062  12.805   4.885   3.579 -0.1700 -0.3833 -0.0314
26209W        W45063   5.068   8.411  14.850 -0.3279 -0.1782 -0.3071
26210W        W45064  11.376  14.632  17.152  0.1794  0.0303  0.1550
26211W        W45065   6.576   0.244   2.087 -0.0723 -0.0101  0.0674
26212W        W45066   7.508  14.341   1.724  0.0097  0.2119  0.2309
26213W        W45067  17.203  15.363   2.147  0.0174  0.4316 -0.1158
26214W        W45068  13.340   6.508   2.754  0.1830 -0.2172 -0.2333
26215W        W45069  16.669  10.792   2.011 -0.3341  0.1036  0.1129
26216W        W45070   3.774   6.204  12.883 -0.1172 -0.0088  0.1099
26217W        W45071  13.835   4.548   2.848 -0.2270  0.2023  0.4112
26218W        W45072  13.764   0.064  15.553 -0.2867  0.2072  0.0421
26219W        W45073  17.261   5.792  14.232  0.1924 -0.1132  0.0232
26220W        W45074  12.531  13.992   2.295 -0.0479  0.0923 -0.1038
26221W        W45075   3.355  13.920   2.170  0.0368 -0.0662  0.0442
26222W        W45076   2.037  13.393  16.835  0.1396  0.1736 -0.2373
26223W        W45077   6.003   4.863  15.910  0.0765  0.1899 -0.1433
26224W        W45078  15.594  11.857   0.133  0.0562 -0.2081  0.2319
26225W        W45079  14.978   8.749  13.890 -0.1619 -0.1146  0.0846
26226W        W45080   8.560  17.269   2.555 -0.4147 -0.1946  0.0173
26227W        W45081   3.085   7.762   3.047 -0.0417 -0.0177  0.0614
26228W        W45082  12.732  15.410  15.839 -0.0186  0.0940  0.0580
26229W        W45083  14.250  10.526   5.281  0.1513  0.2624  0.3466
26230W        W45084   0.005  10.681   3.390  0.0406  0.1770  0.0025
26231W        W45085   0.426   6.545  12.987 -0.0096 -0.0323 -0.0685
26232W        W45086   6.069   6.577  16.049 -0.1880  0.2750 -0.1155
26233W        W45087  16.593   3.169   2.605  0.4115 -0.0855 -0.0298
26234W        W45088  12.597  15.776   1.822  0.2544  0.3777 -0.2172
26235W        W45089   5.072  12.416  12.270  0.0264  0.1523  0.1256
26236W        W45090  14.077   5.017   1.984 -0.1480  0.1644  0.1772
26237W        W45091  16.241  15.843  12.462 -0.3365  0.0260  0.1322
26238W        W45092   4.138   5.025   3.270 -0.2621  0.0888 -0.0296
26239W        W45093   2.107  11.913   0.814 -0.0467  0.1163  0.0197
26240W        W45094   3.145  14.539   0.969  0.2497 -0.0339  0.0797
26241W        W45095  14.172   1.739  13.821 -0.0054 -0.2335  0.0579
26242W        W45096   6.468  16.175  12.391  0.2210 -0.3336 -0.0439
26243W        W45097   8.002   6.618   1.245 -0.0241  0.2767  0.0293
26244W        W45098   0.227  10.232   4.495 -0.0111  0.0796  0.1341
26245W        W45099  11.712   3.426  16.612  0.2747 -0.0287  0.0813
26246W        W45100   4.591  16.915  14.768 -0.2471  0.0543  0.1632
26247W        W45101  11.886   4.359  12.343 -0.0595 -0.1187 -0.0800
26248W        W45102  14.297  13.381  15.509 -0.1302  0.0272  0.0518
26249W        W45103  16.392  12.173   2.113 -0.0551 -0.0916 -0.0932
26250W        W45104   0.678  11.793   5.148  0.2578  0.0149 -0.0166
26251W        W45105   6.533   4.610  14.410  0.2115  0.2221  0.1213
26252W        W45106  15.673  15.056  12.633  0.3190  0.0393  0.0751
26253W        W45107   4.926   8.597  12.436  0.2319  0.0562 -0.4525
26254W        W45108   2.042  12.763   1.448  0.2733  0.0621 -0.1665
26255W        W45109   7.991   8.097  16.407  0.0763  0.0794  0.1871
26256W        W45110   6.750  13.121   0.045 -0.0500 -0.0983 -0.3721
26257W        W45111   7.731  13.876  12.489  0.1387  0.1132  0.0934
26258W        W45112   7.156  14.835  15.098  0.1546  0.3891 -0.2431
26259W        W45113   1.064  16.875   2.269 -0.0304  0.2374 -0.0674
26260W        W45114  14.233   9.309   2.915  0.1689 -0.3251  0.0871
26261W        W45115   6.818   9.832   4.153  0.2251  0.1103 -0.3189
26262W        W45116   1.120   5.425  16.015 -0.1954  0.2384 -0.0368
26263W        W45117   2.511   2.854  16.940  0.2172  0.1069  0.2852
26264W        W45118  16.760   6.130  15.990  0.1386  0.3462  0.2077
26265W        W45119   8.821  14.259  17.269 -0.0802 -0.3399  0.0905
26266W        W45120   2.807   7.578  17.081 -0.1246  0.1249 -0.0926
26267W        W45121  15.693   0.875   1.027  0.3046  0.1620  0.1189
26268W        W45122  13.140   7.011  14.700 -0.2016  0.0119 -0.0775
26269W        W45123   4.565  12.377  14.931  0.0958 -0.2472 -0.0266
26270W        W45124  15.513  12.563  12.927 -0.2816  0.1093 -0.0362
26271W        W45125   3.547  15.539   4.586  0.0038 -0.3156  0.1019
26272W        W45126  14.416   9.946  13.109  0.3523 -0.1697 -0.1718
26273W        W45127  10.994   0.967   0.691 -0.0275 -0.1446  0.0776
26274W        W45128   6.961  11.778   2.429 -0.1319  0.1185  0.0795
26275W        W45129   2.321  11.465   0.312 -0.1912  0.0305  0.0911
26276W        W45130  16.879  11.427  12.832  0.0127  0.0575 -0.0440
26277W        W45131  16.956   6.135  14.679 -0.0628 -0.0538 -0.1497
26278W        W45132   3.068   2.541   3.561  0.1244  0.0888 -0.0489
26279W        W45133  12.556   8.364  13.523 -0.0270  0.1836  0.0112
26280W        W45134  10.139   1.029  14.411  0.1587 -0.1163 -0.4135
26281W        W45135  11.205   6.640  14.916 -0.3034  0.1592  0.1378
26282W        W45136   3.395  11.508   2.388  0.4679 -0.1149  0.0465
26283W        W45137   8.189   1.124  17.223 -0.1159  0.0892  0.0912
26284W        W45138  15.447   8.525  15.566  0.3317 -0.3187  0.3870
26285W        W45139   7.613  11.959   3.661  0.1633  0.3467  0.1371
26286W        W45140   5.563   6.072  16.984 -0.0940  0.0467  0.2384
26287W        W45141   7.905  14.786  16.780  0.0297  0.0970 -0.0533
26288W        W45142   6.906   8.799   3.617 -0.2445 -0.0050  0.0296
26289W        W45143   0.838   8.077   0.592 -0.2373 -0.1685  0.1242
26290W        W45144  12.923   9.928   1.962  0.3492 -0.4523 -0.4114
26291W        W45145   0.687  14.375   1.062 -0.0033  0.3039 -0.1350
26292W        W45146   0.783   4.651  13.835 -0.2112  0.0514  0.0177
26293W        W45147   6.224   5.565  14.880 -0.0311 -0.0126 -0.0096
26294W        W45148  15.897   9.647   2.459 -0.0840  0.1645 -0.4197
26295W        W45149   7.340   5.913  13.347 -0.1485 -0.1849 -0.0351
26296W        W45150   0.314  10.173   3.273 -0.0852  0.2351  0.0546
26297W        W45151   2.414   3.576   4.552 -0.1404 -0.3342  0.0465
26298W        W45152  12.121  10.782  15.621  0.1598  0.0941  0.2188
26299W        W45153   8.550   1.839  15.414  0.0204 -0.1020  0.2841
26300W        W45154   1.997  15.157  16.816 -0.0568  0.3321 -0.3182
26301W        W45155   7.489   3.604  12.573  0.0995 -0.0932 -0.0520
26302W        W45156   2.692  12.949  17.321  0.2505 -0.1256 -0.2838
26303W        W45157   0.871   9.029   3.698  0.1437  0.0564  0.2913
26304W        W45158  10.840  15.460   2.819  0.2608  0.0496  0.0605
26305W        W45159  17.151   1.676  16.784  0.2604 -0.1853  0.0289
26306W        W45160   1.921   8.866  15.497  0.1278  0.1450  0.3035
26307W        W45161   2.664   9.295   3.214 -0.1519 -0.2636 -0.0600
26308W        W45162  17.068  15.656  13.355 -0.1623  0.2553 -0.0931
26309W        W45163  15.860   4.299  13.499 -0.1156 -0.2788 -0.2295
26310W        W45164   0.307  13.825  16.117 -0.3156  0.1299 -0.3342
26311W        W45165   1.115  11.216   4.679  0.1392 -0.2192  0.1069
26312W        W45166  16.793   9.834   4.555 -0.1718 -0.0071 -0.1726
26313W        W45167   0.582   6.719  15.952  0.1494 -0.2058  0.0709
26314W        W45168   5.458  17.104  13.148 -0.0229  0.0556 -0.2123
26315W        W45169  14.055   0.205  13.228  0.0406 -0.0659 -0.1618
26316W        W45170   1.706  14.642   1.040  0.3543  0.1431  0.1017
26317W        W45171  12.835  12.115   2.757  0.1111  0.3031 -0.2130
26318W        W45172   6.303  12.757  14.600 -0.0496 -0.1618 -0.1386
26319W        W45173   9.951  10.821   5.667  0.1223 -0.0788  0.0398
26320W        W45174   2.271  10.476   5.528 -0.0554 -0.0278  0.2076
26321W        W45175   5.429  10.574  14.387  0.1001  0.0654 -0.1951
26322W        W45176   2.904  11.185  13.535  0.3389 -0.0140  0.0530
26323W        W45177   8.758  10.785   4.845 -0.3053  0.0580 -0.1225
26324W        W45178  12.046  15.406  17.229 -0.0889  0.0853  0.0912
26325W        W45179  17.016   5.447  13.290 -0.0091  0.0394 -0.1965
26326W        W45180   3.147   4.411   1.164  0.1750  0.0825 -0.0498
26327W        W45181   9.700   3.859  12.191 -0.3053  0.2163  0.2054
26328W        W45182   9.842   7.148   1.113 -0.0534 -0.1985 -0.2423
26329W        W45183   6.015  13.389  12.996  0.1657 -0.0003  0.2029
26330W        W45184   7.578   1.421   3.020  0.1452 -0.1364 -0.0843
26331W        W45185   9.481  13.888   5.008  0.2648  0.0664 -0.1830
26332W        W45186   3.104  12.051  14.702 -0.3733  0.2689  0.1204
26333W        W45187  11.328  16.680  13.379 -0.1020  0.1104  0.1642
26334W        W45188  12.252  10.337  15.850 -0.1623 -0.3486  0.2018
26335W        W45189   6.802   6.424   1.679  0.2596  0.1064 -0.0778
26336W        W45190  16.864   6.939   3.688  0.0836  0.2185  0.1117
26337W        W45191  13.848  14.301  15.216 -0.2161  0.4550 -0.0602
26338W        W45192   9.956   0.868  13.235 -0.0157  0.0618  0.1897
26339W        W45193  14.362   3.553  12.982 -0.1245 -0.2030 -0.1310
26340W        W45194  15.205   0.304   0.972  0.0783  0.1407 -0.2814
26341W        W45195   5.184   1.110   4.203  0.2951 -0.2364  0.0425
26342W        W45196  12.277  15.293   1.952 -0.0761 -0.0480 -0.0497
26343W        W45197   8.625   0.402   5.214 -0.2242 -0.1551 -0.0949
26344W        W45198  12.915   4.771   2.775  0.1340 -0.3234 -0.0226
26345W        W45199  12.922  15.058   4.995 -0.1414  0.0118 -0.0963
26346W        W45200  10.012   8.781  15.249 -0.1942 -0.2333  0.1316
26347W        W45201   9.739   9.299  12.877 -0.1556  0.2259 -0.1564
26348W        W45202  10.774  14.489   3.336 -0.0350 -0.0226  0.1853
26349W        W45203   5.630  13.664  13.706 -0.0516 -0.1580 -0.0581
26350W        W45204   2.452   8.447   1.076 -0.0675 -0.1323  0.1054
26351W        W45205   3.670   0.485  12.649 -0.3426 -0.1248  0.0159
26352W        W45206   0.350   1.935  17.247  0.0774 -0.1593 -0.2690
26353W        W45207  12.222  11.143  14.643  0.1838 -0.1541 -0.3253
26354W        W45208   5.809   9.395   1.657  0.0394 -0.3327  0.1854
26355W        W45209   6.635  12.699   3.025  0.3146 -0.0557  0.1592
26356W        W45210   2.710  10.682   4.390 -0.2555 -0.0628  0.1317
26357W        W45211   3.470  11.804  15.474 -0.0839 -0.1468 -0.0677
26358W        W45212   4.931   1.205  14.751 -0.2937 -0.1439  0.0316
26359W        W45213   3.551   7.315   0.741 -0.1184  0.0568  0.0159
26360W        W45214  15.174   0.764  17.424 -0.2096 -0.2001  0.1957
26361W        W45215  14.596   4.629   3.846  0.0886 -0.1500 -0.3438
26362W        W45216  10.224   9.082  14.186 -0.0497  0.0099 -0.1177
26363W        W45217  10.462  13.620   1.285  0.2064 -0.2208 -0.2633
26364W        W45218  12.228  15.803   0.425  0.0123 -0.2214  0.1512
26365W        W45219  10.744   2.814  12.727  0.1776  0.1481 -0.2055
26366W        W45220  10.046  15.462  14.452  0.0815 -0.0750 -0.2476
26367W        W45221  12.484   8.779  13.853  0.0133  0.2785 -0.1688
26368W        W45222   5.987  14.755  16.514 -0.1510  0.0837 -0.1893
26369W        W45223  10.296   2.585  17.203 -0.1041  0.0443 -0.2382
26370W        W45224  16.378  14.590   4.240  0.1158  0.0249  0.1620
26371W        W45225  14.021  16.057   4.493 -0.2174 -0.0064 -0.1356
26372W        W45226  13.152  15.683  15.782  0.1401  0.1508 -0.0844
26373W        W45227   5.597   4.474  12.519  0.0600  0.1322  0.1467
26374W        W45228  14.397  13.635  13.461  0.0841 -0.2665  0.2541
26375W        W45229  17.113   5.365  14.947  0.0363  0.0664  0.1951
26376W        W45230  13.116   3.594   5.063  0.1526  0.0288 -0.2584
26377W        W45231   9.658  10.909   2.987  0.1415  0.0411  0.1002
26378W        W45232   3.663  12.185  12.977  0.0199  0.0584 -0.2081
26379W        W45233  15.577   1.200  15.531  0.0151 -0.2151  0.0208
26380W        W45234  14.565   5.321  15.842  0.1195 -0.4121 -0.2303
26381W        W45235  12.077   5.911   1.009  0.0907 -0.0993 -0.3251
26382W        W45236  14.310   2.501   3.464  0.0112 -0.0845  0.0543
26383W        W45237   0.328   3.235   0.693 -0.0884 -0.1557  0.2821
26384W        W45238  14.581   5.839  13.919  0.0828 -0.0922  0.0542
26385W        W45239   7.772   8.789   1.952 -0.0398 -0.0687 -0.2904
26386W        W45240  10.298  11.385   2.318  0.3964  0.0969  0.0392
26387W        W45241  13.836  16.732  12.560 -0.0898 -0.2367  0.1728
26388W        W45242  16.076  12.172   3.080  0.1251  0.0920  0.4482
26389W        W45243   1.027  12.783  12.822  0.2030 -0.0470  0.1978
26390W        W45244   8.678  13.725   2.367  0.4183  0.1908  0.0713
26391W        W45245   5.055  16.756  14.825  0.1236  0.2057 -0.1345
26392W        W45246   5.396   7.069   4.700 -0.0193 -0.2007 -0.0512
26393W        W45247  10.327   8.777  15.610  0.0570  0.0939  0.2837
26394W        W45248   0.107   6.537   0.100  0.0186  0.0038  0.0560
26395W        W45249  11.299   1.957   4.231  0.2518  0.0188  0.2065
26396W        W45250   9.917  16.221  13.832  0.0808 -0.0906 -0.3309
26397W        W45251   6.848   6.385   0.991 -0.1475  0.2816 -0.1062
26398W        W45252   6.799   0.104   3.566 -0.2187  0.3197  0.0568
26399W        W45253  13.340   7.344  13.162 -0.0530  0.0905  0.0027
26400W        W45254  16.028   3.031  13.655  0.2468  0.1824 -0.4639
26401W        W45255   1.246   2.475   1.758 -0.2129  0.2188  0.0204
26402W        W45256   6.399  10.656   4.610  0.1949  0.1701  0.0225
26403W        W45257  15.729   1.099  15.005 -0.0280 -0.2329  0.0010
26404W        W45258   2.428   9.145   0.290 -0.0128 -0.0283  0.2389
26405W        W45259   2.341   9.250  12.815 -0.0075  0.2658 -0.2422
26406W        W45260  16.533   5.432  13.535  0.1421 -0.0067  0.0294
26407W        W45261   8.952   7.188  12.880  0.2286 -0.1235 -0.0091
26408W        W45262  13.480   0.227  14.629 -0.0918 -0.1284 -0.0335
26409W        W45263  15.055   3.329   4.445  0.0980  0.0443 -0.0564
26410W        W45264  15.183  12.177   3.669  0.0857 -0.2913  0.0743
26411W        W45265  16.507  17.220  16.470  0.4987 -0.0306  0.2030
26412W        W45266   4.488  12.935   1.195  0.2010  0.1461 -0.1417
26413W        W45267  10.603  15.493  15.791 -0.0992  0.0054  0.1462
26414W        W45268   5.562   2.729  13.855  0.0694 -0.2451 -0.0912
26415W        W45269  15.460   0.542  13.124 -0.0054  0.0200 -0.1581
26416W        W45270   1.674   9.747  13.270 -0.0910 -0.0725  0.0994
26417W        W45271  12.753   9.958   1.300 -0.0105  0.0469 -0.2532
26418W        W45272  13.294  11.996   4.127 -0.0931  0.1629 -0.0484
26419W        W45273   2.170  13.948  16.279 -0.0246  0.0538 -0.0733
26420W        W45274   7.502  13.538  15.836 -0.0107  0.1844  0.5078
26421W        W45275   7.915   5.485  17.075 -0.1617 -0.0964 -0.3339
26422W        W45276   5.141   7.157  16.662  0.3760  0.0915 -0.2092
26423W        W45277   3.893   7.029  14.258  0.1862 -0.3031 -0.1691
26424W        W45278  10.209   1.337  13.481 -0.2251  0.3581  0.2829
26425W        W45279  13.516  10.183   0.641  0.0236  0.0713 -0.1653
26426W        W45280   9.312   4.370   4.631 -0.0897 -0.4707  0.1336
26427W        W45281   9.119   3.425   0.639 -0.1127  0.1855  0.1997
26428W        W45282  10.443   5.460  16.251  0.1125 -0.0734 -0.2294
26429W        W45283   2.207  10.348   2.918 -0.0825  0.3319 -0.1454
26430W        W45284   3.793  11.160  11.484  0.0371 -0.2801 -0.1293
26431W        W45285   5.787  12.824   2.530  0.1901 -0.2246 -0.0685
26432W        W45286  10.322  13.233  16.969 -0.0302 -0.0152  0.5022
26433W        W45287  10.650  16.677   1.144  0.2642 -0.1923  0.0293
26434W        W45288   8.241  14.718   2.286 -0.0473 -0.0782  0.0840
26435W        W45289   6.493   4.459  16.792 -0.0007  0.2134  0.0706
26436W        W45290   4.356   2.546   1.496  0.1182 -0.1513  0.0249
26437W        W45291  13.406  12.893  16.749 -0.0349 -0.2009 -0.2139
26438W        W45292   7.618   4.539   3.094 -0.4223 -0.2132  0.0692
26439W        W45293  10.233   9.766   5.053  0.0742 -0.1815 -0.2575
26440W        W45294   6.461   5.133   0.373  0.2580  0.2153 -0.0921
26441W        W45295   7.370  14.791  16.490  0.2197  0.0884 -0.0781
26442W        W45296  13.874   4.168   3.722  0.0520  0.1844 -0.2747
26443W        W45297  11.111   3.181   3.035 -0.4406 -0.3855  0.2307
26444W        W45298   8.226   6.034  16.495  0.1368  0.1921  0.1120
26445W        W45299  15.658  16.593   1.774 -0.1562  0.0817 -0.1595
26446W        W45300  16.363  13.874  16.121 -0.3074 -0.0393  0.0528
26447W        W45301  15.298   9.110   0.647  0.0353 -0.1211  0.3378
26448W        W45302   9.212   2.131   5.245 -0.3702 -0.0251  0.0073
26449W        W45303  14.337  10.672   0.965 -0.1482 -0.0727  0.0382
26450W        W45304  17.205   1.002  17.244  0.0492  0.1406 -0.1069
26451W        W45305   6.183   4.311  14.654 -0.2756 -0.3842 -0.3758
26452W        W45306  13.615  16.499  14.743  0.3903 -0.3620 -0.1932
26453W        W45307  16.874   4.593  15.735  0.0706 -0.1101  0.1572
26454W        W45308   1.342   0.210   1.978  0.0254 -0.0084  0.0886
26455W        W45309  12.370  15.190  12.775  0.0968  0.0567  0.1957
26456W        W45310   7.021  12.352   0.451  0.0252 -0.4185  0.2311
26457W        W45311  11.672   3.405   1.396  0.0539 -0.0607  0.0787
26458W        W45312   6.283   8.690  15.226 -0.0411 -0.1663 -0.1586
26459W        W45313  13.974  15.290  12.271  0.0468 -0.2048 -0.4168
26460W        W45314   2.141   6.931  12.868 -0.0436  0.1011  0.0650
26461W        W45315   2.755   4.965   2.783 -0.2143 -0.0631 -0.2270
26462W        W45316   9.279   7.031  16.042 -0.1242  0.0610  0.0128
26463W        W45317   1.333   3.517  14.473  0.2424 -0.1907 -0.0930
26464W        W45318   0.961  12.690   4.565 -0.1577 -0.2074  0.1467
26465W        W45319   2.054   8.617  14.010 -0.0273  0.0821 -0.1044
26466W        W45320   3.702   8.591   3.843 -0.3119  0.2343 -0.0286
26467W        W45321   6.987   0.478   2.377  0.1564 -0.0426  0.0059
26468W        W45322   7.984   1.689  13.361  0.1836 -0.1654 -0.1919
26469W        W45323   0.421  10.787   4.521  0.0578  0.0408  0.0886
26470W        W45324   1.225  12.481   1.561 -0.1495  0.2392 -0.2979
26471W        W45325   3.312  16.018  15.426 -0.2185  0.1034 -0.0084
26472W        W45326   3.881  13.511   3.464  0.0183 -0.2761 -0.0414
26473W        W45327   1.679   9.862  14.119 -0.1761  0.0863  0.0291
26474W        W45328  14.973  11.569  16.246 -0.1184  0.1828  0.0347
26475W        W45329   2.724   9.009  15.018  0.0840 -0.1347 -0.1355
26476W        W45330   3.449  16.345  16.790  0.1140 -0.2006 -0.0998
26477W        W45331   0.302   8.660  11.016  0.5994  0.1229  0.5428
26478W        W45332  13.613   8.116  13.245 -0.3184 -0.2612 -0.0054
26479W        W45333   1.497  15.868   0.121 -0.0775 -0.1097 -0.0693
26480W        W45334  12.848   9.852  14.328 -0.1966  0.0624  0.0774
26481W        W45335   9.918  13.703  15.713 -0.0749 -0.5076 -0.0569
26482W        W45336  13.282   4.370   4.468 -0.0030  0.1132 -0.0453
26483W        W45337  15.094  11.377   5.209  0.1627  0.2102  0.4306
26484W        W45338  15.934   9.632  15.912  0.0364 -0.0500  0.1201
26485W        W45339   5.347  13.820  12.957 -0.0981 -0.2258  0.1752
26486W        W45340   7.493  10.478  15.972  0.3401 -0.0330  0.0478
26487W        W45341  14.287  14.346   3.452  0.1438  0.3708  0.0281
26488W        W45342   1.543   0.316   0.512 -0.0456  0.1235  0.2576
26489W        W45343   3.464  14.155   4.202 -0.0320 -0.2479 -0.0324
26490W        W45344   0.043  13.875   4.201 -0.2513 -0.1667 -0.2291
26491W        W45345   9.310  17.313  14.247 -0.1238 -0.1287 -0.0822
26492W        W45346  16.542  11.583   0.583  0.0355 -0.0906 -0.0241
26493W        W45347   3.238   4.134  14.942 -0.1764  0.0590  0.2038
26494W        W45348   8.692   1.272  13.216 -0.0871 -0.1061 -0.0193
26495W        W45349  10.839  11.763   1.093  0.2308  0.2773 -0.2973
26496W        W45350   9.288   2.592   0.425 -0.0400 -0.1414  0.3082
26497W        W45351   3.931  12.132   2.713 -0.0620 -0.1874  0.1751
26498W        W45352  12.061   9.656   1.931 -0.0094 -0.2994  0.1667
26499W        W45353   8.048  14.965  13.541 -0.2237  0.0662 -0.2873
26500W        W45354   6.541   1.410   4.377 -0.2085 -0.0709 -0.1565
26501W        W45355  10.289   9.254   1.497  0.0629 -0.2537  0.1697
26502W        W45356   2.306  16.996  16.658 -0.0657  0.2448  0.2268
26503W        W45357   1.703   9.640  15.796  0.0443 -0.2786 -0.0065
26504W        W45358   5.423   8.557   4.582 -0.1374 -0.0412 -0.0770
26505W        W45359   5.056   5.816   4.189 -0.1627 -0.1909 -0.1594
26506W        W45360   9.957  13.503   3.550  0.2091 -0.0691  0.3547
26507W        W45361   2.501  14.093   1.878  0.0191 -0.0321 -0.1383
26508W        W45362  12.868  12.414   0.994  0.1410 -0.0074 -0.1392
26509W        W45363  12.313  14.373  12.484 -0.0523 -0.0221  0.0185
26510W        W45364   5.819  14.701  14.803  0.0662 -0.1919 -0.1214
26511W        W45365   1.270  10.457  15.987  0.1920  0.1515 -0.0137
26512W        W45366   9.573  10.110  13.825  0.0133  0.0851 -0.1501
26513W        W45367   7.276   7.064   2.887 -0.0059 -0.0371 -0.2466
26514W        W45368   2.345   2.861  13.470 -0.2560  0.0926 -0.0633
26515W        W45369   8.758  14.074  13.634  0.3038 -0.0197 -0.1338
26516W        W45370  14.623   2.635   4.818 -0.3128 -0.1498 -0.2698
26517W        W45371   3.829   0.050   0.196 -0.3150  0.1471 -0.1015
26518W        W45372  13.345   6.877  17.324  0.2058  0.1009  0.1511
26519W        W45373   6.756   9.127   2.363 -0.2815 -0.0982  0.1407
26520W        W45374   2.686   0.126   3.817 -0.0094  0.0519 -0.2975
26521W        W45375   3.425   4.146  16.386 -0.2187 -0.0574  0.3507
26522W        W45376   6.500  14.393   4.087 -0.0253  0.0691 -0.1877
26523W        W45377   7.870   4.300   1.771 -0.1851  0.1810 -0.1495
26524W        W45378   0.058  13.933  14.830 -0.0424  0.0008  0.1095
26525W        W45379   4.829  16.710   5.132 -0.1386 -0.0745  0.0429
26526W        W45380  17.405   5.229  12.587 -0.0674 -0.1514 -0.2934
26527W        W45381   3.238   0.534  12.910 -0.0952 -0.1666 -0.2372
26528W        W45382   6.657   9.253   5.141  0.0987  0.0637  0.1507
26529W        W45383   1.232   0.979  15.494 -0.0304 -0.1220 -0.1488
26530W        W45384  16.537   1.446  13.928 -0.1639 -0.2254  0.0788
26531W        W45385   3.024   8.143  14.566 -0.1689  0.1139  0.1381
26532W        W45386   4.013  10.765   1.844 -0.2228  0.0642  0.4855
26533W        W45387   7.800   9.244  13.856 -0.1845  0.1124 -0.1645
26534W        W45388  10.523   1.047   1.586  0.2153  0.0055 -0.0014
26535W        W45389   2.212   4.600   0.251  0.0756 -0.2609  0.0152
26536W        W45390  15.945  16.266  14.930  0.1365 -0.2327 -0.2003
26537W        W45391   6.192  11.219  13.536 -0.1768 -0.1135  0.1524
26538W        W45392  13.233  13.659   0.414  0.0932 -0.2948 -0.4200
26539W        W45393  10.711   7.588  15.074  0.2122  0.3947 -0.0031
26540W        W45394  13.223  11.074  12.499  0.1066  0.0214  0.0417
26541W        W45395   0.223  11.845  13.447  0.1024  0.0284  0.0543
26542W        W45396  16.813   2.249   3.968 -0.1118  0.0842  0.3023
26543W        W45397   7.004   5.225  16.899 -0.0382  0.4207 -0.0991
26544W        W45398   8.847   6.409   3.703  0.0351  0.0362 -0.0192
26545W        W45399   6.921  13.638  13.422  0.2082  0.0940 -0.1619
26546W        W45400  11.328  10.347   2.869 -0.0874 -0.0190 -0.2745
26547W        W45401   5.951   4.264  13.598  0.3636 -0.2010 -0.0370
26548W        W45402  16.481   3.227   0.783 -0.3449  0.1863  0.1154
26549W        W45403  15.348  13.185   1.023  0.1076 -0.1136 -0.1339
26550W        W45404  12.487   6.049  12.473  0.5509  0.2432  0.3978
26551W        W45405   4.579   3.114   3.527  0.2999 -0.3044 -0.3645
26552W        W45406   9.049   8.732   2.830 -0.1678 -0.1580 -0.0253
26553W        W45407  11.475   2.374  12.211  0.1589 -0.2152 -0.0523
26554W        W45408  10.868  14.538   1.619 -0.1099 -0.1343 -0.2555
26555W        W45409   2.993  15.482   0.181  0.2206  0.2717  0.0956
26556W        W45410   1.257   9.991   2.334  0.1037 -0.0306 -0.0633
26557W        W45411  16.717   5.793  12.193  0.2983 -0.2268  0.1103
26558W        W45412  11.165   1.523   3.372  0.0073 -0.2811  0.1464
26559W        W45413  16.114   1.812   1.442 -0.3610  0.3196 -0.0413
26560W        W45414   4.528  15.839  14.654  0.2368 -0.0075 -0.0887
26561W        W45415  10.034   5.661   5.141 -0.2355  0.0396  0.1014
26562W        W45416   9.329  11.536  12.083 -0.0416 -0.1287 -0.0303
26563W        W45417   0.717  15.239   3.031  0.0023 -0.2970  0.1371
26564W        W45418  14.250  11.141   1.286 -0.0426  0.2309 -0.0472
26565W        W45419  14.394  12.348  17.028  0.0758 -0.0435  0.0541
26566W        W45420   7.007   1.475   3.009 -0.1280 -0.1832 -0.1634
26567W        W45421  16.903   5.453  12.638 -0.0661  0.0911  0.0040
26568W        W45422   1.256   2.584   3.412  0.1675  0.1817 -0.2706
26569W        W45423   2.684  10.608   1.352 -0.0584  0.0287 -0.2322
26570W        W45424   9.985  16.945   3.795  0.1948 -0.0318 -0.2521
26571W        W45425   9.736   6.074   3.151  0.2114  0.2346  0.1533
26572W        W45426   5.652   7.673   3.707 -0.1169 -0.0239  0.1904
26573W        W45427   9.524   6.635   0.970 -0.1781  0.1866 -0.1658
26574W        W45428  15.238  10.502   1.933  0.4161 -0.1634  0.0258
26575W        W45429  12.664   6.653  17.074 -0.1243  0.1367  0.2456
26576W        W45430   0.372  15.135   5.794 -0.2307  0.4414 -0.0432
26577W        W45431  14.636   2.757  14.607 -0.0706 -0.1258 -0.0174
26578W        W45432   3.623   1.256   5.420 -0.0308 -0.3930 -0.1775
26579W        W45433   7.011  15.642  16.409  0.4331 -0.0091  0.0727
26580W        W45434  15.402   8.965  14.011  0.0763  0.0422 -0.1110
26581W        W45435   1.063  15.710   0.407 -0.0306  0.2572 -0.1280
26582W        W45436  15.752   2.028   0.265  0.1317  0.0123  0.1373
26583W        W45437   8.432   1.076   2.411  0.2211 -0.1133 -0.1386
26584W        W45438  14.184   0.487  13.803  0.3019 -0.0010 -0.0825
26585W        W45439  10.601   7.934  16.058  0.1054 -0.2448 -0.1864
26586W        W45440   2.130   9.464  16.865 -0.0408  0.0611 -0.2944
26587W        W45441  10.175  15.555  16.548 -0.2694 -0.4221  0.0166
26588W        W45442   5.972   8.321  14.533 -0.0192  0.2526 -0.0305
26589W        W45443   6.108  13.492  13.538 -0.0369 -0.0418 -0.2533
26590W        W45444   3.404   6.109   1.495  0.0547 -0.2866  0.3788
26591W        W45445  14.298   3.787   3.381 -0.0607  0.1952 -0.2320
26592W        W45446   0.857   9.130   5.168 -0.1121  0.1330  0.1106
26593W        W45447  17.092   5.217  11.330  0.1508 -0.2081 -0.0155
26594W        W45448   2.868  15.718   2.941 -0.3343 -0.0377  0.2179
26595W        W45449   1.396  14.935   1.385  0.0114  0.2698 -0.1070
26596W        W45450  11.753   8.155   1.962  0.0176  0.0227 -0.0104
26597W        W45451   3.017   1.109   1.781  0.1648 -0.2918 -0.1810
26598W        W45452  11.655  16.220  16.278  0.1017 -0.0684  0.1800
26599W        W45453   4.985   1.242   3.780  0.0660 -0.1598 -0.0740
26600W        W45454  15.213  12.173  13.017 -0.0802 -0.0034  0.0099
26601W        W45455  13.649  16.489  12.921  0.2738  0.0299 -0.1102
26602W        W45456   0.651   2.944  14.299 -0.0426  0.2446 -0.1535
26603W        W45457  10.385   2.456   0.995 -0.1167  0.1921 -0.1280
26604W        W45458   5.771   3.803  11.964 -0.1681  0.1681 -0.0310
26605W        W45459   1.771   0.257  12.696 -0.1531 -0.3802  0.0925
26606W        W45460  15.564   7.275   0.499  0.2593 -0.1425 -0.2441
26607W        W45461   0.361  15.744  16.751 -0.1122 -0.0791  0.4104
26608W        W45462   7.922   0.472   2.723  0.1692 -0.0190 -0.1925
26609W        W45463  16.483  10.598  15.097  0.0646 -0.3653 -0.2164
26610W        W45464  10.391  10.713   2.667 -0.0996 -0.1841  0.0956
26611W        W45465   2.919   0.818   2.534 -0.0637  0.0347  0.0456
26612W        W45466  15.331  12.058   5.445  0.1128 -0.1561 -0.0270
26613W        W45467   5.865  11.351  14.795  0.1872  0.0819 -0.3756
26614W        W45468  16.622   9.792  13.397  0.2142  0.1121  0.0561
26615W        W45469   5.462   3.906   0.033  0.1688  0.3536  0.1182
26616W        W45470  16.847   8.698  15.170 -0.0867  0.3256 -0.0704
26617W        W45471   5.730   6.249  17.429 -0.0918 -0.1860  0.3506
26618W        W45472   1.653   4.596   3.544 -0.0095 -0.1438 -0.2829
26619W        W45473  12.791  14.729   1.975 -0.3104  0.1724 -0.0364
26620W        W45474   1.322   4.434  12.979 -0.2599  0.0401 -0.1423
26621W        W45475  16.909   5.194   0.060  0.2524 -0.0009 -0.1416
26622W        W45476  13.798   5.194   1.470 -0.1457 -0.1406  0.0687
26623W        W45477  15.522   3.553   1.006  0.0191  0.1322 -0.0310
26624W        W45478   9.905  16.468  14.496 -0.0246  0.4285  0.1499
26625W        W45479   7.491   7.161  16.999  0.3206 -0.3200 -0.2680
26626W        W45480   7.043  13.072  12.291  0.1826  0.1224 -0.1737
26627W        W45481  16.865  16.024   2.037 -0.2946 -0.1376 -0.0583
26628W        W45482   2.376   6.323  16.449 -0.1030 -0.1505 -0.1621
26629W        W45483   7.572   7.386  15.897 -0.2967  0.3755  0.3935
26630W        W45484   8.617   4.271  12.567 -0.1547  0.0856 -0.0644
26631W        W45485  11.275  14.831   1.707  0.1525 -0.1541  0.0539
26632W        W45486   6.446  12.288  12.348 -0.0514 -0.1130 -0.2019
26633W        W45487   6.889   4.167  16.717  0.0097 -0.2447  0.2250
26634W        W45488  13.006  17.142  13.026 -0.1959 -0.2796  0.2051
26635W        W45489   4.648  13.947  12.278  0.0200  0.1281 -0.0085
26636W        W45490   5.641   4.574  16.925 -0.1098 -0.3127  0.0872
26637W        W45491   1.889  10.648   4.619  0.3232  0.0097 -0.0965
26638W        W45492   3.988   4.096   4.685  0.3798  0.0456  0.0485
26639W        W45493   6.652  14.574   0.796 -0.0936  0.2479  0.0994
26640W        W45494  15.721  11.552  13.260  0.0804  0.1427  0.0493
26641W        W45495   3.259  14.669   5.181 -0.4745  0.2728  0.1928
26642W        W45496   3.586  10.897   4.690  0.2467 -0.0017  0.0699
26643W        W45497   2.858   4.047  13.791  0.0410 -0.1766 -0.0222
26644W        W45498  13.479   5.098  13.324 -0.0418 -0.2171 -0.0230
26645W        W45499   3.334  10.034   2.279 -0.0132 -0.0162  0.1222
26646W        W45500   2.881   0.533   5.057 -0.0635  0.0623 -0.1592
26647W        W45501   1.494   8.137  14.665 -0.1150  0.0491  0.1765
26648W        W45502  11.956  17.199  16.642 -0.1207 -0.0207 -0.1098
26649W        W45503   9.080  11.139  14.660  0.4553  0.0809  0.0671
26650W        W45504  10.829  10.762   0.125  0.0421 -0.2130 -0.1242
26651W        W45505  10.536  15.678   3.780  0.1625  0.3078  0.1940
26652W        W45506  15.661  12.955  14.437 -0.1475  0.0972 -0.0587
26653W        W45507   8.862  14.351  11.909  0.1634 -0.2027  0.0085
26654W        W45508  10.368   5.509  17.121 -0.1408  0.1136 -0.2333
26655W        W45509   0.964  12.267  14.537 -0.1229 -0.1372 -0.1340
26656W        W45510   4.521   7.918  15.492  0.0869  0.2642 -0.0085
26657W        W45511   9.131   2.084  14.625  0.1697 -0.0685 -0.1389
26658W        W45512   1.386   9.297  16.041 -0.1167  0.1507 -0.0591
26659W        W45513   3.532  11.595  16.771  0.0011 -0.0486  0.1786
26660W        W45514  11.379  16.852  14.585 -0.1161 -0.0560  0.1681
26661W        W45515  13.482   3.114  15.709 -0.2307 -0.0000  0.1207
26662W        W45516   7.091   8.501  15.214 -0.0639  0.1065 -0.0551
26663W        W45517   3.190   3.495   3.694 -0.2735 -0.1878  0.0045
26664W        W45518   5.748  11.198  12.664  0.1906 -0.0478 -0.1884
26665W        W45519  12.794   3.951  14.841  0.3654  0.2182  0.1096
26666W        W45520   7.357  10.118  15.641 -0.3368  0.0085 -0.1820
26667W        W45521   8.544  14.885  15.165 -0.2474  0.3320 -0.2070
26668W        W45522   6.575   8.759  14.375 -0.0391  0.0110  0.3373
26669W        W45523   8.409  12.656  14.840 -0.2747  0.0045 -0.0432
26670W        W45524   6.653  15.478   4.179 -0.1148 -0.0325  0.0988
26671W        W45525   8.877   3.281  16.213  0.1059  0.2951  0.0489
26672W        W45526   9.215  11.359  13.523  0.0452 -0.2143 -0.1462
26673W        W45527   0.062  12.797  13.899 -0.2829  0.1390 -0.0144
26674W        W45528   7.204   6.010   1.092 -0.2078 -0.1679  0.1956
26675W        W45529  13.964   1.932   1.863 -0.2704  0.1413  0.0718
26676W        W45530   8.371  17.277   3.849 -0.1177  0.1673  0.1513
26677W        W45531  16.485   7.206  17.338 -0.0545  0.1742 -0.0326
26678W        W45532  11.778  15.147   3.812 -0.1266  0.1738  0.2106
26679W        W45533  10.912  14.198  13.807 -0.1591 -0.1319  0.0848
26680W        W45534  11.283  10.601   5.157 -0.2764  0.1106  0.3208
26681W        W45535   6.305  11.967  16.461 -0.1616  0.0386 -0.2902
26682W        W45536   2.517  12.327  15.462 -0.0375 -0.3116 -0.4618
26683W        W45537  16.480  15.820  17.101  0.1404 -0.1032  0.1715
26684W        W45538  10.538  10.594  13.231  0.0695  0.3126  0.0720
26685W        W45539   2.580  17.201  17.049  0.1187 -0.0031  0.1799
26686W        W45540   7.585   1.542   1.626 -0.0616  0.1207 -0.1248
26687W        W45541   7.087   2.730   3.820  0.0603  0.2691  0.0042
26688W        W45542  13.313   7.930   2.209 -0.1174 -0.0428 -0.3422
26689W        W45543   8.701  17.010   4.761  0.2382  0.0333 -0.0938
26690W        W45544   1.847   6.010  14.113  0.3204  0.1739 -0.0100
26691W        W45545   7.366  11.963   0.454 -0.1197 -0.0121  0.2392
26692W        W45546   1.561  12.002   1.768  0.0960  0.2237  0.0974
26693W        W45547   0.013  14.902   2.045 -0.2117 -0.1351  0.0678
26694W        W45548   8.468  16.207   3.243  0.1720  0.1513 -0.0411
26695W        W45549   0.691   8.024   5.348  0.2182 -0.4391 -0.0238
26696W        W45550   8.081  16.912  16.869 -0.1093 -0.0558 -0.2960
26697W        W45551  11.529   7.949   1.197  0.0589  0.0721 -0.2902
26698W        W45552   3.125   4.063  13.173 -0.1771 -0.0375 -0.2772
26699W        W45553  11.129   1.785   3.785 -0.3301  0.1837 -0.0249
26700W        W45554  15.862   0.804  12.974 -0.0448  0.2926  0.1368
26701W        W45555   0.094  10.983   2.590 -0.1173  0.1661  0.3352
26702W        W45556  16.802  12.035  16.074 -0.0571  0.0155 -0.1054
26703W        W45557   2.826   3.030   4.313  0.1339  0.3938 -0.0865
26704W        W45558   0.204   0.336   0.764  0.0561 -0.1037 -0.1297
26705W        W45559   7.440   1.503  14.469 -0.3262  0.0677  0.0403
26706W        W45560  14.590  11.554  16.684  0.2085 -0.0258  0.3529
26707W        W45561  14.952   1.377   4.658  0.0034 -0.0561  0.3929
26708W        W45562  16.967   1.015  13.780  0.1538 -0.1249  0.0489
26709W        W45563   9.432   0.920   4.196 -0.2515  0.2853 -0.0447
26710W        W45564   9.065   8.069  15.162  0.2639  0.0474  0.0142
26711W        W45565   1.240   6.251   4.381  0.4116  0.1110 -0.0360
26712W        W45566   7.046  13.439  16.118  0.2745 -0.2934 -0.2321
26713W        W45567  12.225   3.579   0.548 -0.0695  0.2199 -0.1268
26714W        W45568  12.429   8.925  17.464 -0.0838 -0.0464  0.1569
26715W        W45569   0.045   0.860  15.590  0.1779 -0.1581 -0.0425
26716W        W45570  15.063  12.721   0.731 -0.3625  0.0539  0.1729
26717W        W45571  14.635   9.269   2.032  0.3406 -0.0713  0.2758
26718W        W45572   0.237   4.516  16.708 -0.1514  0.1100  0.2372
26719W        W45573   8.424  11.447   5.233 -0.2219 -0.0487  0.4219
26720W        W45574  17.034   9.512   1.996 -0.4234  0.3028 -0.2206
26721W        W45575  13.185   9.007   0.938  0.0142  0.3673  0.0419
26722W        W45576   4.102   4.712   4.288  0.0865 -0.3173 -0.0398
26723W        W45577  16.201  17.204  14.141 -0.4607  0.2691 -0.2085
26724W        W45578   0.716   8.079   3.681  0.2997 -0.4051  0.2247
26725W        W45579   0.518  15.906  13.309 -0.0300 -0.0179  0.1845
26726W        W45580   0.937   0.012   4.913  0.0038 -0.1197  0.1211
26727W        W45581   9.530   6.034  17.039  0.1460 -0.2010  0.1418
26728W        W45582   4.318   2.673   2.116  0.2506 -0.2913 -0.0922
26729W        W45583   7.456  14.220   3.581 -0.0596  0.2388  0.3010
26730W        W45584   5.225  15.591   4.968  0.1678 -0.3325  0.1148
26731W        W45585  13.068   1.930   2.492 -0.0796 -0.3513 -0.1394
26732W        W45586  16.456   3.322   2.121 -0.2772  0.0147  0.0445
26733W        W45587   1.304  17.160   3.324  0.1115  0.3671 -0.2194
26734W        W45588  15.625   6.371  15.344  0.2909  0.0277  0.0278
26735W        W45589  12.315   1.731   2.810 -0.2032 -0.2504 -0.0108
26736W        W45590  15.053  14.601   1.853  0.1144 -0.0724 -0.1323
26737W        W45591   1.104   1.375  14.128 -0.0548 -0.1093  0.1095
26738W        W45592   6.659  15.338  16.213 -0.0170  0.1325  0.1826
26739W        W45593   6.699  13.583   2.954 -0.1359  0.1397 -0.0374
26740W        W45594  11.984   9.871   0.280  0.3805 -0.0807  0.0180
26741W        W45595  10.397   1.638  16.709  0.1232 -0.0109  0.2265
26742W        W45596  16.933   5.873  16.397 -0.3703 -0.0321  0.0489
26743W        W45597   9.995  11.400  16.281 -0.2160  0.2730 -0.1539
26744W        W45598   2.696  16.598   4.529  0.1290 -0.0586  0.2562
26745W        W45599  16.033  11.450  15.901 -0.2892 -0.0580  0.1225
26746W        W45600  12.756  16.766  13.189 -0.3157 -0.0712 -0.2419
26747W        W45601   9.719   4.352   4.925 -0.2140 -0.1055 -0.1727
26748W        W45602   3.041   5.145   3.711  0.2313  0.4180 -0.1475
26749W        W45603  11.760   7.321   3.266 -0.0914 -0.0707  0.0166
26750W        W45604  16.172   0.588   0.934 -0.0468 -0.1241  0.1803
26751W        W45605   2.570   2.223   2.384 -0.1167 -0.1126  0.0284
26752W        W45606  10.376   2.512   6.148 -0.1318 -0.1732  0.0486
26753W        W45607   4.104  14.957   1.678 -0.0828  0.0314 -0.1065
26754W        W45608   5.370   4.611   3.429  0.2495 -0.4881  0.3036
26755W        W45609  15.285  10.274   4.378  0.0353  0.2228  0.3702
26756W        W45610  13.606   5.532  13.850  0.1463 -0.2728 -0.0013
26757W        W45611  11.668  12.506  12.271 -0.5263 -0.0839 -0.4107
26758W        W45612  11.741  15.768   1.035  0.0516 -0.2806 -0.0913
26759W        W45613   8.931   4.811  13.411 -0.1434  0.0445 -0.1829
26760W        W45614   1.886  12.144  16.597  0.0624  0.0283 -0.1442
26761W        W45615   7.070   0.191  15.435 -0.4002 -0.0024  0.1285
26762W        W45616   3.240   3.152  13.937  0.4326  0.4864 -0.1141
26763W        W45617   2.106  16.931  14.804 -0.0761 -0.1160  0.2322
26764W        W45618   0.128  17.145   1.456 -0.1914 -0.0935  0.2435
26765W        W45619   6.357  10.774  13.656 -0.1153 -0.2924 -0.0405
26766W        W45620   4.588  12.539   4.145 -0.3330  0.1318 -0.0310
26767W        W45621   5.747   1.900  16.197 -0.0173  0.3127 -0.1006
26768W        W45622   8.823   8.016  17.447  0.1545  0.1275  0.4089
26769W        W45623  15.398  16.450   0.862  0.0974 -0.1447 -0.1899
26770W        W45624  16.607   9.143  15.435  0.2063 -0.1246 -0.0010
26771W        W45625   7.037   3.147  12.366 -0.2164 -0.1366  0.2818
26772W        W45626  11.734   8.958   2.439  0.3448 -0.1501 -0.0070
26773W        W45627   3.827  13.561   2.104 -0.1533  0.0273  0.2434
26774W        W45628   0.818   4.122  13.764  0.1192  0.0098 -0.2133
26775W        W45629   2.236   6.866   5.308 -0.0289  0.2087  0.1197
26776W        W45630   4.017   3.445   1.021  0.2659  0.0225  0.2329
26777W        W45631  16.426  15.942   1.799 -0.0605  0.0947 -0.2505
26778W        W45632   4.106   4.035  12.290 -0.1811  0.1801 -0.0002
26779W        W45633   0.096   8.051  16.335 -0.1422  0.0235 -0.1300
26780W        W45634  16.754  11.429   3.089 -0.1148  0.0600 -0.0392
26781W        W45635   8.972   8.866  13.750 -0.2289 -0.1095 -0.2117
26782W        W45636  12.769   4.042  13.920  0.2637  0.1172 -0.3481
26783W        W45637  16.637  17.219   4.952  0.0340 -0.0100 -0.0110
26784W        W45638   6.488   1.333   4.862  0.1632 -0.2894 -0.0121
26785W        W45639  13.726  13.254  13.857  0.2027  0.1328 -0.0663
26786W        W45640   7.796   6.181  11.203 -0.2788  0.0485 -0.1390
26787W        W45641   5.893  10.688   2.400 -0.1407  0.2446  0.1007
26788W        W45642   6.475   6.716  16.269  0.2170  0.0861  0.1085
26789W        W45643   6.930  10.144  12.823 -0.0299  0.2168  0.1771
26790W        W45644   6.396   5.920  15.821 -0.1714 -0.0114 -0.2639
26791W        W45645   8.900   5.439   4.492  0.3381  0.1024 -0.0104
26792W        W45646  13.161  11.252  14.092 -0.3405 -0.0561 -0.1217
26793W        W45647   9.758  16.635  14.050  0.0731 -0.5964 -0.1123
26794W        W45648   7.402   3.703   0.726 -0.0217 -0.0698  0.0123
26795W        W45649  17.060  14.752   5.053  0.0467 -0.0248 -0.0160
26796W        W45650   7.352   7.043   1.545 -0.3744 -0.1501  0.1697
26797W        W45651  15.797   8.380   1.052 -0.1910  0.6298 -0.0765
26798W        W45652   1.906  11.722  16.239 -0.0472  0.2022 -0.2795
26799W        W45653  10.159  16.518   3.037 -0.2720  0.2913 -0.1245
26800W        W45654  11.441  13.344  14.986 -0.3527 -0.0103 -0.0216
26801W        W45655  10.792  12.721   4.679 -0.0171 -0.0222  0.1692
26802W        W45656  14.915  11.411   1.207 -0.0288  0.2227  0.0487
26803W        W45657  16.228   1.822  16.325 -0.1871 -0.1562  0.0150
26804W        W45658  11.713   9.348  17.290  0.1323  0.0914  0.0647
26805W        W45659   8.328  11.610  13.285 -0.0322  0.0420  0.0269
26806W        W45660   5.449  14.232   3.038  0.0195 -0.0555  0.0160
26807W        W45661   2.557  13.143  12.983 -0.0664  0.4287 -0.2322
26808W        W45662   7.536   0.640  12.601 -0.0137 -0.0590  0.1866
26809W        W45663  13.510   9.424   0.961 -0.2579 -0.0691  0.0541
26810W        W45664  11.292   4.849   0.908 -0.2788 -0.1926 -0.1894
26811W        W45665  13.168  17.057  13.528 -0.3106 -0.0395  0.1256
26812W        W45666   9.522   7.178  14.688 -0.1489  0.0212 -0.1326
26813W        W45667  11.970   4.696  14.846 -0.2395  0.0375  0.3730
26814W        W45668   3.277  15.836  14.508 -0.0488  0.2200  0.1455
26815W        W45669   1.324   2.969   3.738  0.1712  0.3599 -0.0023
26816W        W45670   4.388   8.579   0.861 -0.0004  0.0825  0.0135
26817W        W45671   3.455  10.344  14.449  0.0899 -0.0513  0.0957
26818W        W45672   5.289   4.907  16.194 -0.0738  0.0430  0.1492
26819W        W45673   4.527   3.487   3.986  0.1807  0.0928  0.1230
26820W        W45674   9.088  12.412  12.470  0.3871  0.1458  0.0693
26821W        W45675  14.816  16.522   1.036 -0.0073  0.0209  0.1355
26822W        W45676   9.889  16.744   0.249 -0.2337  0.0717  0.0605
26823W        W45677   6.072  15.813   2.098 -0.3354  0.1243 -0.0847
26824W        W45678  17.064  17.386  14.730  0.0609 -0.2191 -0.1361
26825W        W45679   1.526   0.455  17.074 -0.0072 -0.0496  0.1412
26826W        W45680   3.373  16.346   3.819  0.1833  0.3779  0.1197
26827W        W45681   4.597   4.037   0.704  0.3780  0.0577  0.0436
26828W        W45682  13.756   8.118  12.760  0.1119 -0.0609  0.1103
26829W        W45683  17.397   7.041   3.351  0.1112  0.2263 -0.0248
26830W        W45684  12.669   3.832   4.925 -0.0666 -0.2156 -0.1072
26831W        W45685   1.421  12.147  13.595 -0.3337  0.1740  0.0682
26832W        W45686  15.860   1.643   4.366 -0.0761  0.0065  0.0110
26833W        W45687  15.641   4.526   2.550  0.1361  0.0883  0.1083
26834W        W45688   1.444   3.131   4.812 -0.0915 -0.5072  0.0434
26835W        W45689   1.049  12.063   1.751  0.0351  0.0273  0.0872
26836W        W45690   1.030  11.449  15.794  0.0461 -0.1371  0.2182
26837W        W45691   7.352   4.097  16.911 -0.1492  0.3105  0.2153
26838W        W45692   8.764   1.631  14.321  0.2155 -0.0194  0.0089
26839W        W45693   5.890   0.709   5.303  0.1819 -0.0253  0.0383
26840W        W45694   8.302   5.729  14.581 -0.4311  0.0959 -0.1353
26841W        W45695  13.902   5.148  15.104  0.1346 -0.1572  0.3313
26842W        W45696  16.310   0.999   2.991 -0.0057 -0.0609  0.0730
26843W        W45697   1.969   3.761   1.076  0.3333 -0.2571  0.0370
26844W        W45698   9.701   8.579   1.097  0.0513 -0.1660 -0.0265
26845W        W45699   9.342   5.364   4.324  0.1571 -0.0971 -0.3382
26846W        W45700  11.595  11.010  16.513 -0.0044 -0.1571 -0.2237
26847W        W45701  11.935   9.316  14.409 -0.3486  0.2041 -0.3480
26848W        W45702  12.318   9.472   3.728  0.0396 -0.1878 -0.1115
26849W        W45703   1.180  11.436   2.513  0.0499 -0.0725 -0.2380
26850W        W45704   2.521  11.217   0.801 -0.0307  0.0278 -0.0796
26851W        W45705   5.385  17.322   2.609  0.0135 -0.0337 -0.0007
26852W        W45706  16.043  12.678   5.622 -0.3149 -0.0448 -0.1000
26853W        W45707  14.958   6.620  16.521 -0.2581 -0.3550 -0.3332
26854W        W45708   5.532  16.232  15.526  0.0893  0.0887  0.1321
26855W        W45709  14.004   8.718  13.346 -0.1129  0.2572 -0.1555
26856W        W45710   1.144  14.048   3.259  0.0336 -0.0280  0.0811
26857W        W45711  10.520   4.374   3.289 -0.4171  0.0670  0.3075
26858W        W45712  12.479  11.527  13.987 -0.0655 -0.4353 -0.2907
26859W        W45713  14.684   1.017  13.252 -0.2231  0.0440  0.1275
26860W        W45714   4.088   3.348   4.818 -0.1737  0.2659 -0.0294
26861W        W45715  13.328  10.111   4.361  0.4486  0.2455  0.0425
26862W        W45716  14.287  12.043   3.360  0.0082  0.1325 -0.0152
26863W        W45717   7.860   6.773  12.301  0.1721 -0.0652  0.3546
26864W        W45718   0.804  10.286  13.128 -0.1633 -0.0378 -0.2327
26865W        W45719  16.965   9.877  17.192  0.0638  0.0139  0.2783
26866W        W45720   9.394   7.749  15.450  0.0334 -0.0999 -0.1118
26867W        W45721  11.813  10.006  16.147 -0.2991  0.0120 -0.0650
26868W        W45722   6.947   1.181  15.045  0.0646  0.0462  0.0725
26869W        W45723  11.345  15.740   4.893 -0.0275 -0.0057  0.0206
26870W        W45724  10.468   6.340   1.889  0.0089  0.2395  0.1901
26871W        W45725  16.631   5.824   6.460  0.2085 -0.2916  0.0887
26872W        W45726  10.768   4.064   2.990 -0.1079 -0.0574 -0.0836
26873W        W45727   4.314  10.786  14.502 -0.0815 -0.0349  0.0359
26874W        W45728  14.108  11.061   0.718 -0.5001 -0.1040 -0.2036
26875W        W45729   5.386  16.686   2.856  0.0880 -0.0278  0.0281
26876W        W45730   7.831  10.813   4.360 -0.0962  0.1343 -0.1710
26877W        W45731   2.909  14.114   2.336 -0.0887 -0.3252 -0.1577
26878W        W45732  13.162   5.287   1.597  0.1659 -0.0473 -0.0943
26879W        W45733   0.195   3.059   2.694 -0.0402 -0.1828  0.2177
26880W        W45734   2.121  14.629   2.026  0.0436 -0.1322 -0.0822
26881W        W45735  12.578   6.214  16.244 -0.3232  0.1137 -0.2807
26882W        W45736   7.042   7.816   2.667 -0.0211  0.0558 -0.0217
26883W        W45737   5.393  11.862   2.313 -0.0753 -0.1068  0.3502
26884W        W45738   1.948  11.202  14.531  0.0642 -0.3226  0.0810
26885W        W45739   5.731   7.893  16.859 -0.0282  0.0204  0.0283
26886W        W45740  15.039   2.799  12.777  0.1791  0.1090  0.1502
26887W        W45741   2.011   2.758  12.373 -0.0975  0.3772  0.0649
26888W        W45742   0.226   6.478   0.937 -0.0959  0.1335 -0.1240
26889W        W45743   7.870  12.540  13.393  0.3479 -0.1185 -0.1990
26890W        W45744   7.033   4.509   1.913 -0.1367 -0.0400  0.1076
26891W        W45745   9.947  10.554   2.815  0.1412  0.0668  0.0657
26892W        W45746  15.490   5.621   3.284  0.0383  0.0675 -0.0032
26893W        W45747   4.406   1.557   1.769 -0.0596  0.0919  0.0019
26894W        W45748   3.249   5.776  17.470 -0.0299 -0.1999 -0.2042
26895W        W45749   3.471   4.603  16.310 -0.0599 -0.1125  0.0887
26896W        W45750  15.608   4.056   2.306  0.2475 -0.0716  0.0477
26897W        W45751   5.985   3.513  17.314  0.3421 -0.0603 -0.0220
26898W        W45752   7.515   8.367  17.118  0.0846 -0.0339  0.1294
26899W        W45753  17.301  13.257   1.734  0.1747  0.1315  0.2418
26900W        W45754  14.160   2.779   1.662 -0.1182  0.2335 -0.5033
26901W        W45755  13.729  15.884  17.468  0.1582 -0.1271 -0.1113
26902W        W45756  14.801  11.378   0.094  0.2236 -0.1605  0.0543
26903W        W45757  10.673   8.864   5.185  0.1121  0.0475 -0.1522
26904W        W45758   2.142  11.087  17.448  0.2335  0.3373 -0.3172
26905W        W45759  15.321  13.362  16.646  0.3100 -0.1517  0.2612
26906W        W45760   9.639   1.202   2.549  0.2600 -0.1748 -0.2220
26907W        W45761   5.834   9.915  15.299  0.0266 -0.0238  0.0871
26908W        W45762   4.775   0.697  16.956 -0.1982  0.0932  0.4268
26909W        W45763  16.421  10.477  16.711 -0.0094 -0.0645 -0.1864
26910W        W45764   4.518   9.829   1.067 -0.0123  0.3124 -0.0159
26911W        W45765  17.148   0.840   2.311 -0.0574 -0.0530 -0.5487
26912W        W45766  15.012   9.088   2.244  0.1614  0.1267 -0.0649
26913W        W45767  16.189  14.725  14.187 -0.0331 -0.3297  0.0488
26914W        W45768  17.029   6.423   0.140  0.0028  0.2910 -0.1092
26915W        W45769   1.293  11.252  15.317  0.0544 -0.0943  0.1265
26916W        W45770  15.874   3.179  14.604 -0.1580  0.1624  0.1134
26917W        W45771   0.935   9.568  15.756  0.0919  0.0696 -0.2708
26918W        W45772  10.056   9.714   2.420  0.3268  0.1350  0.3660
26919W        W45773   2.393   5.225  13.049  0.1883 -0.3731  0.0925
26920W        W45774  15.434   0.394  17.077  0.5175 -0.1989  0.5647
26921W        W45775   7.973   1.209   2.236 -0.0322 -0.0338 -0.2510
26922W        W45776   6.868  11.748  12.800 -0.0681 -0.0831 -0.1412
26923W        W45777   4.472   5.055  13.350  0.2326 -0.1627 -0.3108
26924W        W45778   0.703   2.307   2.285  0.0192  0.1232  0.1230
26925W        W45779  14.704  14.592   2.229 -0.0602  0.0381 -0.2697
26926W        W45780  10.055  15.246   5.460  0.1996 -0.2915  0.1442
26927W        W45781  15.435   6.043   2.228 -0.2279  0.0344 -0.0433
26928W        W45782  16.172   6.990   5.219 -0.0658  0.3166  0.2703
26929W        W45783   4.420   3.521  15.640  0.0120  0.2993 -0.1032
26930W        W45784   1.850  15.157   1.285  0.1771 -0.0940 -0.0398
26931W        W45785  11.750   3.054  15.891 -0.0843 -0.1935  0.3592
26932W        W45786   6.170   4.257   0.634 -0.1468  0.4284 -0.1403
26933W        W45787  16.392   7.421  12.966 -0.3038 -0.0095  0.0092
26934W        W45788   7.888   4.763   4.836  0.1298  0.1777 -0.0863
26935W        W45789   4.567  15.643  12.517 -0.2548  0.0672 -0.0143
26936W        W45790   6.749   8.022   2.322  0.0656 -0.1816  0.1276
26937W        W45791   5.947  15.401  15.813  0.0077  0.0888 -0.0310
26938W        W45792   6.395  13.465  14.424 -0.2833  0.1122 -0.0946
26939W        W45793   5.936  11.739  16.087  0.3154 -0.1517  0.0970
26940W        W45794   7.195   8.760  13.114  0.0866 -0.2718  0.0154
26941W        W45795  10.743  11.649  17.058  0.2488  0.0394  0.2095
26942W        W45796   1.259   4.669  12.426 -0.0465 -0.3405 -0.1971
26943W        W45797   9.238  15.629   5.342  0.0437 -0.2821 -0.0747
26944W        W45798  17.258   1.108   4.366  0.0581  0.1637 -0.0416
26945W        W45799  13.965  10.886   5.076  0.2080 -0.1404 -0.1125
26946W        W45800  16.165   4.011   2.549  0.1581 -0.1560  0.0564
26947W        W45801   9.221   2.113   1.299 -0.0514 -0.2898  0.2171
26948W        W45802   3.357  12.118  12.366 -0.2159  0.2409  0.1613
26949W        W45803   8.921   8.437  16.062  0.0093  0.0119 -0.2762
26950W        W45804   9.708   3.632  14.754 -0.0302 -0.0115  0.0990
26951W        W45805  10.369   8.871   2.534 -0.2090 -0.0314  0.1624
26952W        W45806   6.443  12.838   2.525  0.2547 -0.1199  0.0907
26953W        W45807   1.848   5.721  15.362  0.4388  0.2613 -0.0015
26954W        W45808   9.984   7.170  13.994  0.1472 -0.0926  0.1301
26955W        W45809   3.085   1.156  15.613  0.4189  0.1304 -0.3596
26956W        W45810  17.405  15.902   4.168 -0.2779 -0.0306 -0.2524
26957W        W45811  16.488   5.293   2.086 -0.0055  0.0691 -0.1258
26958W        W45812  10.475  10.607   1.660  0.0744 -0.1343  0.0220
26959W        W45813   5.326  13.996   5.047  0.0916  0.2358  0.5534
26960W        W45814  10.429   8.573   0.179 -0.0382  0.3603  0.0323
26961W        W45815  11.388   5.872  14.441 -0.0263  0.2474 -0.0399
26962W        W45816  11.041   3.629  14.987  0.4688 -0.1147 -0.0904
26963W        W45817  16.166  15.869  13.334 -0.0626  0.3865  0.0330
26964W        W45818   9.109  14.006   0.299  0.0969 -0.1240  0.2005
26965W        W45819  12.467   2.488  12.107  0.0003 -0.1577  0.3106
26966W        W45820   9.605   1.866   5.404 -0.0148  0.0990  0.0342
26967W        W45821  10.744   5.615  16.664  0.1472  0.0126  0.3283
26968W        W45822  16.098  11.977   1.288 -0.0623  0.2574  0.2424
26969W        W45823  14.091   5.699   0.027 -0.2560  0.0043  0.1666
26970W        W45824  12.883   1.880  13.806 -0.0147 -0.0008  0.0634
26971W        W45825   4.727  16.979   3.440  0.2195 -0.1228  0.1109
26972W        W45826   1.043   8.355   1.747 -0.2301  0.0154  0.1463
26973W        W45827   6.942   4.994   1.542  0.0689 -0.3857  0.2148
26974W        W45828  14.727   6.169   4.508  0.1543  0.1951 -0.2595
26975W        W45829  10.702  16.896  17.317  0.1510 -0.2221 -0.2576
26976W        W45830  14.511  10.300   1.244 -0.1433 -0.2136  0.1700
26977W        W45831  10.411   8.241  15.719  0.1487  0.0032  0.0908
26978W        W45832   1.303   7.109  16.666  0.1125 -0.0397  0.0033
26979W        W45833  14.575  14.834   2.689 -0.1029 -0.1212 -0.1960
26980W        W45834   9.185   5.217  14.739  0.0241  0.2744  0.2142
26981W        W45835  15.081   5.649  12.573 -0.2277 -0.0449  0.1566
26982W        W45836   7.863   7.406   1.780 -0.3184 -0.0472  0.0618
26983W        W45837   2.256   3.730   3.603 -0.0186  0.1705  0.0016
26984W        W45838  11.878   2.824  15.088  0.1927 -0.3342 -0.2349
26985W        W45839  11.251  13.773   3.906  0.3342  0.2510  0.1092
26986W        W45840  16.219  10.307   4.964  0.2186  0.1363 -0.2159
26987W        W45841  11.888   4.837   1.704 -0.1179 -0.1628 -0.1189
26988W        W45842   8.559  11.863  15.312 -0.0867 -0.1568 -0.0038
26989W        W45843  11.238  16.585  16.432 -0.3239 -0.0946 -0.3054
26990W        W45844  14.579  12.192   2.401 -0.0114 -0.0864  0.0760
26991W        W45845   2.858  12.594  14.683  0.1628 -0.1093  0.0552
26992W        W45846  10.248   1.357  12.990  0.3779 -0.1023  0.1529
26993W        W45847  14.285   7.608   3.513 -0.2187 -0.2800  0.0479
26994W        W45848   5.163  15.295  12.769  0.4825 -0.1467 -0.1888
26995W        W45849   8.382   2.392   4.972 -0.0457  0.0539  0.2844
26996W        W45850   0.499  11.163  13.446  0.0187 -0.0521 -0.0910
26997W        W45851  16.316  11.320  17.195 -0.2358 -0.2097 -0.3069
26998W        W45852   6.299   9.560   5.018  0.1917  0.0182 -0.0036
26999W        W45853  11.473   3.921  14.895 -0.1681  0.0138 -0.1023
27000W        W45854   2.111  15.567  14.937 -0.0297  0.0706  0.3204
27001W        W45855  12.858   6.072  15.351 -0.0192 -0.3816  0.3090
27002W        W45856  12.478  12.333   3.763  0.1249 -0.2448 -0.0224
27003W        W45857   8.526  10.359  14.844 -0.0166  0.1441 -0.2251
27004W        W45858  17.078   0.528  11.519  0.1384 -0.0778 -0.1004
27005W        W45859   7.239   2.422  12.766 -0.0893  0.2203  0.2803
27006W        W45860  13.331   0.421  15.606  0.0237 -0.3539 -0.1631
27007W        W45861   0.907   9.260  17.277  0.2191 -0.1940  0.3509
27008W        W45862   0.548   1.192  12.824  0.1228  0.0202 -0.3359
27009W        W45863  16.102   5.396   1.556 -0.0379  0.0009  0.0055
27010W        W45864  10.830   3.437   3.526 -0.1516  0.1661  0.1643
27011W        W45865  15.327  13.182   2.868  0.2110  0.2222  0.0035
27012W        W45866  10.043   6.951   3.302 -0.0111  0.1391  0.2536
27013W        W45867   5.747   3.378  12.976 -0.0263 -0.2464  0.2670
27014W        W45868   4.825   3.586   0.736  0.2941 -0.0153  0.0518
27015W        W45869   3.201   0.628  15.391  0.1058  0.0617  0.1657
27016W        W45870   7.487   1.688   6.229  0.0277 -0.0362  0.2299
27017W        W45871  10.988   6.031  13.018  0.0302  0.1516  0.1071
27018W        W45872  14.375  16.902   5.359 -0.0397  0.0414 -0.0433
27019W        W45873   7.864   3.003   1.253 -0.1877 -0.1469  0.0069
27020W        W45874  11.942  13.038  17.171 -0.0026 -0.0062  0.1360
27021W        W45875  13.485   2.339  16.017  0.1141  0.1367  0.1794
27022W        W45876  12.780   7.898  15.988 -0.0768  0.4919 -0.3161
27023W        W45877   3.069   4.087   3.087  0.0528  0.1854 -0.1243
27024W        W45878   5.561   3.269   2.944  0.2581 -0.2232 -0.0697
27025W        W45879  16.678   9.765   0.487  0.1982 -0.2863  0.0605
27026W        W45880   3.256  13.707  16.352 -0.2541  0.0403  0.0316
27027W        W45881  12.893   5.646  15.814  0.1471 -0.3233  0.2700
27028W        W45882  15.246   2.542   1.857 -0.1135 -0.0238 -0.0879
27029W        W45883  17.182  13.426   2.165 -0.0220 -0.0113 -0.0525
27030W        W45884   3.393   8.457   4.206 -0.0543  0.1229 -0.0302
27031W        W45885  13.453  15.847  16.132  0.0495  0.3203  0.1338
27032W        W45886  13.935   5.299  14.093  0.1993  0.1483  0.1493
27033W        W45887  15.150  14.955   4.987  0.0784  0.2107  0.0688
27034W        W45888   5.259  13.714  16.759  0.2074  0.0308  0.0176
27035W        W45889  10.116   7.861  16.806  0.1488 -0.1903 -0.1242
27036W        W45890   0.310  12.521   2.036  0.0227 -0.0934  0.0144
27037W        W45891   8.701  13.544  16.927 -0.1859 -0.2439  0.2765
27038W        W45892  16.039  13.847  14.387  0.2552  0.2802 -0.2351
27039W        W45893  13.498   9.346   0.062 -0.5354  0.0639 -0.1433
27040W        W45894  17.151   5.595  13.783  0.3655 -0.1367 -0.1877
27041W        W45895   7.788   8.294   2.334 -0.0008  0.0419 -0.1688
27042W        W45896   3.276   4.690  16.730  0.0624 -0.2731  0.0876
27043W        W45897  11.926   4.072   0.054 -0.1813  0.3831 -0.2411
27044W        W45898   1.557   5.661  14.418  0.0315  0.2228  0.1989
27045W        W45899  10.473   5.620   1.941 -0.2538  0.1126  0.0123
27046W        W45900  12.750  10.575  12.872 -0.0545  0.0139 -0.1302
27047W        W45901  12.657   5.787  14.810  0.1781 -0.1734  0.1946
27048W        W45902   3.074   8.542   3.509 -0.2040  0.1545 -0.1398
27049W        W45903  13.474   2.429  15.218 -0.0762 -0.0608 -0.1179
27050W        W45904  13.621   8.178   0.777  0.2015  0.1371 -0.1300
27051W        W45905  10.892  14.417   0.551 -0.3095 -0.1570  0.2654
27052W        W45906   7.969  13.856  15.279 -0.0293 -0.0217 -0.1070
27053W        W45907  11.000   4.022   3.663  0.2399  0.0915  0.0078
27054W        W45908  13.218   4.283  14.076 -0.0226 -0.0284  0.1046
27055W        W45909  12.872  10.081  12.919  0.2667  0.2486 -0.1185
27056W        W45910  15.677   7.886  12.535  0.3713  0.1679  0.1260
27057W        W45911  13.845  10.255   0.233 -0.2257 -0.1526 -0.1223
27058W        W45912  13.591  16.311  12.452 -0.0384 -0.0804  0.2400
27059W        W45913  10.928   3.021   0.393 -0.1540  0.0740 -0.2753
27060W        W45914  10.908  14.862  14.987  0.0436 -0.0237 -0.1529
27061W        W45915   2.218   5.672   3.356 -0.0984  0.0085  0.0373
27062W        W45916   5.473  11.945  16.010  0.1727 -0.0475 -0.0464
27063W        W45917  15.015   9.218  16.293  0.0793  0.1531  0.1113
27064W        W45918  16.311  16.963  12.658 -0.0493  0.0117 -0.1299
27065W        W45919  11.655  10.235  14.177 -0.2975  0.1060  0.1076
27066W        W45920   3.538  17.264  16.865 -0.1313 -0.1998  0.0907
27067W        W45921   7.505  10.453  14.452 -0.4078  0.0119  0.2922
27068W        W45922  15.531   3.655  13.457 -0.2405 -0.1939 -0.3100
27069W        W45923  16.591  16.806   3.792  0.2121 -0.0525 -0.1026
27070W        W45924  17.085   8.326   2.815 -0.2878  0.0868 -0.0150
27071W        W45925   0.799  12.992   0.050  0.1974  0.0224 -0.1549
27072W        W45926   2.740   4.775   1.083 -0.1339 -0.0203 -0.4413
27073W        W45927  15.287   3.235   2.488  0.1185 -0.0782 -0.0249
27074W        W45928   0.724  11.670   2.492  0.0870  0.1661 -0.0326
27075W        W45929  16.018   6.529  13.922  0.2564 -0.0514 -0.3557
27076W        W45930   3.734  16.010   3.863 -0.2741  0.0343  0.0048
27077W        W45931   4.309  15.402   0.906 -0.0450 -0.2924 -0.0919
27078W        W45932   2.127  15.049  16.153  0.4293 -0.3565  0.0123
27079W        W45933   4.630  15.134  12.599 -0.0348  0.1171 -0.2592
27080W        W45934   5.677  15.931  16.445 -0.1544 -0.2326  0.0525
27081W        W45935   8.277   0.104   4.303  0.0180 -0.4084  0.1117
27082W        W45936  14.097  11.946   2.411  0.1977  0.0639  0.0757
27083W        W45937  16.301  14.495   1.470 -0.0493 -0.2511  0.1792
27084W        W45938  13.250   8.370   0.435 -0.0018  0.1622  0.1109
27085W        W45939  13.219   5.200   0.462 -0.2031 -0.2000  0.0572
27086W        W45940   9.196  17.357  12.917  0.3652 -0.2534  0.1899
27087W        W45941   6.962   3.994  16.240 -0.0802 -0.1356  0.1514
27088W        W45942   1.488  12.659   0.589 -0.1684  0.0260 -0.0387
27089W        W45943   4.767  15.286   2.442 -0.0933  0.1422 -0.0685
27090W        W45944   8.760  15.925   3.560 -0.0287  0.0297  0.1864
27091W        W45945   3.464  12.147  14.998 -0.1470  0.2276 -0.2528
27092W        W45946  11.518  12.218   4.369  0.0762 -0.1354  0.4180
27093W        W45947  14.285  10.213   3.639  0.0273  0.0697 -0.0985
27094W        W45948   9.844   4.929   0.537 -0.0060  0.0650 -0.1089
27095W        W45949   9.214   0.024   4.650  0.2498 -0.1281  0.1731
27096W        W45950   6.344  16.234  15.922 -0.1240 -0.1094 -0.1604
27097W        W45951  10.859   7.767   1.972 -0.0965 -0.0647 -0.4040
27098W        W45952   2.569  11.727  16.162  0.1185  0.1744 -0.1435
27099W        W45953   7.918   2.682   4.959 -0.0400  0.0070 -0.0608
27100W        W45954  15.092   5.175  13.177  0.0160 -0.1432  0.1906
27101W        W45955  16.099  13.643   1.383  0.1274  0.0558  0.1765
27102W        W45956   4.985   9.298   4.632  0.3127 -0.2326 -0.2823
27103W        W45957  13.327   2.121   1.204  0.1216  0.1839 -0.1131
27104W        W45958   3.152  10.841  15.303  0.1441  0.2133  0.1135
27105W        W45959  11.457   9.328   2.843 -0.1537  0.0957  0.1712
27106W        W45960   5.887  12.200  13.615  0.0036 -0.1468 -0.0607
27107W        W45961   1.066  14.137  16.663 -0.2324  0.1585 -0.6311
27108W        W45962  17.145  14.555  12.641  0.4098 -0.2057  0.0160
27109W        W45963  14.000   6.953   2.094  0.0844  0.3860 -0.0215
27110W        W45964   0.125  10.395   0.142 -0.1992  0.2407 -0.0854
27111W        W45965   8.898  14.508   2.424 -0.0324 -0.0648 -0.3535
27112W        W45966   5.953  12.233  16.160 -0.2473  0.1393  0.0179
27113W        W45967   6.163   9.881   2.405  0.0945 -0.1447 -0.0454
27114W        W45968   1.049   6.186   1.985 -0.0927 -0.2605  0.0719
27115W        W45969   8.282   5.870   2.491 -0.0502 -0.3751 -0.0498
27116W        W45970   3.454   2.396   2.913  0.0955  0.0661  0.0147
27117W        W45971  12.623   8.278  14.546  0.0082 -0.0086  0.1065
27118W        W45972   6.361  11.943  12.733  0.0645  0.3083 -0.0316
27119W        W45973  15.085   2.909  16.314 -0.0866  0.0715  0.0997
27120W        W45974  15.168   7.735  12.492 -0.0264 -0.1646  0.2421
27121W        W45975   8.497   1.899   1.781 -0.1096 -0.1392  0.1157
27122W        W45976   1.552   6.264  13.196  0.2403 -0.1657 -0.2568
27123W        W45977   5.907   7.393   4.023  0.0197 -0.2295  0.0037
27124W        W45978  10.231   1.944  11.927 -0.1193 -0.1248  0.1566
27125W        W45979  13.978   8.756  17.404  0.3572 -0.0427  0.3920
27126W        W45980   7.051   5.540  13.138  0.3761 -0.2828  0.1255
27127W        W45981  15.410  12.139   4.523  0.0837  0.0463  0.0225
27128W        W45982   1.449   0.616  13.690 -0.1830  0.0019 -0.0330
27129W        W45983  11.572   9.478  12.479  0.0512  0.0528 -0.0889
27130W        W45984  13.091  13.124  16.418  0.1902 -0.2741  0.0825
27131W        W45985   6.146   5.874   1.030  0.0143 -0.2305  0.5055
27132W        W45986  17.200   6.406   4.229  0.3829 -0.1697  0.0359
27133W        W45987   4.266   7.936  12.931 -0.1473  0.1618 -0.0165
27134W        W45988   1.683   7.277  15.698 -0.0162 -0.1151 -0.0471
27135W        W45989   7.057  10.685   2.491 -0.0288  0.0376  0.1520
27136W        W45990   2.978   1.465   2.143  0.0626  0.1701  0.2444
27137W        W45991   6.241   3.953  16.891  0.2475 -0.2444 -0.0587
27138W        W45992   2.226   9.180  15.127 -0.0798  0.2271  0.0945
27139W        W45993  16.053   4.318  11.910  0.2867 -0.0920  0.2846
27140W        W45994   8.444   8.007   5.600  0.2292  0.1530  0.0592
27141W        W45995   8.084   8.891   1.244 -0.0788 -0.2123 -0.1851
27142W        W45996  10.831  16.804  14.495 -0.1288  0.1898 -0.0516
27143W        W45997  11.461  13.927   0.040  0.3017  0.0945 -0.0814
27144W        W45998   4.556   5.168   1.362  0.2982  0.0873  0.1855
27145W        W45999   3.767   1.405  12.521  0.1493 -0.1595 -0.2181
27146W        W46000  14.354   6.815  12.353 -0.1865  0.0131  0.0696
27147W        W46001  15.823   4.583  17.030  0.1218  0.1334  0.3561
27148W        W46002  14.051  14.919   1.298 -0.1110  0.0334 -0.1044
27149W        W46003   8.849   0.173   3.479  0.4883 -0.2088 -0.0191
27150W        W46004   5.109   7.124   2.519 -0.2423  0.0397  0.0954
27151W        W46005   8.494  12.879   2.579  0.2086 -0.0419  0.0509
27152W        W46006   4.692   4.696   3.342  0.1371  0.2765  0.0345
27153W        W46007   3.745   0.841  13.126  0.0829 -0.0282  0.2790
27154W        W46008  14.129  12.633   2.865 -0.2470  0.0386  0.1710
27155W        W46009   7.807  10.387  16.852  0.1572  0.0273 -0.0079
27156W        W46010   8.465  12.737  16.545  0.0459 -0.1463  0.1891
27157W        W46011   8.431   0.884  12.319 -0.3268 -0.0428  0.2794
27158W        W46012   9.872   3.750   6.260 -0.0351 -0.1892 -0.1916
27159W        W46013   8.437  10.207   4.173  0.0385  0.3148  0.0008
27160W        W46014  16.880   3.533   2.269  0.3240 -0.1740  0.2388
27161W        W46015  16.846   4.696   1.046  0.1912 -0.2512  0.3246
27162W        W46016   6.092  15.832  16.114  0.2174 -0.2302  0.2348
27163W        W46017   8.974   1.654   2.123 -0.2494 -0.0897 -0.0049
27164W        W46018   6.749  13.579   3.527  0.1093 -0.2697  0.1921
27165W        W46019  14.533   5.686  15.028  0.0280 -0.1763 -0.1906
27166W        W46020   0.569   8.517  12.848 -0.2471  0.1944 -0.0181
27167W        W46021   9.935   7.270   4.392  0.0189 -0.0966 -0.0279
27168W        W46022   1.792  16.617  15.764 -0.0227 -0.1053 -0.0602
27169W        W46023  11.571   0.867   0.727  0.2167  0.0610 -0.2038
27170W        W46024   7.920   7.186   1.307  0.0843 -0.1249 -0.0304
27171W        W46025   0.724  12.283   4.215  0.0498  0.0460  0.0840
27172W        W46026   0.455   3.029   3.634  0.1965  0.2688 -0.1954
27173W        W46027  11.508   9.583   0.177 -0.2655  0.0480 -0.1158
27174W        W46028  10.168  15.413  13.930  0.1375  0.1265 -0.1543
27175W        W46029   6.456  10.876   2.135  0.2619 -0.0128  0.4498
27176W        W46030  14.942   0.501   2.674 -0.0912 -0.1811 -0.0153
27177W        W46031  10.118   1.931   0.930 -0.0876 -0.1304  0.1110
27178W        W46032   6.197   1.537  13.999 -0.0331 -0.1375 -0.0003
27179W        W46033   4.887   7.999  16.922 -0.1792 -0.1545  0.1499
27180W        W46034  15.424   8.499  14.696 -0.4058 -0.1334  0.4395
27181W        W46035  10.511  15.982   4.675  0.3719 -0.0480  0.1450
27182W        W46036  14.372   1.764   1.475  0.0822  0.2328  0.0813
27183W        W46037  14.373  17.259  15.076 -0.0485 -0.1673 -0.3166
27184W        W46038  11.756  16.723   1.209 -0.1795 -0.1890 -0.1729
27185W        W46039   4.036   1.551   3.021  0.2209 -0.0667  0.1768
27186W        W46040  13.803  11.872   1.994 -0.0379 -0.2405 -0.1144
27187W        W46041   7.872   2.115  15.235  0.1433  0.0501  0.4200
27188W        W46042   0.815   6.281  14.367 -0.2696 -0.0965  0.2009
27189W        W46043   8.628   8.001   2.910  0.4340  0.1564 -0.1862
27190W        W46044  10.445   8.872   4.149  0.2593 -0.1150  0.0225
27191W        W46045   2.316   7.855  15.059  0.0536 -0.3021  0.1652
27192W        W46046  15.788  11.184   1.363 -0.0813  0.0340  0.1254
27193W        W46047  12.926   7.576   2.065  0.0720  0.0488 -0.2491
27194W        W46048  16.939   7.737  12.263 -0.1238 -0.0864  0.3495
27195W        W46049  11.515   6.916   3.415  0.4506 -0.0650 -0.2421
27196W        W46050   0.941   4.758  16.123  0.0451  0.0371  0.0969
27197W        W46051   7.650  15.146   3.914  0.3979 -0.0817  0.1589
27198W        W46052  12.931   8.551  16.153  0.0579  0.1718 -0.1997
27199W        W46053   1.070   9.928   3.834 -0.1040 -0.0554 -0.0643
27200W        W46054  11.858   0.666   5.090 -0.1642  0.0643 -0.2114
27201W        W46055   7.512   7.464  14.015  0.0267  0.0908 -0.1674
27202W        W46056  14.801  14.459   3.600 -0.0484  0.1287 -0.0597
27203W        W46057  12.237  15.246  14.871 -0.0775 -0.0115 -0.1579
27204W        W46058  15.730   2.293  13.737  0.1203 -0.0286 -0.2075
27205W        W46059   9.730   2.935  12.733 -0.1203 -0.3951  0.0261
27206W        W46060   8.823   6.108  15.711  0.0415  0.0350 -0.3162
27207W        W46061   0.632   0.234  14.498 -0.1751  0.1450  0.0380
27208W        W46062   7.176  11.716   1.546 -0.0864  0.3067 -0.1415
27209W        W46063   3.625   3.431   0.112  0.2383 -0.1382  0.0531
27210W        W46064   5.326   0.230  17.158 -0.0921 -0.0156  0.0587
27211W        W46065   7.961  13.871  13.857 -0.3111  0.4488  0.1456
27212W        W46066   7.645  13.727   4.299 -0.4753 -0.1122 -0.0065
27213W        W46067  10.220  13.461  12.800 -0.0411  0.2387  0.0196
27214W        W46068  11.180  13.629  14.643 -0.0022  0.0307 -0.1734
27215W        W46069   8.678   2.828  14.095  0.1422 -0.1334 -0.0026
27216W        W46070  10.630  11.690   2.553 -0.0400 -0.2332  0.2159
27217W        W46071   3.681  14.001  16.429  0.0053  0.0245  0.0685
27218W        W46072   9.809   1.207  15.580 -0.2625  0.2766 -0.1729
27219W        W46073  16.925  12.959  15.604 -0.2190  0.1308 -0.2536
27220W        W46074   3.663   5.328   3.334  0.1019 -0.1413  0.0603
27221W        W46075  15.420   6.806  15.657  0.2647  0.3028 -0.1231
27222W        W46076  15.251   5.423  14.514 -0.0378  0.0692  0.0495
27223W        W46077   4.527  17.098   5.026  0.0535 -0.3831  0.0884
27224W        W46078  16.677   5.850  16.855  0.0988  0.4608 -0.0107
27225W        W46079  16.815   3.576  12.748 -0.0733  0.2353 -0.0538
27226W        W46080   1.818   2.102  15.655 -0.0846 -0.1883  0.4490
27227W        W46081  12.502  17.367   0.447  0.1937  0.2293 -0.0504
27228W        W46082   1.977  11.515   5.239  0.1476  0.6052  0.1694
27229W        W46083   1.328   7.072   1.798 -0.1066 -0.2644  0.3068
27230W        W46084   0.712   2.549  16.868 -0.1592 -0.3032  0.0526
27231W        W46085  12.650   0.125  14.630 -0.0635  0.3141  0.0052
27232W        W46086  16.554  15.546   3.895  0.0008  0.3920 -0.1135
27233W        W46087   4.387  15.271   4.714  0.0837 -0.0665  0.0090
27234W        W46088   8.465   1.541   2.183  0.0349  0.0676  0.0415
27235W        W46089   7.130  11.668  13.827  0.0582  0.2996 -0.1052
27236W        W46090   1.266   2.457  16.322 -0.1362 -0.2038 -0.1677
27237W        W46091  15.476  16.444   3.229 -0.2224  0.2721  0.1403
27238W        W46092  12.994   7.933  14.335  0.1750  0.1731 -0.2612
27239W        W46093  16.613   3.688  12.232  0.1902  0.0367 -0.1134
27240W        W46094   8.663   8.321   4.528 -0.1326  0.0215  0.2016
27241W        W46095  17.065  15.658  14.566  0.0113 -0.2735  0.3904
27242W        W46096  17.043  14.382  13.092 -0.1298  0.1844 -0.1044
27243W        W46097   8.865   2.482  16.506 -0.1641 -0.3972  0.0056
27244W        W46098   0.212   0.635  17.335 -0.1774 -0.0990  0.1208
27245W        W46099  14.570  16.293  14.161  0.0671 -0.1159 -0.0287
27246W        W46100   8.164   9.644   3.358 -0.1414  0.2722  0.0733
27247W        W46101  17.123  13.019  14.568  0.2090  0.0141 -0.2212
27248W        W46102  13.103  11.302   2.127  0.1926  0.0270  0.1920
27249W        W46103   1.631   3.349   3.897 -0.2844  0.0685  0.0858
27250W        W46104   7.791   0.963   3.160  0.1327  0.1717  0.0406
27251W        W46105   1.101   4.138  12.592 -0.1675 -0.2453  0.1204
27252W        W46106   2.821   2.826   2.659 -0.3826 -0.2121 -0.2417
27253W        W46107  11.218   6.679  12.248 -0.1612 -0.1688 -0.2865
27254W        W46108   5.793  12.672  13.531  0.0727  0.2728 -0.0737
27255W        W46109  11.034  16.087  15.118  0.0939  0.5160  0.0876
27256W        W46110   9.311  10.219   2.922  0.1601  0.0069 -0.1419
27257W        W46111   5.376   2.843   0.221 -0.0069  0.0758 -0.0829
27258W        W46112   6.033  14.049  12.935 -0.1811 -0.1638 -0.0614
27259W        W46113  15.009  14.135  17.151  0.0932  0.2288 -0.1005
27260W        W46114   3.591   9.735   2.619  0.0455  0.1330 -0.3032
27261W        W46115   5.750   4.027  16.484 -0.0520  0.2797  0.1805
27262W        W46116  10.619  13.797  15.999  0.2576 -0.0074  0.1088
27263W        W46117  16.620   8.062  12.470 -0.0311 -0.0543 -0.2128
27264W        W46118   9.885   0.518   2.405 -0.2403  0.2026 -0.0937
27265W        W46119   8.353   9.006  14.399 -0.0933 -0.1480 -0.0312
27266W        W46120   5.615   2.528   2.425  0.1751 -0.0276  0.1317
27267W        W46121  11.808  10.262   1.233 -0.1181  0.1985  0.1630
27268W        W46122   6.975   2.723  13.497  0.0044  0.0942 -0.3018
27269W        W46123   4.361   2.564   3.740 -0.0379  0.0002 -0.1617
27270W        W46124   9.329   5.021   0.703  0.0940 -0.0196 -0.1049
27271W        W46125   9.023  15.722   0.992 -0.3111 -0.2075 -0.0886
27272W        W46126   9.492   4.072   2.282  0.0704 -0.2057 -0.0173
27273W        W46127   8.065   4.953   3.463 -0.0161  0.0689 -0.1435
27274W        W46128   5.007  11.460   0.290 -0.1000  0.0592  0.1392
27275W        W46129   7.870  11.116  16.714 -0.2165  0.0268  0.2026
27276W        W46130   2.210   6.246   2.754  0.0545  0.0170  0.0042
27277W        W46131  11.803   4.016   0.564 -0.1426 -0.1206  0.0776
27278W        W46132   5.216  12.741   2.607 -0.1222  0.3145 -0.0872
27279W        W46133   2.671   1.416  15.188  0.2893  0.2640  0.1717
27280W        W46134   2.155   8.140   0.297 -0.0429  0.0145  0.0506
27281W        W46135   1.491  16.804   0.322 -0.6173  0.0760  0.0820
27282W        W46136   6.981  12.256  17.111 -0.0246  0.0208 -0.1035
27283W        W46137   7.106   9.595  16.235  0.0151  0.2145 -0.0608
27284W        W46138   1.507   2.561  12.457 -0.4671  0.1976  0.4269
27285W        W46139   9.943   0.816  15.276 -0.0142  0.1457 -0.2637
27286W        W46140   5.334  10.830  12.645 -0.0280  0.6530 -0.2474
27287W        W46141   0.383   2.717   1.968 -0.1630  0.1039 -0.0017
27288W        W46142   1.904  14.178  14.450  0.1243  0.0588 -0.0781
27289W        W46143  13.478  15.436   0.701 -0.0149  0.2929 -0.1775
27290W        W46144   6.026  14.572  16.065 -0.0686  0.1129 -0.1526
27291W        W46145   9.483   0.640  14.931  0.1310  0.0445 -0.0392
27292W        W46146   8.588  14.658  15.891 -0.0978  0.3235  0.4518
27293W        W46147   3.729   1.216  16.581 -0.0733  0.1413 -0.1872
27294W        W46148  11.976   6.449  14.388 -0.0786 -0.2113  0.1727
27295W        W46149  12.166  17.339  12.334  0.1259  0.1524  0.0065
27296W        W46150   3.232   6.282   2.425 -0.0919  0.1018 -0.3904
27297W        W46151   2.186   2.030   5.086 -0.2615  0.2818 -0.3171
27298W        W46152  17.126  14.611   2.243 -0.1458 -0.0173  0.1870
27299W        W46153   6.073   4.124   3.261  0.0224  0.0198 -0.1934
27300W        W46154   3.298  11.850   4.837  0.0355 -0.0132  0.0747
27301W        W46155  13.397   0.302   0.749 -0.2787  0.0964  0.0381
27302W        W46156   5.788   6.452   2.245 -0.1052  0.1303 -0.0308
27303W        W46157   7.373  14.290  12.648 -0.1851  0.0937  0.1799
27304W        W46158  10.807   0.211  16.608 -0.0799 -0.2085 -0.4569
27305W        W46159   0.243   3.054  16.878 -0.0669 -0.2197  0.1392
27306W        W46160  12.556   9.859   0.372  0.2310  0.2640 -0.0740
27307W        W46161   6.532  12.207   2.916  0.2240  0.1439 -0.0519
27308W        W46162  15.700  12.512  14.248  0.1511 -0.0049 -0.0228
27309W        W46163   1.441  11.489  14.460 -0.1883 -0.1060 -0.0707
27310W        W46164  12.711   6.831  13.298 -0.0517  0.1355 -0.1008
27311W        W46165   8.660   4.127   0.739  0.2557 -0.1360  0.0449
27312W        W46166   9.149   7.495  15.811 -0.0175 -0.0544  0.4115
27313W        W46167  11.770  16.626  17.234  0.2734  0.1572  0.0939
27314W        W46168  14.129   8.458   3.208 -0.0326 -0.0684  0.1967
27315W        W46169   4.025   8.246   0.907 -0.0259  0.1862  0.0570
27316W        W46170  16.413  12.437  12.984 -0.0784  0.3182  0.0776
27317W        W46171   2.284   6.756   2.748 -0.2737  0.1498 -0.0941
27318W        W46172  17.237  11.529  14.627  0.0945  0.2159 -0.2951
27319W        W46173   2.770  17.403  15.875  0.0413 -0.2339 -0.0815
27320W        W46174   9.538  16.997  17.415 -0.1868 -0.0180 -0.2331
27321W        W46175  12.141  15.580   4.526  0.3735  0.1290  0.1105
27322W        W46176  15.166   2.650   0.677 -0.0416  0.2538  0.0374
27323W        W46177  10.065  10.594  14.383 -0.1584  0.3289  0.3092
27324W        W46178   0.132   1.065   0.193 -0.0147  0.0786  0.1270
27325W        W46179   2.497   2.417   2.826  0.0050 -0.0208  0.0873
27326W        W46180   9.527   6.076   4.875 -0.0143  0.1048 -0.2025
27327W        W46181   7.017   1.813  13.401 -0.3304 -0.3672  0.1275
27328W        W46182   3.437   9.203   2.500  0.2529  0.0042 -0.0394
27329W        W46183  14.396  17.020  16.431  0.2940  0.0435  0.1138
27330W        W46184   1.268   6.728   4.618 -0.4116 -0.1914  0.1427
27331W        W46185   1.939  11.276  15.106 -0.0487  0.3359  0.0918
27332W        W46186   0.957  15.538  14.133  0.0267  0.0224  0.0759
27333W        W46187   1.745  16.972   4.059  0.0990  0.0317 -0.1436
27334W        W46188  13.247   2.856  15.318  0.0961 -0.0098  0.2211
27335W        W46189   6.162   4.137  15.104 -0.0288  0.0308 -0.3666
27336W        W46190  12.411   0.452   2.885  0.2746  0.4152  0.1029
27337W        W46191   9.297   3.385  16.670  0.2470  0.1038  0.0890
27338W        W46192   8.031  14.095   2.855  0.0598 -0.0626 -0.0770
27339W        W46193   1.629   7.265   5.607  0.5463 -0.0659  0.0513
27340W        W46194  17.279   0.085   1.157  0.1363  0.0977 -0.0835
27341W        W46195  12.440   1.588  14.490 -0.0992  0.0596 -0.0157
27342W        W46196   5.639   8.783   1.727  0.0041  0.2886 -0.2456
27343W        W46197   0.286   0.450   1.279  0.1134  0.3372 -0.0582
27344W        W46198  15.066   6.462   4.249  0.0677  0.1107  0.2236
27345W        W46199   1.000  12.270  16.901  0.1343  0.1794 -0.2833
27346W        W46200  17.015  14.093   4.880 -0.0301  0.2339  0.1158
27347W        W46201   6.225   7.323  13.488  0.1438  0.1886  0.0846
27348W        W46202   8.461   3.151  15.926 -0.1009 -0.1057 -0.1140
27349W        W46203  14.297   2.442  16.762  0.1774  0.1951  0.4521
27350W        W46204   6.207  15.831  13.165 -0.2529  0.1296  0.0577
27351W        W46205  10.089  11.318   4.740  0.0895 -0.0639  0.1661
27352W        W46206  10.614   7.354   0.270  0.0375 -0.1437 -0.0161
27353W        W46207  12.469  10.663   1.785  0.0570 -0.1567  0.1196
27354W        W46208   5.659  14.727   3.085 -0.1674 -0.0092  0.1695
27355W        W46209   2.396  13.104   0.260  0.3182  0.2493  0.0255
27356W        W46210   2.514  15.551   0.208  0.0676 -0.3065 -0.0247
27357W        W46211  12.471   1.721   1.097  0.2279  0.1584 -0.2041
27358W        W46212   6.140   9.146   4.254  0.1232 -0.0695 -0.6929
27359W        W46213  12.974   7.704   1.158  0.1729 -0.1413  0.2035
27360W        W46214  10.115   5.313  13.926  0.0520  0.2639  0.0549
27361W        W46215  10.194  10.885   2.073  0.1068 -0.2459 -0.0128
27362W        W46216  14.946   2.205  13.419  0.0128  0.2754 -0.1773
27363W        W46217  17.061  13.913   1.415  0.1277  0.0783 -0.1377
27364W        W46218   7.051   9.046  15.133  0.1534  0.0677 -0.1407
27365W        W46219  10.657   3.742   4.535  0.0508 -0.0125 -0.3023
27366W        W46220   9.710   4.542   3.668 -0.0466  0.2131  0.0206
27367W        W46221   9.485   2.095  13.378  0.0585  0.1492 -0.0891
27368W        W46222  12.345   6.764   0.717  0.2310  0.0432  0.0666
27369W        W46223  17.343  15.878  17.015 -0.3799 -0.3417  0.0092
27370W        W46224  11.728  13.495   1.871  0.0885  0.1893  0.1604
27371W        W46225  16.552  10.072  12.793  0.2489  0.1005  0.0418
27372W        W46226   3.574   7.862  16.376 -0.0046  0.1669 -0.3617
27373W        W46227   4.423   4.017  16.346  0.3325 -0.3410  0.0128
27374W        W46228   5.994  11.414   4.227  0.0738  0.1397 -0.0185
27375W        W46229  11.976   5.656  15.877  0.2803 -0.0753  0.0328
27376W        W46230   4.399   8.500  15.262  0.0765 -0.0217 -0.1718
27377W        W46231  13.220  12.469   0.369  0.1908  0.2003  0.2226
27378W        W46232  17.200   3.778  17.312  0.0689 -0.1340 -0.2979
27379W        W46233  14.878   6.696  13.572 -0.2336 -0.0558  0.0350
27380W        W46234   0.658   5.642   3.419  0.2906 -0.1621 -0.3264
27381W        W46235   4.070   6.056   4.723 -0.3338 -0.0866  0.1097
27382W        W46236   6.538   6.529   3.019 -0.0413 -0.0587  0.1074
27383W        W46237  13.543  11.304  12.188  0.1050 -0.0426 -0.0503
27384W        W46238  14.322   2.218  13.932  0.1909 -0.4050 -0.1610
27385W        W46239   2.581   7.548  14.148 -0.1921  0.3436  0.1814
27386W        W46240  13.891  15.163   4.225 -0.0471 -0.3903  0.0567
27387W        W46241  10.055   1.901  12.442  0.4579 -0.1893  0.2109
27388W        W46242  14.672  16.213   2.249  0.0705  0.1190  0.2772
27389W        W46243  14.935   7.761   2.426 -0.2052 -0.0445  0.2364
27390W        W46244  15.393   4.124   4.186  0.2505  0.1001 -0.6600
27391W        W46245   9.587  13.762  14.044  0.1958  0.0977  0.4773
27392W        W46246   4.589   4.779  15.495  0.1335  0.1517  0.2577
27393W        W46247  16.617  14.560  17.400  0.2656 -0.1159  0.2051
27394W        W46248   2.165  14.354  16.737 -0.2197  0.0727  0.2453
27395W        W46249  10.502   4.616  16.928  0.2198 -0.0906 -0.2824
27396W        W46250   2.375   9.300   3.691 -0.2282  0.1469  0.0790
27397W        W46251   9.275  13.453   4.633 -0.1255  0.0033  0.1616
27398W        W46252   3.934   0.360   1.653 -0.2166 -0.0933 -0.2037
27399W        W46253   5.482   2.116  13.175 -0.0506 -0.2150  0.0653
27400W        W46254   5.446   7.256   3.804  0.2351  0.1723 -0.3626
27401W        W46255   1.048   3.764  14.087 -0.5056  0.0950  0.0153
27402W        W46256  16.807  15.183   4.177 -0.0773  0.1629 -0.1055
27403W        W46257  15.418  12.761  14.830 -0.0445 -0.0274  0.3961
27404W        W46258   9.070  13.149   1.912  0.1331  0.0209  0.0192
27405W        W46259  14.719   0.527   3.153  0.1740 -0.2403  0.3864
27406W        W46260   5.988   9.463  13.398  0.2610  0.1585 -0.1555
27407W        W46261  14.477  12.296  15.674  0.3338  0.2361 -0.4907
27408W        W46262   8.620  15.986   0.129 -0.0034 -0.0136 -0.0998
27409W        W46263   3.318   5.363  15.895 -0.2849 -0.1947  0.2517
27410W        W46264   5.713  11.635  17.428 -0.0185  0.0678 -0.1204
27411W        W46265  16.835   9.014   4.308 -0.1030  0.1587  0.0071
27412W        W46266   2.137   3.968   0.632  0.3002 -0.1076  0.0314
27413W        W46267  11.878   7.686   1.875 -0.3926  0.2773 -0.3581
27414W        W46268   3.042   7.006  13.436  0.0619 -0.2276  0.0007
27415W        W46269  11.308   3.913   0.816  0.1854  0.0099 -0.2026
27416W        W46270  15.305   2.205  16.984 -0.1169 -0.0469  0.0966
27417W        W46271  10.566  13.103  15.435  0.1651  0.0809 -0.0505
27418W        W46272   6.709   3.689  16.623 -0.1322 -0.0923 -0.0609
27419W        W46273   9.716  11.028  15.025 -0.2744 -0.0832 -0.1467
27420W        W46274  10.123   4.360  16.813  0.1960  0.0309 -0.1846
27421W        W46275   5.325   8.255  13.236 -0.0095 -0.0500  0.3547
27422W        W46276   2.327  11.909  13.570 -0.0865  0.2778 -0.2773
27423W        W46277   6.725   8.838  16.486 -0.1962  0.0204  0.2402
27424W        W46278  15.566   0.507   0.043  0.0014 -0.3377  0.1504
27425W        W46279   2.682  13.646  13.479 -0.2330 -0.1199 -0.0642
27426W        W46280  14.116   2.278  12.611  0.1137  0.0804 -0.0715
27427W        W46281  13.597   9.698  12.832  0.0610  0.1536 -0.1266
27428W        W46282  15.699  16.514  17.142 -0.2388 -0.0269  0.0177
27429W        W46283  16.074   2.547  16.993 -0.0842 -0.1266 -0.3429
27430W        W46284  16.077   7.304  17.119 -0.2241 -0.3488 -0.2357
27431W        W46285  15.375  12.954   2.064 -0.2150  0.3790 -0.0920
27432W        W46286  11.074  15.223   0.969 -0.2448  0.0354 -0.0471
27433W        W46287   2.795   6.018  16.200  0.0339 -0.1399 -0.1761
27434W        W46288  14.905   3.576  13.023  0.0207 -0.2540  0.0123
27435W        W46289   3.955   0.142  14.237 -0.0032  0.0025  0.4030
27436W        W46290   1.443   1.809   0.202 -0.1438 -0.2643 -0.0015
27437W        W46291   2.195   0.842   4.508  0.0358  0.0681  0.1235
27438W        W46292   6.008  13.022   3.875  0.0901 -0.0044  0.0473
27439W        W46293  15.725   6.703  13.003  0.0089  0.0102 -0.2224
27440W        W46294  14.746  10.432   0.011 -0.4811 -0.0960  0.0142
27441W        W46295  11.179   7.897   2.868  0.3430  0.2616  0.0892
27442W        W46296   6.091   3.413   3.674  0.0840  0.1158 -0.0539
27443W        W46297  16.510  15.165   3.137 -0.2311 -0.1798  0.1539
27444W        W46298   7.266   8.547  12.647 -0.1418 -0.0647 -0.0902
27445W        W46299   2.420   3.079  12.396  0.2184 -0.4590 -0.2424
27446W        W46300  14.507   6.690  16.003 -0.0310 -0.1416  0.1470
27447W        W46301   6.938  12.701   2.535 -0.2016 -0.0843  0.1782
27448W        W46302   7.019   5.561  16.099 -0.2169 -0.1576  0.1365
27449W        W46303   1.658   3.510   0.691  0.0859 -0.1615 -0.0971
27450W        W46304   5.769  17.191  13.742  0.0084  0.0656  0.2115
27451W        W46305   3.424  13.179  13.998  0.3843 -0.0727 -0.2535
27452W        W46306   7.947   8.995   6.466 -0.2236 -0.1006  0.1016
27453W        W46307   5.117   9.972   1.578 -0.2185 -0.2767  0.1999
27454W        W46308   5.195   4.095   3.575 -0.0940 -0.1560 -0.0476
27455W        W46309   0.616   7.361  15.049  0.2268  0.1225  0.2859
27456W        W46310   2.541   7.014   3.487  0.1019  0.1186 -0.0304
27457W        W46311  16.261   9.651  15.201  0.2538  0.1044  0.1592
27458W        W46312   9.774  13.856   3.837  0.1255  0.0735 -0.0480
27459W        W46313  14.440   8.371   2.395  0.1790  0.2308 -0.2147
27460W        W46314  12.737   6.572   2.514 -0.0758 -0.3297 -0.0692
27461W        W46315  11.016  12.537   2.639  0.1793 -0.3103 -0.0807
27462W        W46316   5.871   6.342  16.680 -0.3003  0.3024  0.1033
27463W        W46317   6.399   9.090  15.039  0.3358 -0.0225  0.2335
27464W        W46318   1.881  16.876   3.264  0.1445 -0.0251  0.1503
27465W        W46319   4.899  16.888   2.078 -0.2347 -0.0781  0.1685
27466W        W46320   5.570   0.499  15.819  0.0893  0.2422 -0.2979
27467W        W46321  12.098  11.136  16.106 -0.1690 -0.3214  0.1280
27468W        W46322   5.016   8.723   2.875 -0.1319  0.0087  0.3012
27469W        W46323  14.989   6.631   0.338 -0.0381 -0.2414  0.3541
27470W        W46324  11.459  15.429  15.643  0.3207  0.2384 -0.2129
27471W        W46325   5.812  15.577  13.394  0.3091  0.0051 -0.0199
27472W        W46326   8.170   2.044   2.158 -0.2170 -0.0730 -0.2493
27473W        W46327  11.810  16.334   4.209  0.1195  0.0489 -0.0525
27474W        W46328   2.865   1.229   0.395 -0.1104 -0.1128 -0.4034
27475W        W46329  11.422   4.020  15.522 -0.3368  0.1973  0.0734
27476W        W46330  14.853   2.549  15.409 -0.1068  0.0645 -0.0798
27477W        W46331   3.729  15.116   4.350 -0.0272  0.0607 -0.0434
27478W        W46332   9.257  16.021   4.131  0.1422  0.4174 -0.0892
27479W        W46333   9.793   7.475   3.030  0.0060 -0.2589  0.1673
27480W        W46334   2.397   5.836  15.606  0.2310  0.0782  0.0033
27481W        W46335   0.515   8.120   2.264 -0.2127  0.1377 -0.0559
27482W        W46336   7.572   0.853  14.650  0.1935 -0.1445 -0.4608
27483W        W46337  11.221  10.779   4.301 -0.1699  0.0911  0.0658
27484W        W46338   3.030   3.481  13.112 -0.4498 -0.3758 -0.1042
27485W        W46339   5.107   2.313   0.431  0.0324  0.0953  0.2635
27486W        W46340   3.051  12.196   3.719  0.0333 -0.0407 -0.2592
27487W        W46341  13.060  16.779  16.156 -0.2680  0.0026 -0.0314
27488W        W46342  11.971   4.255   3.869  0.0859 -0.0351 -0.2559
27489W        W46343  12.804  16.437   1.421 -0.2803  0.2859  0.2765
27490W        W46344   7.709   2.817   0.431 -0.0674 -0.0332  0.2113
27491W        W46345   5.755   5.742   1.589 -0.4841 -0.1339  0.1039
27492W        W46346  15.696  10.127  12.602  0.1596  0.1620  0.0411
27493W        W46347   2.375  11.302  13.626 -0.1153  0.1822  0.1171
27494W        W46348  12.119  14.179  12.975  0.1750  0.4879  0.0715
27495W        W46349   8.583   3.141   1.494 -0.2719 -0.0384 -0.0209
27496W        W46350  16.924  13.810  13.188 -0.0097  0.1869 -0.0597
27497W        W46351  15.487  10.611  15.781  0.0969 -0.0024 -0.0833
27498W        W46352   0.802   2.953  15.658  0.0917  0.0037 -0.0159
27499W        W46353   0.527   2.149  11.407  0.2752 -0.3665 -0.1909
27500W        W46354   5.736   4.827  12.086 -0.0237 -0.4072 -0.2444
27501W        W46355  13.216   5.837  14.058  0.0939  0.0461  0.0552
27502W        W46356   7.236   6.598  15.060  0.0292  0.2584  0.4253
27503W        W46357   6.992   1.525  12.600 -0.2067 -0.0438 -0.0959
27504W        W46358   9.787   8.996  15.977 -0.0571 -0.0623 -0.3915
27505W        W46359  11.306  13.806   4.900 -0.2427  0.0459 -0.3133
27506W        W46360  14.644  16.161   4.704 -0.0261  0.0248 -0.1064
27507W        W46361   5.686   3.117  13.441 -0.2408 -0.0348  0.1346
27508W        W46362   0.387   0.607   5.134 -0.1925 -0.0619 -0.0876
27509W        W46363   8.853  14.629  15.456  0.0616 -0.0595  0.0442
27510W        W46364  12.055  12.024  13.458  0.5087 -0.0813  0.0211
27511W        W46365   8.931   1.552  11.923  0.1014 -0.1891 -0.1579
27512W        W46366  15.757  16.415   0.487  0.1823  0.0700 -0.0128
27513W        W46367  15.300   4.924  17.404 -0.1064 -0.1102 -0.0540
27514W        W46368   2.037   8.093  14.720  0.0998 -0.0047  0.0485
27515W        W46369   8.845  17.034  15.532 -0.0971  0.1031 -0.2312
27516W        W46370  10.779   6.628   1.014 -0.0152 -0.1594 -0.0058
27517W        W46371  13.716  15.789   1.031  0.0402 -0.0270 -0.0042
27518W        W46372   2.582   6.451  16.008  0.1586 -0.3002  0.2006
27519W        W46373  13.035   9.089   2.328 -0.0063  0.3179  0.0643
27520W        W46374   3.117   7.478   4.343 -0.2625 -0.1491  0.2562
27521W        W46375   8.250  11.753  12.798 -0.0349 -0.1772  0.4077
27522W        W46376  11.622  17.284   3.192  0.1318 -0.2020 -0.0969
27523W        W46377  13.849   7.910  16.018  0.1205 -0.1135 -0.3325
27524W        W46378  14.153  16.190  13.753  0.3303  0.1984  0.0956
27525W        W46379   2.367   1.307   0.552  0.1027 -0.0623  0.0236
27526W        W46380   3.908   5.315   2.888  0.2289  0.1627 -0.1114
27527W        W46381  14.931  17.071  14.577 -0.0814 -0.3858  0.0718
27528W        W46382   5.239   4.225  16.107  0.0075  0.1483 -0.0047
27529W        W46383  12.939   0.605  15.387  0.1059  0.1876  0.1704
27530W        W46384  15.641   2.960   2.784 -0.2883 -0.0138  0.0328
27531W        W46385   1.219   3.255   0.667  0.0596 -0.2678  0.1365
27532W        W46386  15.233  14.008   2.792  0.0551  0.0696  0.3221
27533W        W46387   7.576  15.123  16.836  0.1540 -0.0739 -0.0626
27534W        W46388   4.536   3.457  17.300  0.1253 -0.3398  0.2247
27535W        W46389  11.187  17.287  12.668 -0.0361 -0.0140 -0.2076
27536W        W46390   9.632  13.483  15.313 -0.2138  0.3597 -0.3396
27537W        W46391  13.777  12.082  11.413 -0.0700 -0.0436 -0.1658
27538W        W46392   5.093  15.198   0.008  0.1481  0.1214  0.4294
27539W        W46393   5.617   5.840  12.753  0.0429  0.2406 -0.1031
27540W        W46394   0.712   4.438  15.495 -0.0915  0.2307  0.0380
27541W        W46395   0.337   8.456   0.577 -0.0597 -0.0436  0.1925
27542W        W46396  16.768  10.321   2.806 -0.0537  0.0368  0.0650
27543W        W46397   9.358   8.406   3.478 -0.0683 -0.0050 -0.0855
27544W        W46398  13.539   9.717  17.114 -0.0589 -0.0781 -0.0835
27545W        W46399  15.690  11.875   2.919  0.1509 -0.2000  0.1357
27546W        W46400  10.121  17.348  14.577 -0.1337  0.0045 -0.1186
27547W        W46401   8.016   9.797  16.196  0.3661  0.0065  0.1861
27548W        W46402  15.685   0.048  14.129 -0.2545  0.2322 -0.1711
27549W        W46403   7.286  12.134  16.105 -0.0219 -0.1364 -0.1517
27550W        W46404   5.188   5.049  14.928  0.0134 -0.1829 -0.0644
27551W        W46405   5.449   9.678   1.146  0.1949  0.1636  0.1572
27552W        W46406  12.573   4.053   3.164  0.3064 -0.1343  0.2288
27553W        W46407  12.356  16.668   1.531 -0.2240 -0.0184  0.3456
27554W        W46408   4.925   8.940  17.108  0.0246 -0.0184 -0.1191
27555W        W46409   9.517  10.744  14.283 -0.2732  0.0446 -0.0518
27556W        W46410   4.552   3.839   0.229  0.1461  0.1640 -0.0050
27557W        W46411   2.698   0.939   4.260  0.4467 -0.1672  0.1518
27558W        W46412  15.209   8.236  15.118  0.0233 -0.1171  0.0056
27559W        W46413  10.909   0.883   1.922 -0.1871  0.0172  0.1774
27560W        W46414  16.238  16.385  14.458 -0.3925  0.2638 -0.2499
27561W        W46415   4.599  11.906  15.119 -0.0846  0.3202 -0.0655
27562W        W46416  12.821   2.054  13.233 -0.3742  0.3075  0.2122
27563W        W46417  10.784   5.102  12.761  0.1384 -0.0922  0.1236
27564W        W46418  16.025  12.420   1.497 -0.2467 -0.0659 -0.2302
27565W        W46419  11.909   9.529  12.899 -0.0610 -0.0921  0.0593
27566W        W46420  16.222  16.081   2.299  0.2863 -0.0006 -0.0331
27567W        W46421  13.177   8.208   3.003 -0.0285  0.1172 -0.3073
27568W        W46422  15.546   5.370   0.113 -0.0718  0.0225  0.2036
27569W        W46423   4.116   6.673   2.428  0.1755  0.0245  0.1369
27570W        W46424  14.769   5.688   0.918  0.2403  0.1656 -0.0119
27571W        W46425   3.638   1.674   5.080  0.0147  0.4107  0.0597
27572W        W46426  12.030   2.488  16.976  0.2088  0.0801 -0.2762
27573W        W46427  11.730  14.935   0.480  0.1119  0.0785  0.1769
27574W        W46428   4.710  12.088  12.004  0.1827 -0.0322 -0.1462
27575W        W46429   8.710  15.634  14.438 -0.1796  0.0070 -0.3842
27576W        W46430   2.155   6.782  14.317  0.1418 -0.0504 -0.1813
27577W        W46431  12.685   0.548  16.846 -0.0323  0.1906 -0.4162
27578W        W46432  12.307  12.891   5.069  0.0921  0.1686  0.0672
27579W        W46433  14.229   8.767  12.158 -0.3639  0.1212  0.0254
27580W        W46434   5.418   8.097  16.161  0.1626 -0.2142  0.0696
27581W        W46435  14.481   4.117  16.497 -0.0076 -0.0325 -0.3276
27582W        W46436   9.984  16.444  15.075  0.0242  0.0023 -0.0147
27583W        W46437   0.871   9.957  13.497 -0.3502 -0.0900  0.0259
27584W        W46438  16.107  13.364   3.034  0.0193 -0.5744 -0.0545
27585W        W46439  12.144   7.376  15.434 -0.0299 -0.1063  0.0135
27586W        W46440  14.555   8.355   2.929  0.0436  0.1686 -0.1740
27587W        W46441  12.770   4.562  13.874 -0.1108  0.0532 -0.2253
27588W        W46442   7.784   7.556   5.512 -0.1252  0.3371  0.0028
27589W        W46443   7.366   3.827  17.362  0.0277 -0.1616  0.0991
27590W        W46444   7.509  17.094   3.212  0.1940 -0.4752 -0.0593
27591W        W46445   6.856   0.883  12.887  0.1735  0.1695  0.1502
27592W        W46446  17.287   1.851  17.261  0.1512  0.0510  0.0959
27593W        W46447   8.720  14.004  12.838  0.2723 -0.3197 -0.0069
27594W        W46448  10.206  11.393   0.394  0.0371  0.1086 -0.1093
27595W        W46449   7.803   0.293   1.972  0.0323 -0.3337  0.2928
27596W        W46450  14.591  15.951  13.760 -0.2157  0.0543  0.2505
27597W        W46451   9.519   3.728  15.237 -0.0623 -0.0240 -0.0753
27598W        W46452   9.986   5.070   1.399 -0.0445  0.2211 -0.2561
27599W        W46453   6.022  15.668  13.849 -0.1481 -0.0955  0.4159
27600W        W46454  15.918  15.657   1.989  0.3672  0.1932 -0.3695
27601W        W46455   0.111   3.228  12.538  0.1125  0.0657  0.0718
27602W        W46456   8.524   0.115   1.909  0.2787  0.1576  0.0816
27603W        W46457   8.404   6.969   1.202  0.3827 -0.0165  0.1364
27604W        W46458   4.473  12.515  12.981 -0.1620 -0.0354 -0.1920
27605W        W46459   5.170   1.995   4.894  0.1936 -0.0413  0.0296
27606W        W46460   0.968   8.099  13.406  0.1784  0.3182  0.1212
27607W        W46461  10.662   4.956  15.573  0.0832 -0.3108  0.0120
27608W        W46462  17.236  14.624  17.306  0.1376 -0.2290  0.0766
27609W        W46463   0.626  14.282   2.358  0.0738  0.2020 -0.0373
27610W        W46464   8.356   7.147  14.291 -0.0147 -0.0173 -0.0848
27611W        W46465   4.223   9.175   5.126 -0.0002  0.1937  0.2264
27612W        W46466   1.337   0.811  14.286 -0.1055  0.0948  0.0450
27613W        W46467  15.634   6.747   0.779 -0.0440  0.4053  0.0455
27614W        W46468  11.221   2.501   2.551 -0.0955 -0.0374 -0.1904
27615W        W46469  16.978  14.038  15.014 -0.0669 -0.0352 -0.3004
27616W        W46470   7.208  11.404  14.618  0.2736 -0.2202 -0.1617
27617W        W46471   4.734  15.395  14.547  0.0225 -0.0173  0.1530
27618W        W46472   8.732   8.828  12.431  0.0592 -0.1845 -0.0740
27619W        W46473  13.400  16.910   1.004  0.1154  0.3327 -0.0571
27620W        W46474   6.696   7.681  12.506  0.4347 -0.0409 -0.4431
27621W        W46475  10.441   2.139  13.628 -0.2580 -0.0881  0.0366
27622W        W46476   6.031  10.007  16.545 -0.1533  0.3732 -0.0316
27623W        W46477   0.478  12.450  14.925 -0.0489  0.4147  0.0546
27624W        W46478  10.703   0.892  14.295 -0.0496 -0.0625 -0.2183
27625W        W46479   4.589   1.253  11.997  0.0408  0.0309 -0.2307
27626W        W46480   2.530  17.022  15.628  0.0629  0.0787  0.1844
27627W        W46481  13.266   3.360  15.284 -0.0707 -0.1502 -0.0618
27628W        W46482   0.407   5.372  15.450 -0.0456 -0.1381  0.2113
27629W        W46483   2.863  12.579   3.079 -0.0971 -0.1862  0.1688
27630W        W46484  12.482   1.504  16.906 -0.0898  0.0618 -0.0354
27631W        W46485   6.311   6.916  15.792 -0.1003 -0.1533  0.1522
27632W        W46486  12.660  16.129  13.973 -0.0373  0.0803 -0.4360
27633W        W46487  12.033  11.788  16.028 -0.1509 -0.0697  0.0119
27634W        W46488   4.948  11.859   2.537 -0.2876  0.0110 -0.0817
27635W        W46489  14.129   0.564   1.949 -0.0570 -0.1031 -0.0066
27636W        W46490  13.648  11.126  14.911 -0.0329  0.1145 -0.1435
27637W        W46491   6.125   2.113  13.090 -0.0491  0.0830  0.3193
27638W        W46492  16.852   6.239   4.545 -0.1115 -0.1061  0.1246
27639W        W46493   1.152  12.114   3.985  0.0728 -0.0128 -0.0891
27640W        W46494  13.550  16.279   4.540  0.4144 -0.1198 -0.1961
27641W        W46495   5.320  16.885  16.398 -0.0576 -0.0582 -0.1457
27642W        W46496   8.895  16.027  13.619 -0.2705 -0.1269  0.0766
27643W        W46497  11.932   5.472  15.436  0.2728  0.3498 -0.0990
27644W        W46498  13.022   5.876   0.681 -0.1219  0.1917  0.2115
27645W        W46499   3.862   4.283  16.059  0.2275 -0.1710 -0.0093
27646W        W46500   3.656  12.685  15.643  0.2809  0.0410  0.0539
27647W        W46501  13.519   8.883  17.103 -0.0876  0.2323  0.1879
27648W        W46502  17.100   1.488  13.903 -0.1648 -0.0734  0.0353
27649W        W46503  11.026   1.487   0.762  0.2489 -0.1579  0.1552
27650W        W46504   4.086   0.403   2.251 -0.1619 -0.0271 -0.1586
27651W        W46505   8.151  10.496  16.517 -0.0515 -0.1196  0.2691
27652W        W46506   8.844  10.450   4.322  0.1012 -0.0232 -0.1485
27653W        W46507   4.000   2.350   1.925 -0.0631 -0.0687 -0.0337
27654W        W46508  14.541  10.900  17.459  0.2808  0.0338 -0.2406
27655W        W46509  11.526  14.408   1.454 -0.1277  0.0983 -0.1291
27656W        W46510   5.091   8.300   4.220  0.2745 -0.0640 -0.0745
27657W        W46511   6.199   6.494   0.955 -0.0787 -0.1283 -0.0254
27658W        W46512  10.981  13.676  12.369  0.3680 -0.0293  0.2103
27659W        W46513  13.199   1.961  15.502  0.0847 -0.4669 -0.1552
27660W        W46514  14.033  14.939   0.501  0.0083  0.1796  0.1741
27661W        W46515   4.555   8.318   0.353  0.2867  0.1461 -0.0263
27662W        W46516   5.196  14.510   1.305  0.0578 -0.1636  0.1763
27663W        W46517   4.150   6.491  17.228 -0.2006  0.0399  0.0649
27664W        W46518  15.699  10.760   2.029 -0.0094  0.2788 -0.0166
27665W        W46519  10.756   2.190  12.729  0.1539 -0.2884 -0.1934
27666W        W46520   2.516  14.705  16.372  0.1412  0.1201 -0.2653
27667W        W46521   0.604   7.731   0.933 -0.1516 -0.2402  0.0051
27668W        W46522   4.076   1.675  15.234  0.1806 -0.2604  0.0867
27669W        W46523   8.024   7.356  12.918  0.2150 -0.0942 -0.1437
27670W        W46524  11.877   7.298  14.267 -0.2269 -0.0045  0.0698
27671W        W46525  10.231   2.937   5.447  0.0845  0.1822 -0.0204
27672W        W46526  14.665   3.554   1.300 -0.3179  0.0278  0.1810
27673W        W46527   4.671  13.141  14.411 -0.1810  0.0499 -0.1452
27674W        W46528   9.642   0.182  15.143 -0.1343 -0.1144 -0.0075
27675W        W46529  12.290   3.606   1.094  0.3503 -0.0076  0.2494
27676W        W46530  12.594  14.304  12.943  0.0032  0.4061  0.0573
27677W        W46531  12.138  11.313   3.630  0.0330  0.2050 -0.0772
27678W        W46532   8.173   0.297  13.065 -0.3687 -0.1839  0.2825
27679W        W46533   5.336   7.109  14.710  0.1043 -0.1451 -0.0723
27680W        W46534  10.618  14.849   3.627  0.0639  0.0865  0.1104
27681W        W46535  17.192   1.371   5.374 -0.0996 -0.3067 -0.1828
27682W        W46536  12.271   4.746  13.755  0.0080 -0.0999  0.4682
27683W        W46537   6.597   7.361  13.024 -0.1648  0.0534  0.0436
27684W        W46538   1.117   2.179   0.399  0.1464 -0.0711 -0.1491
27685W        W46539  12.269   2.407   4.098 -0.0199  0.2750  0.0247
27686W        W46540   0.859   4.962  12.427  0.0664  0.0525  0.0113
27687W        W46541  11.478   6.598  15.871 -0.2410  0.4327 -0.3852
27688W        W46542  14.005   8.603  12.585  0.3325 -0.0126 -0.1952
27689W        W46543   6.824   3.098  15.861  0.0519  0.2118 -0.3458
27690W        W46544   3.849  16.648   3.648 -0.2973 -0.1980  0.0758
27691W        W46545   5.896   5.962  13.625  0.1224 -0.0370  0.0855
27692W        W46546  15.008  14.473   5.430  0.2609 -0.1201  0.2059
27693W        W46547   3.518   3.250   3.187 -0.1356 -0.2012  0.1257
27694W        W46548   1.068   4.350  14.189  0.0855  0.0312  0.1783
27695W        W46549   1.348   5.078   5.042  0.0341 -0.0328  0.0845
27696W        W46550   0.011  13.926   1.098  0.1286 -0.0823  0.0232
27697W        W46551   0.513  15.708  12.842  0.1906  0.2181  0.0374
27698W        W46552  17.271  11.277  15.079 -0.2022  0.0358 -0.1005
27699W        W46553   7.979  11.222   1.992 -0.0766 -0.3878  0.2791
27700W        W46554  17.385   5.264   4.392  0.3017 -0.0421  0.2593
27701W        W46555   2.475   3.523   3.076 -0.3124 -0.2720 -0.1637
27702W        W46556   3.204  16.343   5.018 -0.0038  0.1119  0.0859
27703W        W46557  13.129  12.588  15.167 -0.2373 -0.1792 -0.2789
27704W        W46558  14.704  11.872  15.899  0.0086  0.1989  0.0265
27705W        W46559  11.096  10.922  16.441 -0.1703 -0.0127 -0.1507
27706W        W46560  15.221  17.267   5.600  0.1017  0.1494  0.1769
27707W        W46561   0.661   5.509  14.906 -0.0237  0.1103 -0.0073
27708W        W46562   2.890   8.878   3.873  0.0128  0.0102  0.0679
27709W        W46563   9.581  13.220   1.193 -0.0098  0.2816  0.0940
27710W        W46564  16.482   6.698  11.625  0.0863 -0.1395  0.0611
27711W        W46565  11.618  13.754   4.539  0.2982 -0.0185  0.1279
27712W        W46566   3.391   8.199   4.665  0.2546  0.0048  0.1155
27713W        W46567  15.934  12.906  12.339 -0.1629 -0.0251 -0.0875
27714W        W46568  11.587  16.395   2.329 -0.1971  0.0106 -0.3751
27715W        W46569  14.689   5.596  14.501  0.0580  0.0600 -0.2067
27716W        W46570  12.789  11.854   1.984  0.1939  0.2863 -0.0736
27717W        W46571   5.112   5.765  12.941  0.1478 -0.0972  0.0722
27718W        W46572   2.339  14.457   1.551 -0.2246 -0.2544 -0.2510
27719W        W46573   6.979  10.192   5.186  0.0038  0.2867  0.0386
27720W        W46574   4.386   6.938   4.675  0.3268 -0.3990 -0.2524
27721W        W46575   8.490  11.519   3.647 -0.1553 -0.0207  0.0737
27722W        W46576   7.523   9.387   4.860 -0.1541  0.0958 -0.0293
27723W        W46577   5.385  14.358  14.087 -0.0827 -0.3944  0.1446
27724W        W46578  13.565   5.010  13.826 -0.2574  0.1444 -0.3147
27725W        W46579  11.073   5.088  16.500 -0.4429  0.1759 -0.0904
27726W        W46580   8.707   7.861   5.159 -0.3162 -0.0423 -0.2489
27727W        W46581   2.215  14.514  12.498 -0.1267  0.2573  0.1457
27728W        W46582   0.734  14.625   2.722 -0.0402  0.0739  0.2278
27729W        W46583  13.196   8.776   2.775 -0.1380  0.0852  0.0892
27730W        W46584   4.421  14.252   0.666 -0.1369 -0.2159  0.0713
27731W        W46585   9.275   6.228  14.837  0.0653  0.0248 -0.3400
27732W        W46586   0.284   6.132  16.084 -0.0555  0.3914  0.0305
27733W        W46587  14.222  10.468  16.353 -0.8266 -0.0799  0.0404
27734W        W46588  11.794   5.539  16.833 -0.0644 -0.0444 -0.0352
27735W        W46589  11.816  10.768  17.240  0.1550 -0.2108 -0.1678
27736W        W46590   3.274  14.575  12.954  0.0774 -0.1352  0.1203
27737W        W46591  16.424   2.178  12.759  0.0213  0.1005  0.0105
27738W        W46592   6.347   6.629  16.781 -0.2267 -0.3069 -0.1133
27739W        W46593  11.862   7.883  14.453 -0.3317  0.1601 -0.1720
27740W        W46594  13.954  15.923  12.364 -0.1431 -0.2642 -0.2433
27741W        W46595  10.497   2.597  16.690  0.0147  0.0370  0.1001
27742W        W46596  11.367  15.311   0.345 -0.0364  0.4621 -0.1167
27743W        W46597   3.236   6.729   4.694  0.0670 -0.0729 -0.0755
27744W        W46598  17.317  13.653   5.688 -0.1369 -0.3920  0.1637
27745W        W46599   0.794   2.778  16.127 -0.2255 -0.0360 -0.1899
27746W        W46600   2.199  17.294  15.322 -0.0240  0.0319 -0.0428
27747W        W46601   7.495  12.685  16.810  0.1574  0.2292  0.2417
27748W        W46602   7.229   2.307  13.346 -0.2318 -0.1033 -0.4255
27749W        W46603   9.116   1.381   0.613 -0.0004 -0.0104  0.0917
27750W        W46604   7.271  10.578   2.028 -0.2606  0.2082  0.0907
27751W        W46605   8.051   2.974   2.243  0.0370 -0.2338  0.1621
27752W        W46606   3.463  15.757   1.875 -0.3183 -0.1323 -0.3447
27753W        W46607  16.264   5.265   3.193 -0.2009 -0.3248  0.2286
27754W        W46608  10.890   8.870   2.329  0.0667 -0.2462 -0.0804
27755W        W46609   1.425   4.038  14.991  0.0382 -0.1092 -0.0304
27756W        W46610   0.131   9.572  14.453  0.0471 -0.0101 -0.1477
27757W        W46611  15.835  11.565  16.502  0.1896  0.0545  0.0834
27758W        W46612  13.970   7.220  12.323 -0.1384 -0.0785  0.1802
27759W        W46613  15.659   3.299  13.862 -0.1893 -0.3680 -0.3361
27760W        W46614  11.260  12.623  14.258 -0.2237 -0.0301  0.0892
27761W        W46615   1.702  10.186  15.788  0.0238  0.2580  0.1151
27762W        W46616  15.910  17.085   1.254  0.2093  0.1511  0.0056
27763W        W46617   6.550   3.745  13.023 -0.0487  0.1519  0.0407
27764W        W46618   0.130  11.090   5.501 -0.0107 -0.3854  0.1174
27765W        W46619  12.102   5.619  16.407  0.2055 -0.0640  0.4811
27766W        W46620   2.955   8.633   2.618  0.0253  0.0660  0.1871
27767W        W46621  15.614   4.337   4.705 -0.1240 -0.0127 -0.0809
27768W        W46622  11.897  13.558  15.122  0.0196  0.0051  0.4218
27769W        W46623   1.399  10.777  15.041 -0.0101  0.2106  0.2652
27770W        W46624   6.220   7.185  12.714 -0.1506  0.1151  0.2801
27771W        W46625   5.986   3.506   5.379  0.0386  0.0298 -0.0411
27772W        W46626   7.613   1.581   4.259  0.0473  0.1154 -0.0705
27773W        W46627   6.051   1.557   5.096  0.0065  0.0012 -0.0927
27774W        W46628  11.334  12.497   1.248  0.0181  0.1384 -0.1623
27775W        W46629   3.362   2.893  15.892 -0.1657  0.0224  0.0551
27776W        W46630   1.636  10.408  15.295  0.0512  0.2199 -0.1440
27777W        W46631   8.761   9.108  14.141 -0.1367  0.2419  0.3393
27778W        W46632  15.545   8.854   3.940  0.0644 -0.1168 -0.5773
27779W        W46633   7.478  12.756  14.832 -0.2333  0.0604 -0.3017
27780W        W46634   1.867   8.558   0.263 -0.0087 -0.3034  0.5048
27781W        W46635  16.098   5.940   5.162  0.1875  0.0354  0.1232
27782W        W46636  17.127  10.623  17.433  0.1792 -0.0287 -0.1855
27783W        W46637  16.254   7.448   0.236 -0.0547 -0.0486  0.1426
27784W        W46638  12.657   6.677   3.463 -0.4873 -0.0443  0.0663
27785W        W46639  16.149  17.315   0.408 -0.0419  0.2869 -0.1288
27786W        W46640   4.608  10.896  16.593  0.2936  0.0354  0.2454
27787W        W46641   9.675   1.299   1.742 -0.0787  0.1983  0.0205
27788W        W46642  13.370   3.408  12.844 -0.0066 -0.2126 -0.1790
27789W        W46643  10.675  14.016   3.279  0.0392 -0.5682 -0.0120
27790W        W46644   0.681  11.719  12.671  0.0134 -0.0447  0.3082
27791W        W46645  14.022   4.206  15.077  0.0187  0.2806  0.1183
27792W        W46646   4.120   3.253   3.817 -0.0768  0.0432 -0.1834
27793W        W46647   8.449   6.035   3.038 -0.0532 -0.1560 -0.1260
27794W        W46648   0.526  14.413  17.420  0.0415  0.0807  0.1139
27795W        W46649   8.979  16.248   4.649  0.0409  0.0754  0.1915
27796W        W46650  11.773  10.393   0.439  0.0506  0.0244 -0.4474
27797W        W46651  13.044   5.172   4.982 -0.1267 -0.2839 -0.1603
27798W        W46652  15.867  10.559   3.042  0.1093 -0.0592  0.2597
27799W        W46653  14.201   2.605  14.295 -0.1412 -0.0972  0.0704
27800W        W46654   5.668  16.188   2.116 -0.2598  0.1077 -0.1547
27801W        W46655   7.127  16.340  12.309  0.1431 -0.0694  0.0446
27802W        W46656   1.264  16.528   5.283 -0.0049 -0.0454  0.0613
27803W        W46657   9.409  13.466   3.762  0.0399 -0.1191 -0.0595
27804W        W46658   8.259   0.777  16.809  0.1258  0.2582 -0.2117
27805W        W46659  14.321   3.965   4.973 -0.1216 -0.1375  0.1579
27806W        W46660   9.246  11.449  12.553  0.0027  0.1140  0.0488
27807W        W46661  16.839  12.189   2.412  0.0071  0.2232  0.0628
27808W        W46662  16.143   9.502  16.720 -0.0540 -0.1010  0.1133
27809W        W46663   1.266  11.330  14.035 -0.4658 -0.1192  0.2837
27810W        W46664   0.398   9.171   1.967  0.2351 -0.1401 -0.0296
27811W        W46665   7.220  15.946   5.338  0.2223 -0.2286 -0.0503
27812W        W46666   5.789  14.122   0.729  0.0663  0.1047 -0.5098
27813W        W46667  13.566  11.428   1.817 -0.2669  0.0479  0.1648
27814W        W46668  15.346  10.279  16.827 -0.0567  0.0413 -0.1618
27815W        W46669  10.963   4.313   0.874 -0.0479 -0.0342 -0.1697
27816W        W46670   8.150   2.794  13.061 -0.0872 -0.1300 -0.1250
27817W        W46671  16.412  17.250   2.964 -0.4247 -0.2170  0.3358
27818W        W46672   2.584   6.888  14.712  0.1512  0.2656 -0.1481
27819W        W46673   2.021   9.818   3.680  0.0468  0.0934 -0.1304
27820W        W46674  16.878  16.117   0.747 -0.0406 -0.1452  0.1020
27821W        W46675   6.472   7.658   5.375  0.0692 -0.0288 -0.0143
27822W        W46676  10.348  12.554  15.603 -0.2010  0.2123  0.0095
27823W        W46677  14.389   5.782   4.780  0.0271 -0.1293 -0.0009
27824W        W46678   0.036   3.042   4.830 -0.3601 -0.0392  0.0124
27825W        W46679  12.298  11.057  13.620 -0.2380  0.0464 -0.1420
27826W        W46680  10.581  14.146   1.555 -0.0249 -0.0152 -0.1509
27827W        W46681   8.004  12.528   4.665  0.4893 -0.0612  0.0022
27828W        W46682   2.075   1.144   1.501  0.1813 -0.0818 -0.1088
27829W        W46683  12.255  11.937  16.626 -0.0986 -0.0723 -0.0415
27830W        W46684  13.966  13.642   3.739  0.1867  0.0565  0.2475
27831W        W46685   2.356  15.556  12.460 -0.2618 -0.0625  0.0306
27832W        W46686   5.271  10.506  13.381 -0.2072 -0.1101 -0.1279
27833W        W46687  14.810  12.091   4.120  0.3325 -0.1397  0.1738
27834W        W46688   6.338   0.153  12.394  0.0380 -0.0533  0.0541
27835W        W46689   3.690   3.551   0.604 -0.0076 -0.0542  0.2044
27836W        W46690   6.290  13.925   4.142 -0.3898 -0.1021  0.2045
27837W        W46691  17.374   7.832   4.689  0.0717  0.1310  0.1337
27838W        W46692  12.653  15.914  15.853 -0.1396 -0.4003  0.1076
27839W        W46693   2.518   2.665  14.397 -0.0766 -0.0410 -0.0507
27840W        W46694   5.499   8.106  15.607  0.3270 -0.3213 -0.2196
27841W        W46695  14.024  11.519   0.975 -0.3418  0.0270 -0.0250
27842W        W46696   8.699  12.783  13.400 -0.3166  0.0180  0.2221
27843W        W46697  11.601   9.741   0.657  0.1471 -0.0293 -0.2564
27844W        W46698  12.997  14.544   0.812 -0.0955  0.0918  0.4183
27845W        W46699  13.756   0.960   3.236 -0.1329  0.0817 -0.7303
27846W        W46700  15.150  11.619   5.604  0.2031 -0.0250 -0.1433
27847W        W46701  10.266  12.431   6.150  0.1212  0.3402 -0.0402
27848W        W46702  13.518   9.656  16.592 -0.0318 -0.0602 -0.3710
27849W        W46703  14.590  11.516   1.946  0.0998 -0.0430  0.4130
27850W        W46704  15.277   2.774   4.093 -0.2980 -0.1824 -0.0005
27851W        W46705   3.215   1.449   1.312  0.0849  0.4094  0.1393
27852W        W46706   9.760   0.396   0.432 -0.0870 -0.0619 -0.1208
27853W        W46707  15.383   2.392   0.186 -0.1059  0.3759  0.0654
27854W        W46708   7.081   0.188   1.297  0.1760  0.1175 -0.1428
27855W        W46709   7.335   6.415   0.814 -0.1412  0.1783  0.0308
27856W        W46710  13.269   0.062  13.922  0.0200  0.0927 -0.1926
27857W        W46711  13.550   1.227  16.992  0.1092  0.0593  0.0940
27858W        W46712  15.138   1.310   0.785  0.0804 -0.0381 -0.0677
27859W        W46713  16.417   8.626  16.114  0.2479 -0.0540 -0.0456
27860W        W46714  15.091  16.565   2.933 -0.1347 -0.0888  0.1230
27861W        W46715   3.384   1.914   1.429  0.0039  0.0388  0.2095
27862W        W46716   0.859   9.561   2.175 -0.4906  0.2113  0.0461
27863W        W46717   2.039   3.871   3.041 -0.1585  0.1176  0.0897
27864W        W46718   4.434  15.169   1.439  0.3413 -0.0182  0.0709
27865W        W46719   7.426  10.282   3.758 -0.0631  0.2612 -0.1650
27866W        W46720   3.440   5.379  12.619  0.2927  0.0485 -0.1906
27867W        W46721  10.770   0.646  14.895  0.3801 -0.1259  0.1290
27868W        W46722   1.791   8.476   5.008 -0.2322  0.1381 -0.0400
27869W        W46723  13.087   7.634   5.007 -0.0816 -0.0232 -0.4235
27870W        W46724  11.720  15.131  12.897 -0.2119 -0.2313 -0.0992
27871W        W46725   7.482   7.513   1.412 -0.0438  0.1253 -0.3076
27872W        W46726   5.587  13.640   4.807  0.0039  0.0021 -0.2567
27873W        W46727   9.917   1.936   4.049  0.2745 -0.0245 -0.2946
27874W        W46728  15.668  15.053  15.117 -0.3559 -0.0251 -0.0067
27875W        W46729   8.346   9.265   1.464 -0.0145 -0.3377  0.0730
27876W        W46730   6.913  10.187  15.768  0.3439  0.0864  0.1027
27877W        W46731   7.298  13.075   2.649 -0.0190  0.1198 -0.2146
27878W        W46732   9.709   5.739  13.551 -0.0225  0.1097  0.0302
27879W        W46733   3.291  15.830   4.184 -0.0861 -0.0398 -0.0578
27880W        W46734   6.175  13.887   2.182  0.1476 -0.0263 -0.1766
27881W        W46735   5.612   6.891  17.431 -0.1624  0.1875  0.1032
27882W        W46736   1.931  13.912  12.984  0.3020 -0.0938  0.0324
27883W        W46737  13.062  12.316   4.643  0.0969  0.3209 -0.1067
27884W        W46738   0.192  10.357  12.536 -0.2897 -0.3268 -0.3630
27885W        W46739   2.198   5.056  12.512  0.0324 -0.2623  0.3619
27886W        W46740   7.775  13.592  14.223 -0.2701 -0.1099  0.1637
27887W        W46741   7.067  14.083  15.307  0.1323  0.0033  0.2947
27888W        W46742   1.508   7.327  17.047 -0.1208  0.1230  0.1097
27889W        W46743  14.119  12.637  17.322 -0.1681 -0.0897 -0.0532
27890W        W46744  15.094   7.755  15.004  0.0519  0.3544 -0.1507
27891W        W46745   5.623   3.507  12.346 -0.3139 -0.2975  0.3069
27892W        W46746  13.442   0.039   3.102  0.2581  0.2928  0.0441
27893W        W46747   3.566   4.303   0.225  0.0878 -0.0660  0.0013
27894W        W46748   1.499  14.134  14.784  0.2057  0.0917  0.1284
27895W        W46749   5.609  12.047   2.707  0.2062 -0.2471 -0.1322
27896W        W46750   0.656   2.387   0.658 -0.0323 -0.2859  0.0873
27897W        W46751  16.006   4.621   2.878 -0.1288 -0.1694  0.0778
27898W        W46752  13.600  13.619   3.444  0.0350  0.0933 -0.2804
27899W        W46753  12.817   2.103   4.120 -0.1686 -0.0395 -0.2383
27900W        W46754   1.612   0.172   4.326  0.0166 -0.2395 -0.0415
27901W        W46755   5.007   9.130   2.235 -0.0107 -0.1900  0.0241
27902W        W46756  14.966  16.131   1.353  0.0403  0.1195  0.0648
27903W        W46757   0.648   0.569  13.030  0.0069 -0.0093  0.0549
27904W        W46758  12.997  14.828  15.195  0.2017  0.1261  0.1239
27905W        W46759  16.144   0.274   3.742 -0.4360 -0.0530  0.3098
27906W        W46760  10.391  11.102   1.539 -0.1337 -0.4792  0.1202
27907W        W46761  14.897   5.741   0.393 -0.1732 -0.1492 -0.1972
27908W        W46762   7.391   2.412  16.145  0.0587 -0.2723 -0.0992
27909W        W46763   6.029  14.415   1.385  0.0127 -0.0189  0.0933
27910W        W46764   5.684   6.370   0.912 -0.1489  0.1562  0.2095
27911W        W46765   1.525   2.115  17.281 -0.0919 -0.2578 -0.0309
27912W        W46766  13.386   8.992  12.040  0.3305 -0.1306  0.0644
27913W        W46767  15.703   1.667   3.805 -0.0698 -0.0940 -0.0237
27914W        W46768   7.886   9.607  15.598 -0.0257 -0.2925  0.1453
27915W        W46769  14.931  15.891  13.421  0.0269 -0.1685 -0.1508
27916W        W46770  14.205  11.810  13.866  0.2048  0.1086 -0.4244
27917W        W46771   0.086  14.304   3.633  0.0881 -0.0214 -0.0084
27918W        W46772  12.947   1.013  12.970  0.0574  0.1089 -0.2219
27919W        W46773   4.021  10.876   3.982 -0.1601  0.0710  0.3146
27920W        W46774  10.607   8.030  15.257  0.2147  0.0667 -0.0183
27921W        W46775  17.206   4.530   0.697 -0.1913  0.0814 -0.2010
27922W        W46776   4.711  10.476  15.055  0.2908  0.3154 -0.0951
27923W        W46777  11.540   4.507  17.269  0.0892  0.2002 -0.1938
27924W        W46778   8.763   6.761  15.308 -0.1254  0.2000  0.0266
27925W        W46779  14.168   1.658  12.210  0.2563 -0.3499  0.0356
27926W        W46780   8.110   1.466  16.846  0.0660  0.0348 -0.1783
27927W        W46781   1.652   4.471   1.901 -0.2309 -0.0135  0.1651
27928W        W46782  12.541  11.579  12.992  0.1374  0.0558  0.0536
27929W        W46783   0.244   8.384  13.649  0.1045  0.2241 -0.2622
27930W        W46784   5.639   4.620  14.384  0.1086 -0.0913  0.0865
27931W        W46785   0.065   7.056   1.030  0.2570 -0.5141 -0.1963
27932W        W46786   4.677  12.065   1.562 -0.1204 -0.2533  0.0547
27933W        W46787   3.518   8.653   2.711  0.1097  0.3373  0.0100
27934W        W46788   9.260   6.170  15.880  0.1662  0.1042 -0.0308
27935W        W46789  16.373  12.945  14.970  0.1422  0.2148 -0.2841
27936W        W46790   7.971  16.164  11.526  0.0424  0.1242 -0.0782
27937W        W46791  17.399   4.063  16.397  0.1851 -0.0493  0.2475
27938W        W46792   6.622  13.896   0.961 -0.1198 -0.0278  0.0530
27939W        W46793  11.899  13.999  16.670 -0.1428  0.1314  0.3701
27940W        W46794   1.932   0.748  12.571  0.0662  0.0502 -0.0052
27941W        W46795   8.969   2.249  16.947 -0.2314  0.4400  0.0568
27942W        W46796  10.326  16.245  15.932 -0.1595  0.0344  0.1585
27943W        W46797  14.197   7.958  12.656  0.0224  0.0543  0.0148
27944W        W46798  11.390   0.704   5.002  0.0221  0.2485 -0.1998
27945W        W46799   6.351   8.090  15.491  0.0299  0.0705 -0.2215
27946W        W46800   6.860  13.983  16.091  0.0046 -0.0351  0.2611
27947W        W46801   9.216   3.254  11.977 -0.1640 -0.0214 -0.0676
27948W        W46802   3.838   7.381  16.516  0.0070  0.1854 -0.0582
27949W        W46803   4.041  10.140   5.570  0.0348  0.0317 -0.1326
27950W        W46804  12.270   9.451  15.768 -0.0969  0.3902 -0.2366
27951W        W46805  13.668   2.671  15.597 -0.2007  0.0896  0.2361
27952W        W46806  12.718   3.904  17.357 -0.0240 -0.1177 -0.0665
27953W        W46807   0.842  10.710  16.222 -0.1703  0.2717  0.0225
27954W        W46808   3.687   8.552  17.385  0.2812 -0.4048  0.2169
27955W        W46809   0.414   8.888   4.647  0.0417  0.0825  0.0136
27956W        W46810  17.218  16.603  14.918 -0.2037 -0.0900 -0.1260
27957W        W46811   9.702  12.407   3.936  0.0994 -0.4539  0.1260
27958W        W46812   8.971  16.171   3.134 -0.0189  0.0135  0.5148
27959W        W46813  13.534   1.179   0.690 -0.0958  0.0709  0.0536
27960W        W46814   7.656   9.683  13.800 -0.1075 -0.3027 -0.0337
27961W        W46815   9.669   4.387   1.023 -0.0901 -0.1025  0.2101
27962W        W46816   2.476  15.524  14.548 -0.0746 -0.0008 -0.0332
27963W        W46817   5.795   7.739  13.567 -0.0386 -0.0028 -0.0043
27964W        W46818  16.739   7.315   0.335  0.3158  0.1202 -0.2021
27965W        W46819   7.534   3.143   2.625  0.0645  0.0448  0.1413
27966W        W46820   6.390  10.045  15.649 -0.0251  0.0325 -0.0797
27967W        W46821   2.860  11.496   4.958  0.1359  0.1316 -0.1031
27968W        W46822   2.487   0.833  16.158  0.1497 -0.2728 -0.0015
27969W        W46823   3.673  10.005   1.281 -0.2292 -0.0786 -0.0464
27970W        W46824   2.918  13.812   1.924  0.1800  0.1709 -0.1703
27971W        W46825   2.593   8.556   5.331 -0.0857 -0.2651 -0.1190
27972W        W46826   4.874  12.691  14.116 -0.4564 -0.1414  0.1565
27973W        W46827   7.687  14.688  15.724  0.1029 -0.1520  0.1179
27974W        W46828   3.926  14.130   0.545 -0.0046  0.1600  0.0943
27975W        W46829   3.464  15.319  14.799  0.1808 -0.0721 -0.2262
27976W        W46830  12.322   1.617   0.537 -0.1006  0.0096 -0.1796
27977W        W46831   8.066   2.255  17.155 -0.0110 -0.0623 -0.2621
27978W        W46832   4.542   2.948   3.963 -0.1187  0.2532  0.0879
27979W        W46833  16.780   4.072   3.940  0.2096  0.0504  0.1533
27980W        W46834   6.865  14.965  13.757 -0.0365  0.3686 -0.1615
27981W        W46835  14.112   0.760  13.412  0.1248 -0.0791  0.0979
27982W        W46836   8.589  13.409   2.804  0.1346  0.2007  0.3840
27983W        W46837   1.943  15.598   4.513 -0.1107  0.4311  0.0981
27984W        W46838   4.994   2.670   2.649 -0.3206  0.3267 -0.1591
27985W        W46839  17.264   8.507  17.375  0.1851  0.1856 -0.0035
27986W        W46840   7.102  13.589   4.401  0.0798 -0.0408  0.3033
27987W        W46841   5.504  14.268   3.568 -0.1903 -0.0072  0.1374
27988W        W46842   0.977  16.402  16.548  0.3523  0.0969  0.1371
27989W        W46843   4.280  12.461   1.249 -0.0437  0.0643 -0.0388
27990W        W46844   1.773   0.277   0.054 -0.1603 -0.1300 -0.0740
27991W        W46845   9.359  16.010   5.689  0.1523 -0.0848  0.2917
27992W        W46846   8.665   0.374   4.215  0.2179  0.0361 -0.0452
27993W        W46847  12.527   7.809  14.295 -0.1821  0.1436  0.1761
27994W        W46848   4.473   0.052   3.584 -0.2511 -0.1013 -0.0970
27995W        W46849  11.895   5.020   2.825  0.4356  0.0236  0.1547
27996W        W46850   4.477   0.674   5.077 -0.0791 -0.0345 -0.0840
27997W        W46851  13.401  12.307  14.015  0.2799 -0.1205  0.1660
27998W        W46852  14.564  14.164  14.705 -0.0555  0.1514 -0.3366
27999W        W46853   9.871   3.336   2.468  0.0829 -0.0496  0.1388
28000W        W46854  16.787   3.133  16.581  0.1263 -0.2151 -0.2009
28001W        W46855   1.919   6.625  15.226 -0.1009 -0.0577 -0.1509
28002W        W46856   0.505   3.615   2.181 -0.2197  0.0423  0.2551
28003W        W46857   2.893  10.446   0.053  0.0032  0.2481  0.1727
28004W        W46858   3.712   3.075  13.756 -0.0630  0.0433  0.2854
28005W        W46859   5.492   6.820  15.249  0.1358 -0.1206  0.2280
28006W        W46860  11.161   1.296   0.210 -0.1241  0.1263 -0.0557
28007W        W46861  10.257  13.807   0.780 -0.1673  0.1927  0.1776
28008W        W46862   3.774  12.333  13.473 -0.0471  0.0450  0.1231
28009W        W46863   4.580   4.432   2.437 -0.0315  0.0508  0.1405
28010W        W46864  14.874   2.845   4.427 -0.2061 -0.1295 -0.1921
28011W        W46865   7.505  17.170   1.230 -0.3677  0.1340  0.0376
28012W        W46866  12.811   4.308   1.925  0.1207 -0.1595  0.2318
28013W        W46867   9.578   8.091   4.687  0.0068 -0.2273 -0.1932
28014W        W46868  10.461  14.094   4.261 -0.0464 -0.1224  0.0095
28015W        W46869   6.605  11.345   2.388  0.0579 -0.0300  0.0133
28016W        W46870   3.709   2.733  12.722 -0.2700  0.1627  0.1101
28017W        W46871   1.921   5.450   3.737 -0.0425 -0.1099  0.2154
28018W        W46872  15.315   7.058  13.490  0.0285  0.0634 -0.1402
28019W        W46873   5.400   3.385   2.027  0.1838  0.0096  0.0597
28020W        W46874   4.517  13.347   1.585  0.1400 -0.0682 -0.2282
28021W        W46875  12.136   1.475   3.757 -0.1247 -0.1495  0.2037
28022W        W46876  10.913  11.354  16.718  0.1722  0.2979  0.3752
28023W        W46877   7.958  13.743   4.738 -0.5959  0.0913 -0.0092
28024W        W46878   7.229  13.537   5.222 -0.3517 -0.0684  0.0249
28025W        W46879  14.272   0.030   1.917 -0.0313 -0.3792  0.0511
28026W        W46880  11.960   2.651  12.966 -0.1498  0.1144 -0.2306
28027W        W46881  16.959  13.801   4.404 -0.0443  0.2550  0.2442
28028W        W46882   6.656  11.039   3.457 -0.0875  0.2816 -0.2568
28029W        W46883  13.323  16.745  16.610  0.0786 -0.2134  0.1285
28030W        W46884  14.206  15.085  16.944  0.0611 -0.0160  0.0072
28031W        W46885   2.455   6.495   1.123  0.0344  0.2947  0.2986
28032W        W46886   3.561   3.070   2.727  0.0252 -0.2951 -0.2053
28033W        W46887   2.404  10.217  13.741  0.3712  0.2284  0.3967
28034W        W46888  12.997   2.380  16.271  0.0530 -0.2165 -0.1188
28035W        W46889   3.341   1.795   2.278  0.2119 -0.2183  0.0640
28036W        W46890   1.750   6.773   4.784  0.5002  0.0250 -0.2261
28037W        W46891  11.885   2.337  15.217 -0.0281 -0.0096 -0.0476
28038W        W46892  16.418  14.403  16.416  0.2082 -0.0951 -0.1372
28039W        W46893   7.633  12.695   0.268  0.1299 -0.0349 -0.4128
28040W        W46894   5.069  13.001   4.897 -0.0037  0.0531 -0.0693
28041W        W46895  15.831  10.285  15.876 -0.1162 -0.0266 -0.2593
28042W        W46896  10.008   1.140   1.353 -0.1986  0.0069  0.0906
28043W        W46897  14.292   5.044  13.272  0.0278 -0.0285  0.1242
28044W        W46898   1.459   0.180  13.295  0.1244  0.0564  0.0890
28045W        W46899  12.546   4.586   0.504 -0.0433 -0.2744 -0.3626
28046W        W46900  12.317  14.363   4.367 -0.0555 -0.1321  0.1693
28047W        W46901  15.494   4.935   0.389 -0.4194  0.0243  0.2738
28048W        W46902   8.584  16.747  15.890 -0.0385 -0.0917  0.0436
28049W        W46903   7.059   2.223   1.440  0.1980  0.2585 -0.0073
28050W        W46904   2.347  16.054  16.262 -0.0311  0.0507  0.0184
28051W        W46905   4.697   1.510  12.398 -0.1297  0.3157 -0.2444
28052W        W46906   2.841  11.987  12.990 -0.0253 -0.0084  0.3474
28053W        W46907  10.593   4.537   0.032  0.0338  0.2450 -0.1070
28054W        W46908  11.945   8.339   5.177  0.0057  0.0866 -0.1882
28055W        W46909   4.697   0.433  14.294 -0.1994 -0.0101 -0.0344
28056W        W46910  10.530   6.797  12.816 -0.0363  0.1479 -0.0121
28057W        W46911   4.656   3.054  15.085 -0.2103  0.0855  0.0462
28058W        W46912   8.686  13.710  13.247  0.1244 -0.2907  0.4019
28059W        W46913   6.678   4.758   2.720 -0.0879  0.1469  0.0135
28060W        W46914   5.568   8.166   0.137 -0.0324 -0.1756 -0.0540
28061W        W46915  10.203  10.541   3.864  0.3006 -0.3176  0.3503
28062W        W46916   9.023  11.673   4.853  0.1665 -0.2247 -0.1141
28063W        W46917  11.533   2.506  16.739 -0.1750 -0.1078 -0.2148
28064W        W46918   4.737   0.224   1.218  0.2818  0.1506 -0.1893
28065W        W46919   1.686   5.308  13.537  0.3892 -0.0271 -0.3354
28066W        W46920   5.896  14.600   0.066 -0.0311 -0.1646  0.0590
28067W        W46921  14.735   3.928   1.657 -0.0548 -0.1708  0.3194
28068W        W46922   5.344   1.927   0.070  0.2763  0.0045 -0.1368
28069W        W46923  16.748   2.002   2.853 -0.0785  0.0658 -0.0174
28070W        W46924   4.335  11.360   4.382 -0.1742 -0.0634 -0.0995
28071W        W46925  15.434   0.349  11.832  0.0042  0.0854 -0.0824
28072W        W46926   6.799  11.596  14.980 -0.3083 -0.0360 -0.1516
28073W        W46927   1.018   6.818   0.140 -0.1943  0.3428  0.0605
28074W        W46928  15.672  12.479   4.844  0.4077 -0.1562  0.1770
28075W        W46929  15.103  12.800   2.485  0.1199  0.0749  0.0997
28076W        W46930   2.945   2.643   1.151 -0.0115  0.1929  0.0841
28077W        W46931  13.886  15.282   0.946 -0.0373  0.1434  0.3346
28078W        W46932   3.109  14.161   4.580  0.2446  0.1203 -0.0191
28079W        W46933   8.785  12.512   3.217 -0.0067  0.0666 -0.1861
28080W        W46934  12.504  12.667   0.424  0.0987 -0.0545 -0.0778
28081W        W46935   6.419  14.727  12.488 -0.3365  0.1539 -0.0542
28082W        W46936  17.256   1.495   1.079  0.0221 -0.0453  0.0435
28083W        W46937  13.005  14.829   2.520  0.0432  0.0607  0.2293
28084W        W46938   7.210   3.628   4.557  0.0168  0.1305 -0.1160
28085W        W46939  13.452  11.480   4.514 -0.1534 -0.0041 -0.1259
28086W        W46940   4.863  14.234   2.596  0.1354 -0.1671  0.5570
28087W        W46941   4.965   5.118   1.698 -0.1013 -0.1207  0.0248
28088W        W46942   6.535  11.338   0.776  0.3299 -0.5539  0.3388
28089W        W46943  10.169  15.247   1.697 -0.3726  0.3216 -0.0450
28090W        W46944  10.751   0.675   1.038 -0.0780 -0.0287 -0.1562
28091W        W46945   7.790  16.888  13.999  0.3034  0.1696  0.5335
28092W        W46946   5.608   4.422  13.029  0.0454  0.1657  0.2198
28093W        W46947  16.835   2.592   4.375 -0.0750  0.2729 -0.0076
28094W        W46948  13.454   0.758   0.384 -0.1682 -0.0886 -0.0403
28095W        W46949   7.732   9.009  16.752 -0.1201  0.1858  0.1837
28096W        W46950  16.233  15.135  13.116 -0.0092 -0.1290 -0.0772
28097W        W46951   5.895   3.030   2.666  0.1385  0.1212  0.0002
28098W        W46952   5.127   9.409  12.525  0.1762  0.0876  0.0600
28099W        W46953  14.638   6.342   2.559 -0.0974  0.4174  0.1423
28100W        W46954  14.754  13.423  15.838 -0.0942 -0.2531  0.0702
28101W        W46955   8.326   4.856  13.876 -0.0951  0.1364  0.1546
28102W        W46956   7.315   4.021   1.171 -0.2290 -0.0996  0.1125
28103W        W46957   3.408  13.701  13.826  0.2028 -0.0639 -0.0058
28104W        W46958  16.051   1.604   0.853 -0.0212  0.1884 -0.0498
28105W        W46959   4.948  16.014  13.468 -0.3490  0.1419 -0.1383
28106W        W46960   5.413  16.191   5.508  0.3660 -0.3078  0.0985
28107W        W46961  14.689   6.777  16.912 -0.2371 -0.0195  0.0423
28108W        W46962   9.043   1.155  13.555  0.1099  0.2289 -0.0544
28109W        W46963  10.623  14.446  12.840 -0.1133 -0.0790  0.0080
28110W        W46964   9.503  13.140  16.900 -0.2157 -0.0035 -0.1628
28111W        W46965  14.497   2.197  14.639 -0.0683  0.2619  0.0155
28112W        W46966  14.513  16.985  13.643  0.1062  0.0960 -0.1215
28113W        W46967   7.975  12.047  14.380 -0.1198  0.2999 -0.1389
28114W        W46968   0.016   2.429   4.154 -0.0983  0.1747  0.0068
28115W        W46969  16.658   2.429   3.200 -0.1138 -0.4607 -0.1242
28116W        W46970  15.811   4.980  17.298 -0.1533 -0.3999  0.0427
28117W        W46971   9.372   3.170  14.684  0.0201  0.0306  0.2550
28118W        W46972  10.426  10.001  17.459 -0.4322  0.0331 -0.1402
28119W        W46973   2.745   8.101   2.685 -0.0331  0.0734 -0.0939
28120W        W46974  15.346   9.882  17.430 -0.1684  0.0442 -0.0442
28121W        W46975  12.387   6.270  14.142  0.1396 -0.1035  0.1409
28122W        W46976   8.636   1.657   4.957 -0.0217  0.1885  0.1795
28123W        W46977  12.056   5.901  15.238 -0.0365  0.2788 -0.1338
28124W        W46978  12.243   2.693  15.402 -0.2105 -0.1936  0.0084
28125W        W46979  15.002  14.370  16.218 -0.1582 -0.1590 -0.0758
28126W        W46980  10.164   1.261   4.964  0.2099  0.1113  0.0988
28127W        W46981   5.414   8.192  13.717  0.0778 -0.1090 -0.1251
28128W        W46982  11.101   5.393  15.627 -0.0236 -0.1436  0.0264
28129W        W46983   8.272  15.307  15.406 -0.1291 -0.3320 -0.1017
28130W        W46984   9.090  15.340  15.856  0.3579  0.2615 -0.0528
28131W        W46985   0.923   6.899   4.956 -0.1360  0.0777 -0.3098
28132W        W46986   1.261   7.587  15.801  0.1534  0.3391 -0.1148
28133W        W46987   6.663   4.598   0.538  0.0180 -0.2591 -0.0046
28134W        W46988   9.049  14.164   4.166 -0.4404 -0.0449 -0.1411
28135W        W46989   0.024  14.722  15.521  0.3682 -0.4513  0.1771
28136W        W46990  14.671   5.044   1.377 -0.1991 -0.0656  0.2523
28137W        W46991   9.835   0.390  13.276  0.1042  0.1805 -0.2641
28138W        W46992   4.676  16.348  15.883  0.1205 -0.0191  0.1607
28139W        W46993  10.867  14.614  12.443 -0.0621 -0.0506  0.3521
28140W        W46994   3.646   5.290   1.017  0.3125  0.1190 -0.2119
28141W        W46995   0.946  14.853  12.867  0.2311  0.2549  0.0661
28142W        W46996   0.566   9.206   4.290  0.4364  0.0070  0.0067
28143W        W46997  16.437   5.817  14.369  0.1582 -0.0053  0.2397
28144W        W46998   7.262   9.600  17.248 -0.0167 -0.1919  0.3918
28145W        W46999   2.009   0.291  14.481 -0.0780  0.0786 -0.0023
28146W        W47000   5.065  14.042  13.920 -0.1684 -0.1570  0.0511
28147W        W47001  10.299  11.383  17.286 -0.1969 -0.1915 -0.2414
28148W        W47002  14.455  12.906   3.963  0.0321 -0.1350 -0.2307
28149W        W47003  12.658  10.830   0.249  0.2503 -0.0454 -0.2122
28150W        W47004  12.063  10.400   2.193 -0.0538 -0.0057  0.0098
28151W        W47005   9.589   4.760   4.073  0.0316  0.0708 -0.0237
28152W        W47006   1.718   8.707   1.787  0.2725 -0.1979  0.0111
28153W        W47007  14.748  14.879  12.987 -0.1295  0.2816 -0.0537
28154W        W47008   8.038  16.974   3.895  0.1396 -0.0306 -0.0692
28155W        W47009  16.700   1.855  17.053  0.2065 -0.1728 -0.0230
28156W        W47010  12.456   0.351  14.067 -0.4004  0.0267 -0.0487
28157W        W47011  15.194  10.714  13.043  0.2641 -0.2655  0.0911
28158W        W47012   3.703   3.648  16.842  0.2829  0.0541 -0.0981
28159W        W47013   0.128  16.568   1.575 -0.0069  0.0762  0.2746
28160W        W47014  15.427   4.447   1.127 -0.1905 -0.1636  0.0533
28161W        W47015  17.369   9.705  13.922  0.2029  0.2059 -0.1343
28162W        W47016   4.554   7.618   3.693 -0.0137 -0.1694  0.3213
28163W        W47017   9.615  10.982   1.163  0.0618 -0.1409 -0.1960
28164W        W47018  10.451   7.873   4.472  0.2276  0.1429  0.0368
28165W        W47019   4.793  13.423  16.468 -0.0324 -0.2314  0.0610
28166W        W47020   1.671   9.356  15.358  0.0426  0.0890  0.2533
28167W        W47021  13.109   7.307  16.469  0.1613  0.1048 -0.1144
28168W        W47022  15.193   9.211  12.627  0.1284  0.2408 -0.1744
28169W        W47023  15.531   2.218  15.662  0.0348  0.2242 -0.0565
28170W        W47024  14.688   7.623  13.923 -0.0799 -0.0019  0.1352
28171W        W47025  16.456  13.312   3.983 -0.1285  0.2729  0.1059
28172W        W47026   3.581   8.634   2.215  0.1472  0.0173 -0.0505
28173W        W47027  12.337  10.152   1.859 -0.2023 -0.0378  0.1375
28174W        W47028   5.162   9.283  15.787 -0.1540  0.2906  0.1439
28175W        W47029  10.534  10.172   3.925 -0.1514 -0.0279 -0.1302
28176W        W47030   3.320   8.177   3.250  0.0184  0.2060 -0.0162
28177W        W47031   6.094  10.418   0.415 -0.0323 -0.2396 -0.1029
28178W        W47032  16.697   8.989   1.172 -0.1063  0.1071  0.1019
28179W        W47033  15.253   8.596  13.259  0.1636  0.0342  0.0422
28180W        W47034   0.310  12.160   3.503 -0.2923 -0.2442  0.1536
28181W        W47035  11.403  17.218   5.213 -0.1490  0.1589  0.2849
28182W        W47036   6.057   1.604  15.727 -0.3963 -0.2118  0.4077
28183W        W47037  14.743  15.194   4.811  0.3249  0.2318  0.1597
28184W        W47038   5.391   9.353   2.605  0.1922  0.1717 -0.4776
28185W        W47039  13.033   4.856  15.024  0.2233  0.0330  0.2919
28186W        W47040   2.352   8.692   0.611  0.0856  0.1465 -0.0136
28187W        W47041  17.062  16.074  12.989  0.1362  0.0390 -0.2115
28188W        W47042   1.369   8.592  13.224  0.0709  0.0685 -0.1105
28189W        W47043   8.660   3.600   1.320 -0.0315 -0.2079  0.3049
28190W        W47044   2.973  11.933   0.879  0.0050 -0.0888 -0.0840
28191W        W47045   8.365  11.209   5.669  0.0611  0.3182  0.2484
28192W        W47046  12.855  12.342   5.195 -0.2028 -0.1427 -0.0397
28193W        W47047   7.011   2.511   5.111  0.2508  0.2410 -0.0124
28194W        W47048   8.882   6.261  15.226  0.2376 -0.1963 -0.2391
28195W        W47049  14.787   2.293   4.409 -0.0384 -0.1381 -0.2512
28196W        W47050   7.777   6.532   3.406  0.0863 -0.0101  0.1615
28197W        W47051  14.984   8.333   3.643 -0.2445 -0.0620 -0.1883
28198W        W47052  13.669   8.321   3.157 -0.0173 -0.2438 -0.1705
28199W        W47053  10.108   1.628   3.258  0.4140  0.1208 -0.1043
28200W        W47054   2.424  10.170   1.311 -0.2304 -0.1823 -0.1780
28201W        W47055   0.286  11.681  16.133 -0.0089 -0.5420 -0.0360
28202W        W47056  14.666   4.944  12.442 -0.0420 -0.3064 -0.4163
28203W        W47057   3.804   2.974   0.120 -0.2030 -0.0034  0.1367
28204W        W47058  14.661   2.097  15.320  0.3723  0.2851  0.0797
28205W        W47059   7.901   2.778   3.499  0.3293  0.0119  0.0370
28206W        W47060   1.417  12.430  12.646  0.3616 -0.0352 -0.0450
28207W        W47061   5.442  15.830  11.619 -0.2813 -0.0487  0.0369
28208W        W47062  12.025  10.741   4.813 -0.3578 -0.1659 -0.2692
28209W        W47063   2.767   4.698   0.114  0.2576  0.1898 -0.3580
28210W        W47064   1.046   6.895  12.668  0.0993 -0.1611  0.3734
28211W        W47065  13.933  14.732  14.319  0.0647 -0.0826  0.1238
28212W        W47066   7.873  13.328   4.097 -0.3755 -0.0885  0.1456
28213W        W47067  16.028   6.119   1.749 -0.0560  0.0495  0.0770
28214W        W47068   7.261   3.097  15.112  0.1068 -0.0557 -0.2271
28215W        W47069  13.793  13.915  16.193 -0.1025 -0.1762 -0.1644
28216W        W47070  11.697  16.643  14.849  0.0805 -0.0984  0.0889
28217W        W47071  14.786   6.798  15.543 -0.0563  0.0658  0.3360
28218W        W47072   6.080   4.512  12.546 -0.0088  0.0157  0.0631
28219W        W47073   0.770   2.176   2.803  0.2102 -0.0317 -0.3474
28220W        W47074  14.436  15.906   2.618  0.2137  0.1779 -0.0669
28221W        W47075   5.462  10.147  13.065  0.1916  0.0839 -0.3465
28222W        W47076   7.129  11.795  17.067 -0.0905 -0.3733 -0.2247
28223W        W47077   3.351   2.206  13.378  0.0308 -0.2259 -0.0386
28224W        W47078   5.316  10.996  13.247 -0.1567  0.4150 -0.2292
28225W        W47079   9.911  12.815   1.344 -0.1771 -0.0167  0.0145
28226W        W47080  16.931   8.716   3.220 -0.2244  0.1707 -0.1348
28227W        W47081   9.422  11.785  13.971 -0.1839 -0.1346 -0.0398
28228W        W47082   4.423  10.582   2.355 -0.2187 -0.0129 -0.0443
28229W        W47083  17.055   3.219   3.895  0.5002 -0.0293  0.3075
28230W        W47084   2.976   6.630  15.370  0.0766  0.1497  0.0296
28231W        W47085   6.377  12.451  16.324  0.0215 -0.1346 -0.0502
28232W        W47086   6.956  13.060   5.164 -0.1410 -0.2851 -0.0282
28233W        W47087   2.599   7.484   1.403 -0.0655  0.2858 -0.1621
28234W        W47088  15.115  16.481   2.386 -0.0263 -0.1855  0.0318
28235W        W47089  10.626   9.515   3.760 -0.2939  0.0648 -0.1115
28236W        W47090   8.792  17.378  17.103 -0.1834 -0.4542 -0.0335
28237W        W47091  11.191  16.947   0.402 -0.2455 -0.0544 -0.1274
28238W        W47092  17.344  16.117   1.569  0.0978  0.1942 -0.4022
28239W        W47093   4.095   8.999   0.635 -0.1017 -0.1661 -0.0675
28240W        W47094  15.563   5.430  15.569  0.2426 -0.2690  0.1244
28241W        W47095   2.514   9.764   0.968  0.0795 -0.1712 -0.0645
28242W        W47096   0.973  11.724   4.332  0.0304 -0.1407  0.0692
28243W        W47097  13.878  10.788  15.220  0.3549 -0.1442  0.0469
28244W        W47098   2.589  15.363   3.313  0.2565  0.2055 -0.0969
28245W        W47099   9.133   0.420   5.071 -0.1864 -0.0415  0.0292
28246W        W47100  14.835   1.536  15.796  0.2233 -0.1246 -0.1050
28247W        W47101   9.413  12.716  16.643 -0.0098 -0.1746 -0.0038
28248W        W47102   6.274   7.545   4.913 -0.1443  0.1109 -0.2677
28249W        W47103   8.642   3.330   0.255 -0.1319  0.0732 -0.1674
28250W        W47104   1.810  13.300   1.298  0.0298 -0.1355  0.1494
28251W        W47105   2.017   7.927  12.884 -0.0022  0.1438  0.0021
28252W        W47106   6.084   0.576   3.352 -0.2672  0.1628 -0.0590
28253W        W47107   2.280  10.285   1.787 -0.2037  0.0480  0.0869
28254W        W47108   6.801   3.183  13.592  0.0951  0.0923  0.0482
28255W        W47109   8.694   5.895  16.618 -0.1514  0.0236 -0.1739
28256W        W47110   9.503  16.351   1.470  0.0998  0.1017  0.0391
28257W        W47111   4.726   1.900   1.587  0.2825 -0.0897  0.1201
28258W        W47112   9.325  14.926   0.814  0.1430  0.0384  0.0588
28259W        W47113   3.714  10.055   5.230 -0.0660 -0.0198  0.2728
28260W        W47114  14.352  10.748   3.586  0.1269 -0.2004  0.0596
28261W        W47115  10.099  13.794  16.211  0.0570  0.1183 -0.0895
28262W        W47116   7.380   9.085  12.184 -0.0843 -0.0455 -0.0457
28263W        W47117  12.204   0.104   3.933 -0.1271  0.0002 -0.0807
28264W        W47118  16.832   2.832  14.662  0.0573  0.2929 -0.0319
28265W        W47119   1.421   5.990   3.052 -0.1260  0.2029  0.0152
28266W        W47120   3.985  11.521  15.921 -0.0259 -0.1918 -0.1867
28267W        W47121   6.018   0.526   2.706 -0.2416  0.0428  0.4829
28268W        W47122  16.569   9.266   0.220  0.0249 -0.1059 -0.0331
28269W        W47123   2.791   8.804   0.361  0.2739 -0.0326 -0.2402
28270W        W47124  11.198   9.106  15.636 -0.1064  0.0548 -0.0073
28271W        W47125   4.632  17.122   1.261  0.1668 -0.1661  0.1457
28272W        W47126   1.561   1.194   1.741 -0.4714  0.0411 -0.0680
28273W        W47127  13.379  14.885   4.934 -0.2238 -0.2165  0.0496
28274W        W47128  16.556   8.854  12.403  0.1036 -0.0030 -0.0877
28275W        W47129  17.276  12.391  15.761 -0.1789  0.2208 -0.0722
28276W        W47130   2.880   5.989   3.596 -0.2734  0.0459 -0.4244
28277W        W47131  16.672  12.795   1.067  0.1313 -0.2654 -0.1002
28278W        W47132  15.008   1.080  13.680  0.3463 -0.3232 -0.1544
28279W        W47133   5.662  15.473  16.276  0.1787  0.0430  0.2559
28280W        W47134  15.234   1.332   0.328 -0.1185 -0.0710 -0.0062
28281W        W47135   1.471   0.889  13.253  0.2676  0.0480 -0.1172
28282W        W47136   7.781   0.232  16.086 -0.2395  0.3839  0.2545
28283W        W47137  15.240   4.057   4.885 -0.2835  0.0571  0.1208
28284W        W47138   7.385   8.883  14.275  0.1146  0.0931 -0.3092
28285W        W47139  12.889   3.199  15.586  0.0135  0.1077  0.1378
28286W        W47140   8.364   8.232  13.539 -0.0221  0.0071  0.1253
28287W        W47141  11.980   1.513  16.087  0.0006 -0.1195  0.0930
28288W        W47142   3.770  10.485  13.676  0.2909 -0.1361 -0.1085
28289W        W47143  13.404  15.272  12.406 -0.0339 -0.1578  0.2351
28290W        W47144  17.196   3.895   3.039  0.1168 -0.1521  0.0670
28291W        W47145  15.133   7.687   1.980 -0.1239  0.0534  0.2745
28292W        W47146  14.306  12.161   2.828 -0.0207 -0.0199 -0.0668
28293W        W47147  11.311   7.500   2.084  0.0627  0.2629 -0.1385
28294W        W47148  10.775  14.305  15.848 -0.1499  0.2414  0.2619
28295W        W47149  11.373  14.995   2.180  0.1857  0.2972 -0.2092
28296W        W47150   0.680  16.167   3.656  0.1474  0.0269 -0.0467
28297W        W47151   8.341   2.207   3.308  0.1690  0.1922 -0.3721
28298W        W47152  16.770  16.182   1.497 -0.0722 -0.1550  0.1226
28299W        W47153  15.456   8.731  12.804 -0.0881  0.1329 -0.2093
28300W        W47154  11.091  17.042  14.933 -0.0993 -0.3732 -0.1864
28301W        W47155  11.848  15.502  14.110 -0.2152  0.0509 -0.1720
28302W        W47156  15.652  10.455   4.052 -0.2784  0.1197 -0.0081
28303W        W47157   5.313   2.847  17.224 -0.3733  0.0226 -0.1012
28304W        W47158  16.951   9.439   3.342  0.2234  0.0049 -0.0673
28305W        W47159  10.662   5.263  13.468 -0.0670  0.0029  0.1241
28306W        W47160   4.766   0.941  13.499 -0.1572  0.1049 -0.0676
28307W        W47161   6.794  14.067   2.818 -0.1341 -0.0720 -0.0240
28308W        W47162   1.085   3.693   1.488  0.1064  0.3333 -0.1119
28309W        W47163  16.211   0.175   4.936 -0.2275  0.1048  0.1135
28310W        W47164   9.126   8.994  16.841 -0.0892 -0.0482 -0.0324
28311W        W47165  12.363   9.508  14.479 -0.3967  0.0407 -0.1910
28312W        W47166  14.790   0.986   1.194  0.0804  0.0361  0.2505
28313W        W47167  16.516  11.764   2.463 -0.0762  0.3258  0.1374
28314W        W47168  10.066   8.177   0.229 -0.0899 -0.2363  0.0933
28315W        W47169  11.752  11.176  12.257 -0.1818 -0.0613  0.0336
28316W        W47170   9.865   8.981   4.652  0.2958  0.0920 -0.1046
28317W        W47171   8.218  10.407   1.260 -0.3542  0.1153  0.0248
28318W        W47172   0.551  11.284   1.615  0.0888 -0.1522  0.0982
28319W        W47173   2.435   1.780   3.656  0.1764 -0.0236 -0.0649
28320W        W47174  12.455  14.132   3.274 -0.0806 -0.0856 -0.1543
28321W        W47175  14.175   0.088  15.790 -0.2219  0.1619  0.0481
28322W        W47176   2.198   7.668   2.847  0.1427  0.1100 -0.1074
28323W        W47177  14.594  17.015   1.194 -0.1037  0.0561  0.1313
28324W        W47178   1.589  14.710  15.581 -0.2095  0.0256  0.0443
28325W        W47179   1.809  10.979  12.336 -0.0725  0.1964  0.1271
28326W        W47180   1.916  12.599   4.126 -0.0584  0.3378 -0.2615
28327W        W47181   9.394  11.622   3.262 -0.3066 -0.2735 -0.0548
28328W        W47182  10.732   8.396  16.112  0.0453  0.0729  0.1530
28329W        W47183   4.146  13.420   3.883  0.1972  0.0461 -0.0473
28330W        W47184   2.108   2.830   3.213  0.1986  0.1941 -0.0481
28331W        W47185   5.727   2.666  16.336 -0.0392  0.1120 -0.1098
28332W        W47186  12.754   4.472  13.276 -0.0247 -0.0275 -0.3168
28333W        W47187  16.330   7.151   2.054  0.0846 -0.1380  0.4082
28334W        W47188  13.019   6.641   2.091  0.3298 -0.0679 -0.3226
28335W        W47189   8.741   5.460  14.438  0.2636  0.0723  0.1963
28336W        W47190  10.738  13.954   0.572  0.1404 -0.0831  0.3606
28337W        W47191   2.705  13.222  14.549  0.1401 -0.0612 -0.1855
28338W        W47192   2.666   6.181   3.084  0.1044 -0.1710  0.2994
28339W        W47193  15.980  11.211  16.879  0.1436 -0.1519 -0.1000
28340W        W47194   7.077   5.268  14.183 -0.0102 -0.1346 -0.1281
28341W        W47195   6.333  11.381  14.919 -0.2305  0.1739 -0.2467
28342W        W47196   8.522   9.366  13.204 -0.3606  0.1154  0.0471
28343W        W47197   8.716  14.962   2.271 -0.2601 -0.0240  0.1449
28344W        W47198   1.068   7.820   3.927 -0.1680  0.0890 -0.0476
28345W        W47199  11.158   0.123  15.093 -0.1757  0.0019  0.1267
28346W        W47200  16.218  17.139   5.285 -0.0712  0.2185  0.0619
28347W        W47201   6.709   1.471  13.682 -0.4706  0.1370  0.2881
28348W        W47202   4.671  13.212  15.861 -0.1056 -0.0464 -0.2230
28349W        W47203   9.434   8.204   2.617  0.1204 -0.0690 -0.0077
28350W        W47204   8.305   0.260  15.589  0.0736  0.1805  0.1541
28351W        W47205  14.749   7.472  15.326 -0.2263 -0.1206  0.1412
28352W        W47206   4.075  13.776  13.757 -0.0703 -0.1907  0.4226
28353W        W47207  15.570   2.816  13.870  0.0584 -0.1024  0.0507
28354W        W47208  16.968   4.189  12.078  0.1682  0.1292 -0.1286
28355W        W47209  14.609  12.405  16.172  0.0026  0.2455  0.0954
28356W        W47210   1.514  12.979   4.135  0.2517  0.2090 -0.0028
28357W        W47211   1.085   1.403  14.672 -0.0259 -0.0931  0.2276
28358W        W47212   0.572   1.851   3.128 -0.0356 -0.1262 -0.2474
28359W        W47213   0.787   4.259  17.341 -0.1133 -0.0193 -0.2507
28360W        W47214   5.210   9.671  13.975  0.3920 -0.0601  0.0350
28361W        W47215   2.620   0.839   3.777 -0.0290 -0.0083 -0.0911
28362W        W47216   0.856   2.891   4.519 -0.2191  0.4302  0.0021
28363W        W47217   3.243  12.213   1.644  0.1922 -0.2419  0.0939
28364W        W47218  12.248   1.011   5.184 -0.1264  0.2406  0.2023
28365W        W47219   3.739   9.609  17.001  0.0436 -0.0667 -0.1000
28366W        W47220  17.144   3.687  15.707 -0.0783 -0.0799  0.0194
28367W        W47221  13.470   9.168  12.910  0.2953  0.2044  0.1111
28368W        W47222   4.241  16.234  15.576 -0.0488 -0.1546 -0.1665
28369W        W47223   2.039  16.662   1.443 -0.1170  0.0667  0.0646
28370W        W47224  12.570   9.709   1.732 -0.0859  0.3448  0.0097
28371W        W47225   0.106   5.895   1.039  0.0770  0.1882 -0.3127
28372W        W47226   3.614  12.803  13.702  0.1563  0.0255  0.4131
28373W        W47227  10.024   8.363  16.768 -0.2802  0.0878  0.0299
28374W        W47228  14.850  14.538  14.897 -0.1534 -0.0556 -0.3221
28375W        W47229  11.004   9.862  16.073  0.4443  0.0408  0.0665
28376W        W47230   3.456   7.571  11.407 -0.0654  0.0067  0.1691
28377W        W47231  11.969   0.989   1.293  0.0156  0.0445 -0.1703
28378W        W47232   2.375  16.002  14.901 -0.0303  0.1650  0.0110
28379W        W47233   2.183  13.431  14.675  0.1231  0.2014 -0.2061
28380W        W47234   2.239   0.396  13.032  0.3120 -0.0539  0.0671
28381W        W47235   6.656   9.366   4.294 -0.0440 -0.0451  0.2741
28382W        W47236  12.183   3.478  12.517 -0.1740  0.1860 -0.0870
28383W        W47237  13.809   1.003   1.687 -0.1585  0.0881  0.1674
28384W        W47238  10.890   8.691   4.291  0.2821 -0.0645  0.4123
28385W        W47239  11.088  14.738  12.875  0.1391 -0.4009  0.2219
28386W        W47240   6.608  14.987   3.071  0.0290  0.3101  0.1836
28387W        W47241   3.339   2.181  15.197  0.0486  0.0110  0.0080
28388W        W47242   3.495   3.942   1.747 -0.2392  0.4141  0.1684
28389W        W47243   7.452  16.246  14.125  0.0783  0.3453  0.0749
28390W        W47244  13.418   0.268   2.090  0.1843  0.2346  0.0483
28391W        W47245   3.397  14.594   4.419  0.0302 -0.4032  0.1494
28392W        W47246  15.806  10.069   3.242  0.0378 -0.2502  0.0461
28393W        W47247  11.727  16.203   0.351 -0.0307  0.2592  0.1341
28394W        W47248  16.594   2.502  16.814  0.1755  0.0301 -0.0982
28395W        W47249  12.651  15.504   1.000  0.0117 -0.2112  0.0663
28396W        W47250  16.709   8.271  15.837  0.0870 -0.0999 -0.1950
28397W        W47251  11.954   9.760   4.611  0.1283  0.0531 -0.2234
28398W        W47252  16.697  13.502   2.243  0.2721 -0.0716  0.1045
28399W        W47253  16.659  16.891   3.269  0.0038  0.1686  0.1099
28400W        W47254   9.614  12.869   4.261 -0.2061  0.0140 -0.0088
28401W        W47255   8.064   6.448   3.018  0.1134 -0.6118  0.0061
28402W        W47256  11.113   9.325  13.910 -0.0144 -0.0005 -0.0343
28403W        W47257  11.813  12.870   3.300  0.0875  0.0867  0.1280
28404W        W47258   6.776   7.922   4.238 -0.3978  0.2739  0.3136
28405W        W47259   8.761   7.800  13.827 -0.0180 -0.2007  0.0840
28406W        W47260  13.167  13.653  16.555  0.3290 -0.0063 -0.0380
28407W        W47261   4.125  12.610   3.318  0.0597  0.0555 -0.3267
28408W        W47262   2.788   2.838   4.886  0.0176 -0.0251  0.0789
28409W        W47263  12.382   1.214   1.054  0.2286  0.1843  0.1378
28410W        W47264   1.617   6.294  13.733  0.2545 -0.3424  0.1377
28411W        W47265   1.924   1.748  14.418  0.3923 -0.2447  0.0664
28412W        W47266   8.018  10.880   3.384  0.3282  0.3750  0.0593
28413W        W47267  12.923   8.785  15.728  0.3154  0.3094  0.0673
28414W        W47268  12.064  13.260  16.167 -0.0436 -0.1934 -0.0006
28415W        W47269  11.586  16.106   2.709  0.0527  0.0134 -0.0277
28416W        W47270   7.577   9.562  14.763  0.0380  0.3253  0.0498
28417W        W47271   4.212   2.627  16.967 -0.0453  0.0881  0.1203
28418W        W47272  15.219   7.054  16.570 -0.0632 -0.0820  0.0199
28419W        W47273  16.693  15.983  13.374  0.0633  0.3571 -0.1519
28420W        W47274   8.239  15.845  15.866  0.0902 -0.2121  0.0889
28421W        W47275   5.326   8.800   0.460 -0.0198  0.1261  0.1444
28422W        W47276   4.397   6.134   5.214 -0.1206 -0.1379  0.2024
28423W        W47277   7.875   4.001  12.832  0.0826 -0.1425  0.1076
28424W        W47278  15.890   1.434   5.249  0.0772  0.0025  0.5060
28425W        W47279  15.941   5.415  15.174 -0.0318  0.2425 -0.1322
28426W        W47280   6.632  15.658   1.309  0.1795  0.1236  0.1912
28427W        W47281   4.762  16.254  16.716  0.1455  0.1207  0.0650
28428W        W47282  15.303  16.692  13.713  0.0049  0.0690 -0.1043
28429W        W47283   4.842  10.691  14.515 -0.3765  0.0668  0.0293
28430W        W47284  17.072   6.782   2.604 -0.0917 -0.0887  0.0175
28431W        W47285   1.605  10.982   4.856  0.2508 -0.0486  0.0045
28432W        W47286   3.704   2.627   0.673 -0.1032  0.0421  0.0808
28433W        W47287   2.164   1.710   3.159  0.1872 -0.1146  0.2569
28434W        W47288   8.091   6.127  14.436 -0.3406  0.0233  0.2441
28435W        W47289  10.377   8.781   3.177  0.0172  0.2398 -0.0010
28436W        W47290   6.746   3.967  15.498 -0.0646  0.0144 -0.1208
28437W        W47291  16.260   5.053  16.457 -0.0710 -0.0146 -0.0959
28438W        W47292   1.761   9.036   1.314 -0.0913  0.1768 -0.3612
28439W        W47293  17.267   9.981   3.505 -0.1721 -0.1967  0.1144
28440W        W47294   4.111  11.036  16.407  0.1297 -0.1214 -0.1367
28441W        W47295  12.987   1.308  12.470  0.0578 -0.1492  0.0380
28442W        W47296  13.607   0.711  16.873  0.0097 -0.2777 -0.0557
28443W        W47297  15.141   4.280  15.203  0.0174 -0.0080  0.0545
28444W        W47298  13.722   8.135  15.498 -0.0983 -0.0741 -0.2104
28445W        W47299  15.608   6.302   4.500  0.1786  0.3931  0.0677
28446W        W47300   3.306   8.607   1.066 -0.1912 -0.0729 -0.0585
28447W        W47301   0.185   6.064  12.991  0.2291 -0.0103  0.0575
28448W        W47302   8.003  11.179   0.585 -0.0545  0.1911  0.1910
28449W        W47303   9.714   9.373   0.259  0.1595 -0.0576  0.1350
28450W        W47304   4.799  13.729   4.651 -0.2399  0.0261  0.0146
28451W        W47305  10.224  12.855  13.859 -0.1095  0.3050  0.1452
28452W        W47306  11.236   2.755  13.579  0.2092  0.2763  0.1759
28453W        W47307  12.326   1.363  17.442  0.3043 -0.1772 -0.0140
28454W        W47308   0.829  16.236  16.107  0.1958 -0.0664 -0.2121
28455W        W47309   4.237   9.645   2.059  0.0239  0.0355  0.0646
28456W        W47310   8.662  16.327  17.099  0.0925  0.0655  0.2229
28457W        W47311  16.903   5.569   3.723 -0.2099  0.1904  0.1378
28458W        W47312   1.785  13.687  14.120 -0.1098 -0.0244 -0.1058
28459W        W47313   4.761  13.747   2.502 -0.3106 -0.0195 -0.0002
28460W        W47314   7.693  16.874  12.956 -0.0396 -0.0190  0.0559
28461W        W47315  10.151  12.613  16.024  0.0209 -0.2986 -0.3356
28462W        W47316  12.243   0.280  13.280  0.0080  0.0531 -0.1023
28463W        W47317   4.155  14.413  15.754  0.1829 -0.2073  0.1281
28464W        W47318  13.953   0.110  14.568 -0.0201 -0.0001  0.1265
28465W        W47319  15.788   5.263  14.352  0.0114  0.1030  0.1654
28466W        W47320   4.522  12.887   3.120  0.0787  0.2090 -0.4144
28467W        W47321   7.613   3.046   5.354  0.1740  0.2067  0.3533
28468W        W47322  11.856   3.801  15.277  0.1395  0.2299  0.0125
28469W        W47323  16.168  15.257   1.920  0.0329 -0.1692  0.3165
28470W        W47324   2.013  10.774  16.506  0.2627  0.1524  0.2515
28471W        W47325  13.573   3.523  17.227  0.0858 -0.0142 -0.2021
28472W        W47326   3.936  14.731  15.412 -0.0632  0.1329  0.1710
28473W        W47327  11.111   4.222  17.428  0.2465 -0.0689  0.3115
28474W        W47328  17.337  10.123  12.166  0.1609 -0.0431  0.3700
28475W        W47329   9.178   1.394   0.108 -0.2913  0.1564  0.0711
28476W        W47330   6.591   5.842  16.285 -0.1100 -0.2707 -0.0065
28477W        W47331   5.492   6.100   3.305 -0.4223 -0.1058  0.1920
28478W        W47332  15.005  11.611  15.584  0.0778 -0.0457  0.2548
28479W        W47333   0.568   6.114   4.620 -0.3851  0.0486 -0.1189
28480W        W47334  13.716  12.686   2.589  0.1348 -0.0962  0.0968
28481W        W47335   2.070  11.223   2.002  0.0488  0.1549 -0.0520
28482W        W47336   2.603  13.296  15.995 -0.0591  0.0078 -0.3852
28483W        W47337  14.499   9.191  13.214  0.3521  0.0930  0.0525
28484W        W47338   8.756  11.236  14.228 -0.0833  0.1348  0.2883
28485W        W47339  11.681  12.976   3.858 -0.1740  0.0320 -0.3143
28486W        W47340   3.034   7.076  15.499 -0.0244 -0.1804  0.1877
28487W        W47341  15.886  12.116  14.556 -0.1489 -0.2683  0.1168
28488W        W47342  12.600  14.775   4.598  0.1593  0.2192  0.1737
28489W        W47343  12.896   1.895   2.041 -0.1756 -0.1837 -0.0114
28490W        W47344   1.401  14.700  15.024  0.0774 -0.0654 -0.0436
28491W        W47345   6.030   1.844   1.357  0.0815  0.0933  0.4125
28492W        W47346   8.042   2.891   5.543  0.2567 -0.3143 -0.2544
28493W        W47347   4.487   9.744   4.342  0.0690 -0.1110  0.3166
28494W        W47348  13.996   6.746   3.170  0.2091 -0.2398 -0.1443
28495W        W47349  13.924  15.528   2.833  0.4417  0.1681 -0.2286
28496W        W47350  10.474  16.191  16.903 -0.1212  0.0019 -0.0007
28497W        W47351  15.306   3.959   0.702 -0.0440  0.0533  0.1685
28498W        W47352  12.150   6.034   4.942  0.2072 -0.1994  0.2098
28499W        W47353  15.630   9.862  15.032  0.1570 -0.0030  0.0521
28500W        W47354   9.589  11.179  16.052 -0.1070 -0.0618  0.0985
28501W        W47355   1.424   8.651   0.509  0.1109 -0.1373  0.2541
28502W        W47356  15.214  10.568  16.414  0.0355 -0.2573 -0.1026
28503W        W47357  15.628   3.567  14.834 -0.0964 -0.1323 -0.1195
28504W        W47358   6.699  12.253   1.103  0.0303 -0.1902  0.2143
28505W        W47359  14.577   1.828   4.757 -0.1618  0.0029  0.2207
28506W        W47360   2.488  16.181   4.291 -0.1725  0.2469 -0.2416
28507W        W47361  15.549  13.242  14.064  0.4205 -0.2488 -0.1197
28508W        W47362  13.808  10.270   3.863 -0.0855 -0.1062  0.0544
28509W        W47363   2.554  12.816  16.357  0.0852  0.0518 -0.0462
28510W        W47364   6.226  10.892  12.705 -0.0382  0.2802 -0.0124
28511W        W47365   0.365  13.413   4.749  0.3434 -0.0248  0.3566
28512W        W47366   2.165  10.374   0.357  0.2108  0.0397 -0.2708
28513W        W47367  13.418   7.239  11.277 -0.1789  0.0080 -0.0514
28514W        W47368   6.564   7.751   1.483 -0.1817  0.1786 -0.0605
28515W        W47369  11.525  13.323   1.369  0.2315 -0.2261  0.0199
28516W        W47370  14.897  14.394   2.668  0.2494  0.0901 -0.5000
28517W        W47371  15.520  17.060   5.949  0.2350  0.2406  0.2017
28518W        W47372  12.123  15.529  13.143  0.2007  0.1476 -0.0587
28519W        W47373  16.472   5.001  17.373 -0.0765 -0.3407 -0.0217
28520W        W47374   8.005  12.489  16.544 -0.0115 -0.1817  0.1769
28521W        W47375  16.693   7.990   1.010 -0.0431 -0.1202 -0.3068
28522W        W47376  13.763   6.432   4.186 -0.2672 -0.3953  0.0167
28523W        W47377   0.139   0.075   4.097  0.3193 -0.3798  0.0789
28524W        W47378   3.136   3.073   0.822 -0.1623  0.0949 -0.1469
28525W        W47379   9.258  11.927  13.073  0.1430  0.3009 -0.1671
28526W        W47380  14.272  12.455  16.527 -0.0483 -0.0996  0.2356
28527W        W47381  10.624   7.155  15.587 -0.0736  0.0368 -0.1410
28528W        W47382   9.943  11.042  12.444 -0.0512  0.2014 -0.0609
28529W        W47383  12.885  12.086  12.758  0.2107  0.0800 -0.0827
28530W        W47384   2.413   3.747  17.371  0.0234  0.2233 -0.0442
28531W        W47385   4.890  13.726  15.988 -0.1939 -0.1009 -0.1942
28532W        W47386   9.047  16.544  16.853 -0.0870 -0.1404  0.5913
28533W        W47387   2.007   2.097  14.781  0.0815  0.1967 -0.2131
28534W        W47388  15.748  15.997   1.664 -0.2621  0.1267  0.1788
28535W        W47389  11.214  15.627  13.377 -0.3463  0.0242 -0.2409
28536W        W47390   3.132   2.704  12.713 -0.0303 -0.0877 -0.1662
28537W        W47391   4.123  12.033  13.165 -0.1840 -0.0501  0.1016
28538W        W47392  10.871   1.334   2.867  0.0795  0.2021  0.0398
28539W        W47393  11.498   6.366  14.592  0.1718 -0.2217  0.0505
28540W        W47394   5.498   8.262  14.685  0.0479 -0.0165  0.2153
28541W        W47395   6.037  17.342  15.299  0.1681  0.1574  0.0877
28542W        W47396  16.866   5.469   4.201  0.0097 -0.2892 -0.0116
28543W        W47397   4.580  16.235   3.030  0.1215 -0.0323  0.0979
28544W        W47398   3.834  10.250   3.987 -0.0075 -0.0013 -0.0940
28545W        W47399  12.011   8.924  14.064  0.0539  0.2337 -0.0031
28546W        W47400  11.941  12.573  14.966  0.0382  0.1991  0.0829
28547W        W47401  12.870  14.184   2.665 -0.2836  0.1872  0.0334
28548W        W47402  14.254   3.890   2.883 -0.1837 -0.0427  0.1166
28549W        W47403  16.729   7.639  17.322 -0.0509  0.0706  0.0185
28550W        W47404  12.765   9.349  16.745  0.0917 -0.2891 -0.0765
28551W        W47405   7.757  15.433  17.146  0.2156 -0.0392 -0.0670
28552W        W47406   8.848  17.140   0.669  0.0966  0.0539 -0.0100
28553W        W47407   3.228  10.272   1.350 -0.0996 -0.2433  0.0854
28554W        W47408  16.551   9.753   1.797 -0.1541  0.1790 -0.2125
28555W        W47409  13.580   6.963   4.729  0.2248 -0.0838 -0.0695
28556W        W47410   7.752   9.433   0.408 -0.1777  0.2123  0.0193
28557W        W47411   8.894   0.967  12.746  0.0057  0.0032  0.1421
28558W        W47412  10.784   1.938   3.469 -0.4005  0.1286 -0.0390
28559W        W47413   1.208   7.087  13.122 -0.0297 -0.0611  0.0736
28560W        W47414   1.944   1.429  13.817 -0.1060  0.0202  0.2442
28561W        W47415   6.886  15.687  17.447 -0.0007  0.2168  0.1591
28562W        W47416  15.354   0.069   1.464 -0.1462 -0.1505  0.1090
28563W        W47417  10.634   5.177   2.170  0.0195 -0.2447 -0.0119
28564W        W47418   3.363   7.649   3.861  0.1854  0.3003 -0.0048
28565W        W47419   2.545  10.404  14.160  0.0750  0.0140 -0.2681
28566W        W47420  15.760   2.669   1.535  0.1825  0.3415 -0.1322
28567W        W47421  15.928   6.648   1.694 -0.1099 -0.3894 -0.1665
28568W        W47422   2.524  16.274   1.514 -0.0447 -0.2040 -0.0427
28569W        W47423  15.660  10.028   4.645 -0.4180  0.1060 -0.0410
28570W        W47424   3.763   5.630   0.648  0.2647  0.2246 -0.0029
28571W        W47425  13.898  14.057  13.318 -0.1086 -0.1586  0.1327
28572W        W47426   6.573   7.056   4.669  0.3216  0.3131  0.2455
28573W        W47427  15.863  15.437  14.010  0.2957 -0.5017 -0.1836
28574W        W47428  16.886  15.998   3.860  0.2194  0.1197  0.0563
28575W        W47429   1.605  13.798   4.198  0.2106 -0.0554  0.0387
28576W        W47430   1.967  16.944  12.458 -0.1966  0.1907 -0.2654
28577W        W47431  14.341  15.562  12.462  0.2725 -0.2770 -0.0888
28578W        W47432   8.338   2.490   2.177 -0.0827  0.0640 -0.0453
28579W        W47433   3.448  14.839  16.105  0.1173 -0.0758 -0.0033
28580W        W47434   6.458   1.799  14.309 -0.2628  0.0050 -0.0269
28581W        W47435   9.163  14.163  12.287  0.1266 -0.0681 -0.1343
28582W        W47436   0.295   5.926  17.042 -0.1447 -0.2209  0.3325
28583W        W47437   3.145   9.309  15.371  0.2939 -0.0978 -0.3056
28584W        W47438   9.808   8.759   3.469  0.1285  0.0423 -0.1154
28585W        W47439  14.242   3.002  12.986  0.1243 -0.2772 -0.2499
28586W        W47440   1.143   4.183  15.338 -0.0424  0.0861 -0.1993
28587W        W47441  11.067   9.472   2.482  0.0810  0.2528  0.0200
28588W        W47442   0.324   6.716   1.434 -0.0446 -0.2287  0.1513
28589W        W47443   9.030   4.500  13.845 -0.1206 -0.1365  0.1484
28590W        W47444   3.976  16.765   4.531 -0.1011 -0.1354  0.1235
28591W        W47445  15.677  17.049  14.351 -0.0775 -0.1339  0.0625
28592W        W47446   0.586   0.805  13.455  0.2393 -0.2098  0.0598
28593W        W47447   2.323   0.989   2.483 -0.0228  0.3509 -0.0311
28594W        W47448   9.550  15.703   0.168  0.0723  0.0711 -0.1467
28595W        W47449  12.555   3.896  14.344 -0.1051 -0.2323  0.4133
28596W        W47450   3.241  10.005  12.711  0.0789 -0.2207 -0.0297
28597W        W47451   4.637  17.142  15.373  0.3734 -0.2592 -0.0695
28598W        W47452   7.147   4.795  16.481 -0.1988 -0.1058 -0.0543
28599W        W47453  11.185   7.247   0.827  0.2656 -0.3472  0.0217
28600W        W47454  14.055   2.893   4.278  0.0973  0.2872 -0.0348
28601W        W47455   1.290  16.154  15.216 -0.1509 -0.0021  0.1881
28602W        W47456   6.722  10.005   0.845 -0.1204  0.2241 -0.0079
28603W        W47457   6.677   8.427  16.755 -0.3802 -0.1222  0.2977
28604W        W47458  11.119   2.526  12.516  0.0782  0.0064  0.0176
28605W        W47459  11.502  12.255  14.586  0.1135  0.1175 -0.0527
28606W        W47460  10.582   6.110   3.604  0.0194  0.2910  0.0986
28607W        W47461   6.937  17.084   1.313  0.2838 -0.0121 -0.1867
28608W        W47462   5.453  13.691  15.837  0.1230 -0.0913  0.1994
28609W        W47463  10.485  16.709  16.894  0.0119  0.2294 -0.3198
28610W        W47464  16.869  11.327   0.248 -0.0351 -0.1742  0.2300
28611W        W47465   0.667  11.667  13.235 -0.2157 -0.1092 -0.0506
28612W        W47466  17.384  10.007   2.032 -0.1271  0.1453 -0.2428
28613W        W47467  13.399  16.362   1.775  0.0542 -0.0260 -0.3056
28614W        W47468  16.789  16.557  16.931  0.1112 -0.2388 -0.1841
28615W        W47469  14.506   1.981  12.924 -0.0541  0.0556 -0.0623
28616W        W47470  16.028   8.520   5.625 -0.1065 -0.0810  0.1308
28617W        W47471   5.342  15.100  17.073  0.4131  0.0108 -0.1356
28618W        W47472   1.393  14.386  13.231 -0.1121  0.0884  0.4181
28619W        W47473   0.935   3.505  14.783  0.0529 -0.6155  0.1654
28620W        W47474   8.749  12.579  14.425  0.2993  0.0191 -0.2183
28621W        W47475   1.010   1.863  17.481  0.1334 -0.0600  0.2079
28622W        W47476  10.800   3.849  13.944  0.1758  0.3028 -0.1773
28623W        W47477   8.047  14.575   4.632 -0.1707  0.2324  0.1920
28624W        W47478   8.413   5.371   1.792 -0.1083  0.0266  0.1989
28625W        W47479   1.997  10.676   2.528  0.0394 -0.1753 -0.0180
28626W        W47480  10.067  13.844   2.741 -0.0581 -0.1156  0.2497
28627W        W47481   0.031   1.022  14.096  0.0871  0.3180  0.3941
28628W        W47482   8.598   0.119  15.164  0.1765 -0.2233 -0.0336
28629W        W47483   4.169  11.269   1.124 -0.1569 -0.1873 -0.3309
28630W        W47484  16.665  16.472   2.368 -0.2194  0.0103  0.0828
28631W        W47485  13.233  11.377   3.368  0.0127 -0.0787  0.0220
28632W        W47486  17.388  12.800  12.622  0.0489 -0.1982 -0.0696
28633W        W47487  13.914   4.037   5.725  0.1508 -0.0512 -0.0833
28634W        W47488   1.704  14.723  16.092 -0.1697 -0.1464 -0.2098
28635W        W47489  10.885   0.498   2.395 -0.3536 -0.0089 -0.0092
28636W        W47490   4.668   5.525  17.069 -0.1809 -0.3815 -0.0154
28637W        W47491   9.507  16.585  13.641 -0.1017 -0.3686 -0.0576
28638W        W47492   1.261  11.965  15.998 -0.0517 -0.0580 -0.2504
28639W        W47493   3.632   4.397   1.879  0.1447  0.2993 -0.1039
28640W        W47494   9.575   5.018  14.498 -0.2944 -0.0607 -0.3114
28641W        W47495  14.154  13.955  14.960 -0.0765  0.1167 -0.0383
28642W        W47496   6.890   7.895  13.854  0.1771  0.3372 -0.0240
28643W        W47497   4.545   0.411  12.373 -0.0096 -0.1184 -0.1454
28644W        W47498  16.680  14.143   1.621  0.1233 -0.0260 -0.0672
28645W        W47499   0.561  15.344  13.189 -0.0431 -0.3122  0.0262
28646W        W47500   1.312  14.349   0.891  0.0308 -0.0599  0.0648
28647W        W47501  13.852  13.681  13.609  0.1362 -0.0104 -0.0871
28648W        W47502   0.525   3.484   2.649  0.0009 -0.0489 -0.2103
28649W        W47503   7.190  14.605   1.387 -0.0317  0.1655  0.1562
28650W        W47504  10.915  16.049   0.793 -0.0050  0.0489 -0.2793
28651W        W47505   3.560   3.986  14.632 -0.4179 -0.0977 -0.1980
28652W        W47506   9.605  15.269   1.663  0.4019 -0.1643 -0.2425
28653W        W47507  14.199  17.221   0.874 -0.1372  0.0169 -0.0288
28654W        W47508   2.112   0.679   2.825 -0.2662 -0.0605 -0.1963
28655W        W47509  13.707  10.461  16.443  0.2768  0.0953  0.0651
28656W        W47510   9.403   7.915   0.031 -0.2537 -0.3245 -0.0170
28657W        W47511   4.769  15.734   3.534 -0.0798  0.1601 -0.0317
28658W        W47512   3.645   1.889   0.972 -0.1556 -0.0318  0.0479
28659W        W47513  16.111  10.581   5.768 -0.0528  0.3177 -0.2204
28660W        W47514   6.515  13.566   1.960 -0.0708  0.0850  0.0452
28661W        W47515   1.212  16.527   4.774  0.1264 -0.0322  0.1177
28662W        W47516   6.764  17.172   5.053 -0.0263 -0.1378 -0.0317
28663W        W47517  11.371  15.140   1.342 -0.0289  0.0225 -0.0312
28664W        W47518   4.811   2.678   1.154  0.1437 -0.0790 -0.1239
28665W        W47519   2.497  16.205  16.731 -0.2337 -0.0534 -0.1587
28666W        W47520   2.764   0.689  14.594 -0.0040 -0.2479 -0.0012
28667W        W47521   1.515   6.241  16.485  0.0119 -0.2813  0.1955
28668W        W47522   9.472  12.366   0.042 -0.1373  0.1437 -0.1145
28669W        W47523   3.346  15.767   3.141  0.2217 -0.1465 -0.2606
28670W        W47524  13.257   0.793  16.022  0.1470 -0.1059 -0.1459
28671W        W47525  15.951   1.713  12.597 -0.3012 -0.1058 -0.2678
28672W        W47526  15.924  16.345   3.007  0.0589 -0.2917 -0.0640
28673W        W47527   3.085   7.826   4.734 -0.0488  0.3238  0.3657
28674W        W47528  15.738   1.944   2.454  0.0968 -0.3690 -0.2866
28675W        W47529   8.736   3.049   3.506  0.0927  0.1310 -0.1100
28676W        W47530   0.288   0.114   2.540 -0.0979 -0.1118  0.1570
28677W        W47531  11.513   1.962  15.940  0.1564  0.0259  0.0113
28678W        W47532   8.418   2.395  13.914  0.2155 -0.4236 -0.0534
28679W        W47533   6.699   1.841  16.241  0.0064  0.2766  0.1505
28680W        W47534  17.161  10.389   3.783 -0.1076 -0.4493  0.1622
28681W        W47535   1.339  13.776  16.428  0.0409  0.2679  0.1890
28682W        W47536  10.210  17.087   2.274  0.0849 -0.1756  0.0324
28683W        W47537   8.773  15.646   1.777  0.0022 -0.3414  0.3570
28684W        W47538  10.738  13.960   0.030 -0.1598 -0.0589  0.1716
28685W        W47539   6.343  13.679  12.707  0.3337  0.0900  0.0389
28686W        W47540  15.766   7.237  11.034  0.0669 -0.0177  0.0171
28687W        W47541   6.990   2.596  15.094 -0.0218  0.1036 -0.3697
28688W        W47542  15.357   6.173  14.920 -0.2188 -0.1987 -0.1682
28689W        W47543  14.615  12.881   3.480  0.0368  0.0908  0.1023
28690W        W47544  16.774  14.931  13.103  0.0781 -0.2742 -0.1812
28691W        W47545   0.403   0.909   4.180  0.0416  0.0027 -0.0024
28692W        W47546   6.213  15.372  15.303  0.0221 -0.0273 -0.1514
28693W        W47547   6.072  12.536  17.141  0.0341 -0.0262  0.0797
28694W        W47548   5.583   7.176  14.268 -0.0428 -0.0599  0.0883
28695W        W47549   4.863  12.702  14.644 -0.1103 -0.0875 -0.0996
28696W        W47550   8.242   0.447   1.023 -0.4657 -0.2609  0.0205
28697W        W47551  11.017   8.303  15.134 -0.2531  0.1848  0.7521
28698W        W47552   4.195   9.337  15.582  0.1683 -0.0476 -0.0868
28699W        W47553  11.426  16.326  16.816 -0.2301 -0.0083  0.2319
28700W        W47554   6.539   4.946  13.101  0.1221  0.0953 -0.0129
28701W        W47555  14.941   9.369   3.896 -0.1012 -0.1919  0.1373
28702W        W47556   1.025  17.011   0.287 -0.1112  0.0105  0.1506
28703W        W47557   1.549   2.677   2.097 -0.2275 -0.1689  0.1253
28704W        W47558   2.624   4.200  13.276  0.2011  0.1228 -0.0131
28705W        W47559  15.763  13.081   5.484  0.0870  0.1689  0.3275
28706W        W47560   7.612   9.027   1.070  0.3795  0.0532  0.0869
28707W        W47561  13.667  11.288   1.328  0.1905 -0.0581  0.2749
28708W        W47562   0.113  11.362   0.291  0.1631 -0.2996 -0.0305
28709W        W47563   7.358  11.455   3.955  0.1170  0.1033 -0.0456
28710W        W47564   5.995  14.451   1.922 -0.0310 -0.0105  0.0385
28711W        W47565   8.152  10.012  15.363 -0.1872  0.0972  0.2584
28712W        W47566   6.103   5.813  17.207 -0.1449 -0.0398 -0.0664
28713W        W47567   6.383  16.278   4.554  0.2110  0.2692  0.0166
28714W        W47568  10.557   4.582   1.997 -0.1936  0.2335  0.0819
28715W        W47569   8.246   2.302   1.728  0.0663  0.0950 -0.3659
28716W        W47570   9.334  17.229  16.953 -0.3830  0.0187 -0.1756
28717W        W47571   8.631   9.382   2.231 -0.0695  0.3072  0.0517
28718W        W47572   8.317  14.958   1.865  0.2344 -0.1977 -0.3570
28719W        W47573  13.534   0.996   4.496  0.1107 -0.2351 -0.1150
28720W        W47574  15.637  15.619  13.382  0.1157  0.1152  0.1528
28721W        W47575  13.367   7.610  13.682  0.0662  0.1040 -0.1407
28722W        W47576  12.468   8.283  16.046 -0.0142 -0.1580  0.1132
28723W        W47577   5.932   6.312   0.388 -0.1977  0.0420 -0.2088
28724W        W47578   9.208   9.763   1.412 -0.3681  0.2144  0.1303
28725W        W47579   5.720   4.342  16.082  0.1297  0.1258  0.3601
28726W        W47580   6.804   6.943   2.689  0.2770  0.2648  0.3165
28727W        W47581   1.085   8.834  13.718 -0.2749 -0.0412  0.0741
28728W        W47582   1.444  17.124  16.124  0.0250 -0.0185  0.1652
28729W        W47583   5.970   7.825   2.959 -0.1653  0.2995 -0.3537
28730W        W47584  14.966  10.875   0.276 -0.0019 -0.2713 -0.2069
28731W        W47585  13.666   4.861  11.588  0.0015  0.1030  0.0637
28732W        W47586  14.612   1.857   2.944 -0.0603  0.1421  0.0106
28733W        W47587   1.966   0.736   5.189  0.1207  0.3415  0.1067
28734W        W47588   6.826  12.496   4.354  0.0276  0.0108  0.0350
28735W        W47589   8.642   7.132   0.260  0.1145 -0.1401 -0.1162
28736W        W47590   5.077  14.885  15.539  0.0582  0.0284  0.1110
28737W        W47591   2.682   3.333   0.655  0.2042  0.0692 -0.0194
28738W        W47592   3.545   4.812  12.671 -0.1298 -0.0528  0.3075
28739W        W47593  11.831   1.700   0.378  0.2822  0.2418  0.0551
28740W        W47594   9.259   7.803   1.132 -0.1466  0.0413 -0.1596
28741W        W47595   3.822  11.631   3.681 -0.0607  0.3712 -0.1201
28742W        W47596  12.146   0.549  15.954 -0.0144  0.0274 -0.0284
28743W        W47597   3.622   3.151  16.640  0.0088 -0.1895 -0.1262
28744W        W47598  16.465   8.149  16.261  0.0240  0.5960  0.0356
28745W        W47599   2.608   0.850   0.632 -0.1592 -0.0254  0.2205
28746W        W47600  11.832   7.919  16.589  0.1742 -0.0878  0.3337
28747W        W47601   5.522  13.886  14.127 -0.0070  0.3274  0.1715
28748W        W47602   0.924   5.649   3.865 -0.0724 -0.0688 -0.1316
28749W        W47603  11.026   5.288  17.141 -0.1603 -0.0639 -0.0652
28750W        W47604  17.060   0.543   1.951  0.2508  0.0702 -0.3469
28751W        W47605   9.607  15.658  14.194  0.0244  0.0411  0.3021
28752W        W47606   5.193   8.754  17.479 -0.0668  0.1003 -0.1718
28753W        W47607   8.084  15.118  13.039 -0.3542  0.0088 -0.3896
28754W        W47608   6.234  17.369   1.846  0.0619  0.3249  0.4211
28755W        W47609   1.834   9.463  13.644 -0.3204 -0.2987 -0.0815
28756W        W47610   3.754   4.057   3.733  0.1078  0.1629  0.0238
28757W        W47611  11.893   3.409   2.536 -0.0785  0.1979 -0.2320
28758W        W47612   7.288   5.134  16.015 -0.1431  0.0370 -0.0895
28759W        W47613   8.410   8.425  12.660 -0.1111 -0.1636 -0.3805
28760W        W47614   3.613   6.400   4.785  0.2297 -0.0624 -0.2243
28761W        W47615  11.693   5.298   1.798 -0.1396  0.3214 -0.4181
28762W        W47616   2.260   5.349   4.111  0.2543  0.2335 -0.0089
28763W        W47617   8.674  13.552  14.459 -0.1512 -0.0921  0.0660
28764W        W47618   6.867   7.418  14.021  0.0900  0.0124 -0.0027
28765W        W47619  14.401  12.671  14.918  0.0511  0.0920  0.2759
28766W        W47620  16.856   9.099   2.960  0.1457  0.2265  0.0703
28767W        W47621  10.042  16.609   2.274  0.0984  0.3663  0.0120
28768W        W47622  12.864  16.652  15.566  0.0118  0.1059  0.0293
28769W        W47623  15.448   5.762  13.519 -0.0611  0.3656  0.1290
28770W        W47624  12.110  11.112   1.749 -0.1065 -0.2517 -0.1155
28771W        W47625   3.894  11.111   4.988 -0.1731 -0.1350 -0.0391
28772W        W47626  13.727   3.354   1.013 -0.0302  0.0390  0.1050
28773W        W47627   1.644  11.835  17.451 -0.2855  0.1093 -0.3298
28774W        W47628  17.308   6.292  14.275  0.0276 -0.3708  0.1909
28775W        W47629   1.762   8.642   0.923  0.2088  0.2112  0.0906
28776W        W47630  10.640   4.355   3.775 -0.2761  0.1562 -0.1411
28777W        W47631   4.849   3.547  13.609  0.0746  0.2219 -0.1276
28778W        W47632   1.179  11.736  17.247  0.0913 -0.0661  0.0773
28779W        W47633  13.213   7.887  16.387  0.3628 -0.1143 -0.2416
28780W        W47634   9.539   2.276   5.631  0.0441 -0.1274 -0.1040
28781W        W47635   6.185  13.587   1.560  0.2685  0.0636  0.0667
28782W        W47636   8.700   3.055   3.002 -0.2225  0.2831 -0.2757
28783W        W47637   3.132  14.935  13.770 -0.1118  0.1399  0.0619
28784W        W47638  13.774  16.979   3.483  0.0867  0.1312 -0.0825
28785W        W47639   9.772   8.188  17.124 -0.2328 -0.0992 -0.0541
28786W        W47640   9.793  11.353  17.468  0.1402 -0.2214 -0.0243
28787W        W47641   1.660  11.146   5.364 -0.0996  0.2470 -0.0259
28788W        W47642   4.257   6.112  12.898  0.1864 -0.1318  0.0001
28789W        W47643   6.950   9.565   0.659  0.0288  0.1114 -0.2356
28790W        W47644   0.567  14.905  16.799  0.0908 -0.0532 -0.0385
28791W        W47645   2.698  13.046   4.095  0.1687 -0.0970  0.2978
28792W        W47646   1.215  16.100   3.217  0.1795  0.0971  0.1030
28793W        W47647  11.669  12.633   2.076  0.1347 -0.0138  0.1132
28794W        W47648   3.627  17.191   2.864 -0.0925 -0.1590  0.0630
28795W        W47649   0.576  11.646   0.453  0.1119 -0.0197 -0.1122
28796W        W47650   5.767   9.097   0.484  0.0716  0.2022  0.1220
28797W        W47651   5.282  13.936  15.302 -0.1218  0.2907  0.0502
28798W        W47652   4.360   9.035   3.493  0.0004  0.0394  0.0757
28799W        W47653  10.585   7.046   0.710 -0.0384  0.0957  0.0319
28800W        W47654   8.722  14.140   1.662 -0.0173  0.1006 -0.1286
28801W        W47655   5.456  15.416   0.978 -0.1101  0.2724 -0.1150
28802W        W47656   4.505   0.646  17.343  0.1722 -0.2126  0.0925
28803W        W47657  12.287   3.474  14.442  0.0520  0.2146 -0.1870
28804W        W47658   0.494   2.946   1.100 -0.0081 -0.0705 -0.1369
28805W        W47659   3.138   9.037  14.639  0.5170 -0.0869 -0.1458
28806W        W47660  13.983  10.731   0.045  0.1187  0.0570 -0.1614
28807W        W47661   4.925   0.917   0.263  0.1222 -0.0757  0.0826
28808W        W47662   5.463   2.775   2.933 -0.3233  0.4956 -0.0474
28809W        W47663  17.057  12.660   2.412 -0.0302 -0.2807 -0.2118
28810W        W47664   0.583   9.970   4.016  0.2982 -0.0117  0.2470
28811W        W47665   9.419  10.624   3.305  0.0191 -0.0971  0.2258
28812W        W47666  12.480  11.735  13.527 -0.0445  0.0570  0.1272
28813W        W47667   0.115   0.547   4.686  0.1007  0.0540  0.3060
28814W        W47668   1.261   8.274   0.898 -0.0329 -0.1235 -0.4711
28815W        W47669  11.037   4.614   3.983 -0.0190 -0.1585 -0.0471
28816W        W47670  12.388  14.220   2.713 -0.0488  0.1152 -0.1223
28817W        W47671  13.127   9.465  16.366  0.3165 -0.2291 -0.2883
28818W        W47672   7.972   8.962   3.592  0.1459 -0.0385 -0.0015
28819W        W47673   1.522  16.861  17.265  0.1108  0.0911  0.1015
28820W        W47674   4.516   6.336  12.247 -0.2147  0.1203 -0.2757
28821W        W47675  11.963   0.464   1.335  0.2642  0.1237 -0.1783
28822W        W47676   9.272   0.505   0.108  0.0011 -0.0279  0.1461
28823W        W47677   1.284   8.356  13.698 -0.3122 -0.3244  0.1758
28824W        W47678  11.107  10.591   0.998  0.0121  0.1782  0.1098
28825W        W47679  13.932  14.535   5.414  0.4527  0.0222 -0.2100
28826W        W47680   0.178   1.012  13.173 -0.0413  0.1272  0.3919
28827W        W47681  13.691   3.072  15.248 -0.1937 -0.2266 -0.4249
28828W        W47682   8.281   3.130   3.365 -0.1187 -0.0716 -0.1166
28829W        W47683   4.943   1.400   0.597  0.4023  0.0544  0.1097
28830W        W47684  11.038  16.647  15.617 -0.1718 -0.1742 -0.2018
28831W        W47685   4.248  13.995  14.235  0.0392 -0.1927  0.1278
28832W        W47686   3.932  15.727   0.977  0.3032  0.1563 -0.2687
28833W        W47687  13.461   8.757   4.481  0.2186 -0.0647  0.1239
28834W        W47688  17.197  15.992  12.478  0.0804  0.0485 -0.0152
28835W        W47689   2.138  10.535  12.888  0.0808  0.3858  0.1571
28836W        W47690  13.790  10.957  16.721  0.2819 -0.1623 -0.0778
28837W        W47691   4.695   6.197   2.858  0.3057  0.0844  0.1569
28838W        W47692   4.389  13.387   3.374  0.0966  0.0576 -0.3525
28839W        W47693  16.882   9.517  13.751  0.2183 -0.1949 -0.1539
28840W        W47694   6.395  12.257  15.453  0.3101 -0.0528 -0.0906
28841W        W47695   8.554  11.631   1.627  0.0105  0.4171  0.0964
28842W        W47696   1.481   6.704  12.906  0.1386 -0.1387  0.2788
28843W        W47697  12.028   9.680  14.037 -0.0656  0.0015  0.2045
28844W        W47698   4.390   1.283  13.366  0.0940  0.2798  0.2952
28845W        W47699   9.586   9.897  17.145 -0.0507  0.2468 -0.1745
28846W        W47700   6.996  16.898  13.345  0.0281  0.2442  0.3557
28847W        W47701  12.708  11.321  13.372  0.0406  0.0604  0.0647
28848W        W47702   8.103  16.731   0.396  0.1913  0.1894 -0.1595
28849W        W47703  12.725  14.069   5.223 -0.2553 -0.0635 -0.0833
28850W        W47704  17.074  15.782  14.103 -0.0216  0.0752 -0.4042
28851W        W47705  17.082   4.445  17.240 -0.1857  0.1792  0.1229
28852W        W47706  11.194   3.607   1.750 -0.0226 -0.2038 -0.0485
28853W        W47707   0.564   1.874   2.113 -0.2621  0.0847  0.0423
28854W        W47708   8.297  10.997  15.627  0.0731  0.1489 -0.1385
28855W        W47709  11.281  14.203  14.709 -0.2141  0.0599  0.1663
28856W        W47710  11.321   0.486  16.766 -0.2981  0.0830 -0.0999
28857W        W47711   0.979   4.263   4.842 -0.2908  0.0524 -0.2560
28858W        W47712   9.157   8.104  17.031 -0.3724 -0.0457  0.1502
28859W        W47713   1.064  14.387  14.175  0.0076 -0.2160 -0.0092
28860W        W47714  13.401  10.868   2.122 -0.0957 -0.0189  0.0409
28861W        W47715   0.451  14.105   1.507  0.1410 -0.2694  0.1379
28862W        W47716   5.769   0.205   0.128  0.0839  0.0036 -0.0760
28863W        W47717   6.757   9.381  15.393  0.0252 -0.3347  0.1064
28864W        W47718  15.217  10.922   2.177 -0.3773 -0.1862  0.1878
28865W        W47719  13.870   1.215  14.504 -0.1321  0.0857  0.1601
28866W        W47720  11.291   0.526  12.579  0.1106  0.1601  0.2749
28867W        W47721   8.721  13.926  14.138 -0.3237  0.2527 -0.3070
28868W        W47722   0.443   5.060  16.801 -0.0594  0.1193 -0.2888
28869W        W47723  16.668  10.089  15.055 -0.3030 -0.0053  0.3585
28870W        W47724  10.868  11.424  12.468 -0.4308 -0.1286  0.1882
28871W        W47725  11.416  10.516  15.658  0.0518  0.1371  0.1696
28872W        W47726  10.168   5.699  15.942  0.2869 -0.2661 -0.1131
28873W        W47727   6.148   7.479  16.176 -0.0710  0.0499 -0.0591
28874W        W47728   6.990  11.138  15.807 -0.0433  0.0790  0.1519
28875W        W47729   1.743   6.538  14.213  0.1649 -0.1714  0.2791
28876W        W47730  12.629  17.085  12.282  0.0368 -0.2596 -0.0863
28877W        W47731   6.228  14.192   0.420  0.0731 -0.0686 -0.1943
28878W        W47732  13.231   3.173   0.091 -0.1120  0.1051 -0.1088
28879W        W47733   0.800   1.303   4.547 -0.0877 -0.0271 -0.2069
28880W        W47734   0.720   0.983  14.849 -0.2153 -0.1910 -0.1831
28881W        W47735  14.094   2.621   4.769  0.0091  0.0590 -0.1598
28882W        W47736  16.257   1.262  15.010  0.0087  0.1039 -0.3117
28883W        W47737   4.688   4.796   0.351  0.0553 -0.4419  0.2088
28884W        W47738   8.566   6.485  13.920  0.0399 -0.0225  0.2335
28885W        W47739  11.764  16.060  13.934 -0.0248  0.1884  0.1829
28886W        W47740  15.838   7.612  14.767 -0.0854  0.0443 -0.0343
28887W        W47741   9.924  10.589   3.397 -0.0822  0.2531 -0.0916
28888W        W47742  14.271  14.517  17.063  0.1758  0.0636  0.2174
28889W        W47743   7.607   4.415   1.327  0.0874 -0.0946 -0.0443
28890W        W47744   4.990   8.117  15.363  0.1462 -0.1866 -0.0443
28891W        W47745  13.451  14.399  17.465 -0.0416  0.0572 -0.3693
28892W        W47746  10.567   3.646   0.481 -0.0903  0.0091  0.1443
28893W        W47747   4.511  13.360  11.406 -0.0255  0.0873  0.0731
28894W        W47748  12.114   3.316  17.383 -0.3395 -0.0578  0.0684
28895W        W47749  16.647   8.897  14.752 -0.1724 -0.0745  0.3155
28896W        W47750   5.392   7.398   0.063  0.0206 -0.3438 -0.2178
28897W        W47751  14.174  14.253   4.230  0.1486 -0.4260  0.0205
28898W        W47752  13.626  11.180   3.095  0.1868  0.2844 -0.0154
28899W        W47753   2.798   4.560  13.693  0.0404  0.1231 -0.0593
28900W        W47754   6.447   7.933   1.053  0.0413  0.2867  0.3426
28901W        W47755  16.898  13.120   2.509 -0.1220 -0.1391  0.2040
28902W        W47756   1.073   7.251   5.409  0.3200  0.1909  0.0298
28903W        W47757   9.661   5.867   1.636 -0.0201 -0.2035  0.0207
28904W        W47758  11.485  14.182  15.342  0.1122 -0.2194 -0.4084
28905W        W47759  13.029  11.534  13.724  0.2146 -0.2007  0.2351
28906W        W47760   8.088  11.101   0.056 -0.1492  0.1831  0.0549
28907W        W47761   0.888   9.374   2.729 -0.2214 -0.3261  0.0452
28908W        W47762  16.650  16.798   4.664  0.0748  0.1200 -0.0181
28909W        W47763   6.829   7.471   0.313 -0.0346  0.2855 -0.4495
28910W        W47764  13.727   8.200   3.886 -0.0774  0.0534 -0.3279
28911W        W47765   8.461   9.835   0.148 -0.1177 -0.3587  0.1869
28912W        W47766  13.998   9.684  16.864 -0.2813  0.0180 -0.1726
28913W        W47767  16.317   4.807   0.380  0.1098  0.1430  0.1030
28914W        W47768  13.840   9.703   5.099  0.1707 -0.1910 -0.0460
28915W        W47769   6.265   5.628   1.591  0.1510  0.0395 -0.0365
28916W        W47770   1.829   6.505   3.551  0.1457 -0.2092  0.3073
28917W        W47771   6.063  10.325  15.442 -0.1774  0.2456 -0.0029
28918W        W47772  10.651   9.603  13.359 -0.1270 -0.1993  0.0268
28919W        W47773  11.563   1.688   0.920 -0.1834 -0.0686  0.0815
28920W        W47774  11.358   8.081  16.627  0.2550  0.2276  0.1340
28921W        W47775   9.064  15.129  12.784  0.2329 -0.1693  0.0308
28922W        W47776  16.665   3.686   0.724  0.1056 -0.1636 -0.0581
28923W        W47777  12.231   8.796   4.993  0.3569  0.1806 -0.0428
28924W        W47778  10.170   0.788   0.127  0.0645 -0.0161 -0.0585
28925W        W47779  17.268  13.829  16.458 -0.0475  0.1274  0.0981
28926W        W47780  14.929   9.113   5.527 -0.0161  0.0438  0.1008
28927W        W47781  13.614   0.791  17.354 -0.1064 -0.2304  0.2455
28928W        W47782   4.403  14.443  14.523 -0.4248 -0.0391  0.1570
28929W        W47783  15.643  11.018  15.029  0.3918  0.0152  0.1861
28930W        W47784  12.030   9.097  12.664  0.2073  0.2976 -0.0940
28931W        W47785   8.370   6.812  12.118 -0.1102  0.1606 -0.1490
28932W        W47786   2.417   5.413  14.586 -0.3786 -0.0149  0.0259
28933W        W47787   2.067  11.660  17.346  0.0262 -0.3700  0.1246
28934W        W47788   9.138  11.151  16.325 -0.2846  0.3105 -0.0401
28935W        W47789   1.976  10.326   3.762 -0.1352  0.0137  0.3131
28936W        W47790   8.620   2.934  17.380 -0.0860  0.1071 -0.2547
28937W        W47791  15.866   8.312  13.927 -0.2581  0.1355  0.1578
28938W        W47792   1.537  15.992  14.748 -0.0433  0.1089 -0.0643
28939W        W47793   4.612  13.133  16.849 -0.0750  0.0239 -0.0607
28940W        W47794   4.241  16.559   2.904  0.1447 -0.1866 -0.3372
28941W        W47795   7.586  16.123  17.143  0.1500 -0.2172 -0.0935
28942W        W47796   3.550   8.098  15.375  0.1528 -0.0560 -0.0049
28943W        W47797   3.655  10.541  17.010 -0.0889 -0.2000  0.1537
28944W        W47798  13.104  14.420   4.008  0.3133 -0.0823  0.5417
28945W        W47799  11.748  13.978   1.643  0.0409 -0.2375  0.2147
28946W        W47800  10.706  17.014  15.884  0.0218 -0.1524  0.3302
28947W        W47801   1.493  12.840   3.283 -0.0970  0.1855  0.0325
28948W        W47802   0.989  11.681  13.791 -0.1426  0.3510 -0.1451
28949W        W47803   8.405   4.568  14.734 -0.1662  0.1909  0.1894
28950W        W47804   2.397   9.910  12.277  0.1041 -0.1804 -0.1468
28951W        W47805  11.532   6.143  12.034 -0.0138  0.1369  0.3144
28952W        W47806  13.372  16.881  17.099 -0.3579 -0.1584 -0.0631
28953W        W47807  11.423   5.470   5.154 -0.1494 -0.2657  0.0486
28954ION     NA47808   9.085   6.757   5.317  0.3714 -0.0539 -0.3364
28955ION     NA47809   1.794   8.248   5.823 -0.2868 -0.2232  0.0665
28956ION     NA47810  14.168   4.519  15.923 -0.0644 -0.0468 -0.1159
28957ION     NA47811   3.705  11.499   6.155 -0.1973 -0.0607  0.2406
28958ION     NA47812   7.261  14.956   6.243  0.2207  0.0095  0.0781
28959ION     NA47813   4.751  14.403   0.105 -0.1419 -0.1107  0.2351
28960ION     NA47814  10.054   4.775  11.378 -0.1713  0.1937 -0.2811
28961ION     NA47815  13.607   5.386   5.628 -0.1378 -0.0104  0.1613
28962ION     NA47816  14.011   0.498  11.814 -0.2045  0.1794  0.1711
28963ION     NA47817  12.907   0.395   6.132 -0.3076 -0.3787  0.0464
28964ION     NA47818  17.097  13.641  13.652 -0.2981  0.1351 -0.0355
28965ION     NA47819   6.067   1.731  11.453 -0.0212 -0.2367  0.3129
28966ION     NA47820   4.756  11.191  11.388 -0.0641 -0.2703 -0.1933
28967ION     NA47821   7.590   4.136  11.424  0.0140 -0.1973  0.1533
28968ION     NA47822  13.276   3.775   6.046  0.0676  0.1166 -0.1191
28969ION     NA47823  12.388  14.073  11.643  0.1610  0.0768 -0.1711
28970ION     NA47824   4.140  12.347   5.793 -0.2353  0.1297 -0.0345
28971ION     NA47825   2.520   5.323   3.664  0.0585 -0.1587  0.2499
28972ION     NA47826   1.477  13.933  11.560 -0.3177 -0.0356  0.1166
28973ION     NA47827  12.789  11.593   6.212  0.1343 -0.2033  0.0355
28974ION     NA47828   6.107   2.931   6.109 -0.1055  0.3109  0.1897
28975ION     NA47829  13.749  17.338   6.059 -0.0920 -0.0225 -0.3634
28976ION     NA47830  11.295   7.051  13.470 -0.3418 -0.0151 -0.3331
28977ION     NA47831  12.761   2.362   3.250  0.1310 -0.1360  0.1008
28978ION     NA47832   3.751   1.028   6.174 -0.1620  0.1047 -0.1147
28979ION     NA47833   3.343  12.071  11.523 -0.2871 -0.1874  0.0740
28980ION     NA47834  12.053  17.336  11.218 -0.1639  0.1396 -0.5144
28981ION     NA47835  17.045  10.305  12.540 -0.0801  0.1815  0.0718
28982ION     NA47836  10.872  13.234  11.451  0.2077 -0.0046  0.0908
28983ION     NA47837   4.859  11.722  11.659  0.3320 -0.0206 -0.0589
28984ION     NA47838   1.537  10.526  11.517  0.0759  0.0080  0.0021
28985ION     NA47839   0.722   8.710  11.362  0.1250  0.0715 -0.2041
28986ION     NA47840   2.480  13.693   6.366  0.0099  0.2219  0.1079
28987ION     NA47841   2.337   4.615  11.345  0.1997  0.1407  0.2287
28988ION     NA47842  13.447  15.500  11.493  0.0468  0.2056 -0.1348
28989ION     NA47843   4.089   5.738  14.823  0.2778  0.0388 -0.0064
28990ION     NA47844   6.189  15.069   6.204 -0.0645 -0.4702  0.2949
28991ION     NA47845  14.094   3.635   5.907  0.0212  0.1687  0.1441
28992ION     NA47846  11.978   7.822  15.644 -0.0042 -0.2420  0.0142
28993ION     NA47847   6.969  11.031   6.067  0.1185 -0.0749 -0.1655
28994ION     NA47848   7.901   8.877  11.336  0.0236  0.0035  0.1318
28995ION     NA47849  16.689   9.904   6.058  0.4438 -0.3388  0.4322
28996ION     NA47850   6.483  15.297  12.267 -0.0649 -0.0199 -0.0028
28997ION     NA47851  14.023   6.438  15.797  0.0412  0.0229  0.1747
28998ION     NA47852   6.764   0.634  11.500  0.3124  0.1462 -0.1144
28999ION     NA47853   4.176   3.301   1.527  0.2222 -0.3023  0.1173
29000ION     NA47854   1.699  13.580   6.159 -0.0408  0.0272  0.0893
29001ION     NA47855   6.063  16.436   6.163  0.0845  0.1933  0.1035
29002ION     NA47856   7.943   1.700  12.337  0.1064  0.3405  0.0288
29003ION     NA47857  14.763   5.102   6.060 -0.0089  0.0731 -0.0957
29004ION     NA47858   6.720  10.848   0.401 -0.0266 -0.3111 -0.0179
29005ION     NA47859   2.672  15.344   6.159 -0.1004  0.1692 -0.1448
29006ION     NA47860   1.480  12.157  12.221  0.1614  0.1207 -0.1702
29007ION     NA47861  13.871   8.212  11.361 -0.1136 -0.1567 -0.0200
29008ION     NA47862  15.403  13.779  15.667 -0.5448  0.3305  0.1098
29009ION     NA47863  16.064  16.149  11.585  0.0602 -0.1021 -0.1196
29010ION     NA47864  15.631  13.924  11.659 -0.1589  0.2069 -0.0747
29011ION     NA47865   0.931  15.048  15.778 -0.1272 -0.2749  0.3003
29012ION     NA47866  12.427  15.107   5.984  0.2446 -0.1269  0.1775
29013ION     NA47867   4.564  12.779  11.614  0.1459 -0.0822 -0.1732
29014ION     NA47868  14.975   8.240   6.046 -0.2195 -0.0859 -0.1153
29015ION     NA47869   7.528  13.341   5.569  0.0116 -0.1796  0.2152
29016ION     NA47870   7.433   4.981  11.447 -0.0422  0.0077 -0.0322
29017ION     NA47871   3.600   5.070   5.387  0.0103 -0.0691  0.1366
29018ION     NA47872   6.788  13.446   6.321  0.0337  0.0501 -0.0805
29019ION     NA47873  13.974   5.932  11.566  0.1627 -0.1677 -0.0262
29020ION     NA47874   2.140  11.827   6.426  0.2076 -0.1338  0.0233
29021ION     NA47875  12.781   1.936  12.121 -0.1323 -0.0534  0.0202
29022ION     NA47876   4.630   7.791   0.311 -0.2794 -0.3291 -0.0739
29023ION     NA47877   0.903  13.207   6.306  0.2837  0.4383  0.0556
29024ION     NA47878   3.263   2.757   6.221 -0.0602  0.2391 -0.1426
29025ION     NA47879  10.408   1.973   5.852 -0.1296 -0.3734 -0.1852
29026ION     NA47880   1.210   3.431   5.565 -0.0445 -0.3734  0.1126
29027ION     NA47881   0.870   7.149   5.969  0.2987  0.0073  0.1761
29028ION     NA47882   1.244   9.537  11.347  0.1995 -0.3238  0.2999
29029ION     NA47883   4.796   4.151   6.096 -0.0469 -0.1774 -0.1458
29030ION     NA47884   5.862   8.407  11.580 -0.1979  0.0405  0.2182
29031ION     NA47885  13.283   7.577  12.193  0.0595 -0.0783 -0.1568
29032ION     NA47886   7.008  12.847  17.013  0.1243 -0.1886 -0.0397
29033ION     NA47887  16.615   9.282  11.411  0.0162  0.1422 -0.2662
29034ION     NA47888  16.251   0.936   6.262  0.0684  0.1130  0.0075
29035ION     NA47889   0.710   3.749  11.492 -0.1507  0.0103  0.3843
29036ION     NA47890  15.641   6.749  11.146 -0.1960  0.0322  0.1433
29037ION     NA47891   1.467   0.586   5.969 -0.0889  0.0807  0.0992
29038ION     NA47892   2.602   0.675  11.531 -0.4299 -0.0951  0.3282
29039ION     NA47893   3.683  12.970   4.647 -0.1208  0.2650  0.1582
29040ION     NA47894   4.195  14.184  16.443 -0.0377 -0.1341 -0.2120
29041ION     NA47895   9.348   8.095   6.008 -0.3209  0.2202 -0.1476
29042ION     NA47896  12.990   8.417  14.847 -0.1078 -0.1895  0.1586
29043ION     NA47897   0.737  10.215  14.876  0.1780  0.0600 -0.0540
29044ION     NA47898   0.066   6.753   6.112  0.0264  0.1235 -0.3947
29045ION     NA47899  10.033  14.902  11.498 -0.0446 -0.1445 -0.2129
29046ION     NA47900  11.378  16.976   4.432  0.3989  0.0316  0.1488
29047ION     NA47901   1.552   2.015   2.531  0.0168  0.0048 -0.1285
29048ION     NA47902   1.733  14.566   6.344  0.0561 -0.0312  0.2591
29049ION     NA47903   1.955   5.083   5.891  0.0172 -0.0466  0.1017
29050ION     NA47904   0.082   0.134   3.515  0.2755 -0.1616  0.2658
29051ION     NA47905  11.964  12.124   6.009 -0.1758  0.0213  0.2803
29052ION     NA47906   6.882   9.649  12.867 -0.0630 -0.0037 -0.1521
29053ION     NA47907  12.142   8.244   6.207 -0.1928  0.1313  0.0811
29054ION     NA47908   3.730  10.599   6.195 -0.1513  0.0267  0.0674
29055ION     NA47909  10.777  14.127   6.078  0.1900  0.4629 -0.0074
29056ION     NA47910  12.259   7.249   6.056 -0.3273 -0.0739  0.2394
29057ION     NA47911   4.908   0.269  11.359 -0.0420 -0.0471  0.0417
29058ION     NA47912   9.344  16.090   6.182 -0.0232 -0.1497  0.0881
29059ION     NA47913   6.189  14.124   6.303 -0.0819  0.1596  0.0203
29060ION     NA47914  16.702  16.757  11.806 -0.1309  0.0091  0.1984
29061ION     NA47915  15.203  11.695  13.051 -0.0059 -0.0549 -0.2438
29062ION     NA47916   1.211   7.290  11.396 -0.0381 -0.3604  0.0367
29063ION     NA47917   7.903   0.895  11.406 -0.2504 -0.0499 -0.0884
29064ION     NA47918  13.670  15.717   6.260 -0.1572 -0.1436  0.0754
29065ION     NA47919  12.748  11.680  12.531 -0.1349 -0.3132  0.0547
29066ION     NA47920  10.060   6.607  11.379  0.3571  0.0087  0.2862
29067ION     NA47921   7.495  10.444  11.686  0.0172 -0.1929  0.0672
29068ION     NA47922  13.557   2.237  11.581  0.5396 -0.2127  0.1560
29069ION     NA47923  13.210   6.544   0.868  0.2334 -0.0457 -0.0425
29070ION     NA47924   6.382  12.121  11.498 -0.1075 -0.1110 -0.1123
29071ION     NA47925   3.706   4.291  11.428  0.1757  0.0803 -0.0011
29072ION     NA47926  15.942   6.456   6.141 -0.3383  0.1075 -0.1075
29073ION     NA47927   7.582  14.019  11.394 -0.1701 -0.0473 -0.1171
29074ION     NA47928   4.713  17.072  13.234  0.0141  0.3275  0.0317
29075ION     NA47929   9.700   9.601   5.730 -0.1428 -0.3804  0.0818
29076ION     NA47930  10.691   4.118  11.191 -0.2954 -0.0006 -0.0695
29077ION     NA47931  13.370  16.194   5.034 -0.2570 -0.2588 -0.1897
29078ION     NA47932   8.984   1.521   5.860  0.1333 -0.1134 -0.1610
29079ION     NA47933  16.510   1.319  11.732 -0.2779  0.2387 -0.2392
29080ION     NA47934   1.900  15.378   5.815 -0.1961  0.0519  0.0173
29081ION     NA47935  13.215   5.688   6.197 -0.0380 -0.1769 -0.3277
29082ION     NA47936  13.763   7.643  12.630  0.0637 -0.3360  0.0368
29083ION     NA47937  13.965   5.312   5.925 -0.0346  0.0719  0.0475
29084ION     NA47938  12.252   4.929  11.508 -0.1163  0.1210 -0.1022
29085ION     NA47939   3.136   7.235   2.842  0.0739  0.2133  0.0457
29086ION     NA47940   7.650  11.704   5.918 -0.2048 -0.0939 -0.2110
29087ION     NA47941  12.108   1.659  11.555  0.0617 -0.1800 -0.0726
29088ION     NA47942  13.531   1.778   6.174 -0.2475  0.3366 -0.1046
29089ION     NA47943  14.043  10.112  11.425 -0.3273  0.0787 -0.0872
29090ION     NA47944   7.936   1.799  11.360  0.1399  0.3075  0.1852
29091ION     NA47945   5.469   2.372   5.039  0.1893 -0.2646  0.2286
29092ION     NA47946   5.389   5.216  11.394 -0.2087 -0.1347 -0.0119
29093ION     NA47947   8.848   6.706  12.076 -0.0566  0.0539 -0.0980
29094ION     NA47948  14.796  13.559   6.502  0.0275 -0.0436  0.1259
29095ION     NA47949   8.218  15.004   6.159  0.2055  0.1456 -0.1461
29096ION     NA47950   9.093   6.490   4.189 -0.2512  0.0969  0.0086
29097ION     NA47951   5.389  11.754   5.974 -0.2789 -0.2007  0.0380
29098ION     NA47952  10.355   6.001  11.507 -0.1948 -0.0391 -0.0123
29099ION     NA47953   3.485   0.660  11.600 -0.0393 -0.2937  0.0800
29100ION     NA47954  13.292   3.118  11.313 -0.0131 -0.0819  0.0579
29101ION     NA47955   4.078  13.003   3.576 -0.0067 -0.0299 -0.4134
29102ION     NA47956   5.808  16.946   2.668  0.2619 -0.3769 -0.0042
29103ION     NA47957   3.472  13.861   6.239 -0.3413 -0.2816 -0.0086
29104ION     NA47958  10.566  17.067  13.617  0.0069  0.0266 -0.2952
29105ION     NA47959   2.515  13.734  15.819 -0.2585  0.0238  0.2437
29106ION     NA47960  13.188   9.191  11.522  0.2788 -0.0982 -0.1228
29107ION     NA47961  15.933   5.438   5.061 -0.0825  0.0536 -0.4409
29108ION     NA47962  12.080   4.601   5.186 -0.0685 -0.1543 -0.0673
29109ION     NA47963  13.144   6.219  11.433 -0.1561  0.0240  0.0048
29110ION     NA47964  14.000  17.219   5.653 -0.2107 -0.0817  0.1174
29111ION     NA47965   1.767  13.757   3.726  0.0265  0.1048 -0.0810
29112ION     NA47966   9.340   8.139  16.221  0.1552  0.0231 -0.2589
29113ION     NA47967   9.093   2.187  12.327 -0.2818 -0.0994  0.0207
29114ION     NA47968  14.963   4.301  14.766  0.2435  0.2088  0.0481
29115ION     NA47969  12.966   9.742   5.595 -0.0622 -0.0587  0.0645
29116ION     NA47970  10.353  10.297  11.494  0.1014 -0.1330  0.0322
29117ION     NA47971   4.688   4.188  16.790 -0.2732 -0.1730  0.1189
29118ION     NA47972  16.511   2.699   6.078 -0.2654 -0.2184 -0.4238
29119ION     NA47973  14.509  16.813  14.894  0.0968 -0.1314  0.1519
29120ION     NA47974  13.652   7.746  11.260  0.0058 -0.0712  0.1479
29121ION     NA47975  13.890  14.622  11.504  0.2566  0.5284 -0.1750
29122ION     NA47976  10.000  13.218  11.310 -0.2347  0.0626  0.2845
29123ION     NA47977   0.367   3.383  16.479  0.1222  0.1821  0.1086
29124ION     NA47978   3.602   8.082  11.678 -0.1675  0.0048  0.0401
29125ION     NA47979  15.874  13.225   0.851  0.2779  0.1861  0.0482
29126ION     NA47980   1.224   6.195  12.852 -0.0090 -0.0527 -0.1943
29127ION     NA47981   5.750   1.706   6.031 -0.0621 -0.1994  0.2368
29128ION     NA47982  10.178   8.964  11.615 -0.2166  0.1323  0.0596
29129ION     NA47983  13.207  14.148  11.699 -0.0723 -0.0095  0.0493
29130ION     NA47984   5.541   4.358   5.852 -0.0498  0.2363  0.1297
29131ION     NA47985  10.407   7.441  11.333  0.2258  0.0754  0.2863
29132ION     NA47986   3.219  12.256   6.211 -0.2898 -0.1557  0.0690
29133ION     NA47987   0.653   0.323  17.273 -0.2590  0.2249  0.1652
29134ION     NA47988  10.858  10.861   6.186 -0.1533 -0.2503 -0.0286
29135ION     NA47989   5.636  10.555  16.068  0.1052  0.0684  0.0291
29136ION     NA47990   8.997  11.857   6.263 -0.2667 -0.0273  0.5230
29137ION     NA47991  17.186  12.922   0.939 -0.0145 -0.2300  0.1990
29138ION     NA47992  13.341  15.419   1.913 -0.2653 -0.1515  0.2112
29139ION     NA47993  12.034   4.564   2.941  0.1875  0.0095 -0.1205
29140ION     NA47994   0.646   0.651   5.983 -0.0264  0.0652  0.0196
29141ION     NA47995  10.739  16.026   4.223 -0.0247 -0.0824 -0.3537
29142ION     NA47996   6.171   5.384  11.033 -0.1656  0.1768  0.0372
29143ION     NA47997   9.457   8.775   6.066 -0.1748  0.3232  0.1053
29144ION     NA47998   2.513  14.211   6.410  0.1848 -0.0833  0.0916
29145ION     NA47999   4.537  12.861   1.809  0.3935  0.0721 -0.0761
29146ION     NA48000   0.046  14.443   6.276  0.2291 -0.0747  0.1008
29147ION     NA48001   3.643   5.146  11.397  0.1452 -0.2848 -0.0836
29148ION     NA48002  15.609   2.633   6.433  0.3353  0.1315  0.2891
29149ION     NA48003  13.273   8.665   3.914 -0.1914  0.1521  0.0683
29150ION     NA48004   3.180   6.414   6.070  0.0005  0.1085  0.1024
29151ION     NA48005   8.831   3.083   6.010  0.2059  0.1165  0.0905
29152ION     NA48006   2.871   1.147   6.161 -0.0308  0.2620 -0.1273
29153ION     NA48007   8.335  11.238  12.949 -0.0922 -0.2423 -0.2296
29154ION     NA48008   2.677  15.198  11.334  0.1784  0.1005  0.3200
29155ION     NA48009   1.607   3.682  11.570  0.0976  0.1318  0.0408
29156ION     NA48010   6.446  17.241   6.065 -0.2918  0.0216  0.0205
29157ION     NA48011  15.987   7.675   6.064 -0.1060  0.1444 -0.1918
29158ION     NA48012   7.560   7.093   6.117  0.2440 -0.0141  0.1102
29159ION     NA48013  15.805   1.711  11.680 -0.3308  0.0589  0.3248
29160ION     NA48014   9.288  13.838  15.091  0.1133  0.1292  0.0484
29161ION     NA48015   0.892  13.986   6.245 -0.3651  0.0865  0.4183
29162ION     NA48016   2.505  16.587  16.413  0.0320 -0.2095 -0.1364
29163ION     NA48017   0.058   6.867   3.874  0.2197  0.1005 -0.0906
29164ION     NA48018   3.388   1.826   6.158  0.0021 -0.1961 -0.0917
29165ION     NA48019  10.872   0.590  11.536  0.0312  0.4753 -0.0074
29166ION     NA48020  10.603   3.533  16.438  0.1031 -0.1475 -0.0868
29167ION     NA48021   8.686   1.282  11.270 -0.1822 -0.1508  0.1569
29168ION     NA48022   4.887  15.882  11.553  0.2454 -0.0516  0.0640
29169ION     NA48023   8.728   0.693   5.908  0.0540 -0.2085 -0.0134
29170ION     NA48024  14.046  13.648  11.892  0.0915  0.1491  0.0831
29171ION     NA48025   7.377   9.072   6.240  0.2184 -0.0443  0.2848
29172ION     NA48026   6.258   2.581  11.392  0.0091 -0.2946  0.0237
29173ION     NA48027  10.451  14.061  11.441 -0.0629  0.0023 -0.1971
29174ION     NA48028  10.841   8.200  11.374 -0.0464 -0.0241  0.1769
29175ION     NA48029   3.388   5.584   6.110 -0.2449  0.2531  0.1202
29176ION     NA48030   7.162  15.830   3.982 -0.2882  0.0647  0.2217
29177ION     NA48031   0.117  17.142  17.391  0.0871 -0.2301 -0.0920
29178ION     NA48032   2.062  16.302  15.529 -0.1409  0.2620 -0.3361
29179ION     NA48033   2.952   0.941  14.174 -0.0271 -0.1979 -0.0697
29180ION     NA48034   3.253   9.830   0.367  0.2927  0.0525 -0.0247
29181ION     NA48035   9.542   5.814  11.490 -0.3829  0.2165  0.0595
29182ION     NA48036  10.341   1.497  11.731 -0.0196  0.1029 -0.1270
29183ION     NA48037   1.884   3.839   3.910  0.1345  0.0265  0.1678
29184ION     NA48038   6.809   6.350  12.510 -0.0100  0.0721 -0.1366
29185ION     NA48039   7.151   0.327  11.615 -0.0196 -0.1080  0.3915
29186ION     NA48040  13.385   0.820  11.413 -0.1304  0.1399  0.0743
29187ION     NA48041   9.304  16.447  11.712 -0.0415  0.0221  0.1530
29188ION     NA48042  13.115  11.945   5.355  0.4030 -0.0916  0.1560
29189ION     NA48043   5.282  11.267   5.891  0.0226 -0.0955  0.2091
29190ION     NA48044  15.169   9.413  11.733  0.2139 -0.1832 -0.1037
29191ION     NA48045  10.661   8.036   6.075 -0.1166  0.1737  0.3448
29192ION     NA48046   7.095   3.350  11.247 -0.0570 -0.0631  0.1335
29193ION     NA48047  11.243  15.643   5.994  0.0575  0.2891  0.1173
29194ION     NA48048   4.670   0.505   6.026  0.0178  0.3486  0.2487
29195ION     NA48049  16.899   5.764  11.664 -0.0906  0.0643 -0.1089
29196ION     NA48050   0.193   2.232  11.755 -0.2378 -0.3213 -0.0853
29197ION     NA48051   6.169  13.632  11.541  0.1519  0.0341 -0.1265
29198ION     NA48052  17.011  12.264   6.537 -0.0698  0.1460  0.3380
29199ION     NA48053   9.764  15.846  16.386  0.2104  0.0806  0.0199
29200ION     NA48054  16.100  15.145   5.048  0.0604  0.0240 -0.1516
29201ION     NA48055  15.152  16.406   6.427 -0.1587  0.0943 -0.1370
29202ION     NA48056  11.382   6.340   6.211 -0.0438  0.2076  0.1681
29203ION     NA48057  10.979   5.309   3.985  0.1247 -0.0747 -0.0276
29204ION     NA48058   7.931  11.060  11.322  0.3867 -0.1484 -0.0304
29205ION     NA48059   7.476   2.605  11.308 -0.0035 -0.1607  0.1402
29206ION     NA48060   7.751   0.747   5.902  0.4227  0.3093 -0.3737
29207ION     NA48061   4.364  14.714   2.026  0.1205  0.2232  0.2673
29208ION     NA48062   8.759   8.505   1.475 -0.1295 -0.2816  0.0218
29209ION     NA48063   7.370  17.395   6.092 -0.3491  0.4792 -0.2245
29210ION     NA48064   6.967  13.341  11.443 -0.1271 -0.0347  0.1253
29211ION     NA48065  15.278  15.810  11.689  0.1530 -0.0031  0.5109
29212ION     NA48066   9.168   2.561  11.426 -0.0381 -0.0085  0.0301
29213ION     NA48067   9.399   8.033   5.515  0.3121 -0.1710 -0.0325
29214ION     NA48068   1.704  11.451  11.705 -0.0636  0.0132 -0.1677
29215ION     NA48069  11.101  13.704  17.233  0.1223  0.0052 -0.0962
29216ION     NA48070  14.106   1.486  11.665 -0.1463 -0.4109  0.0386
29217ION     NA48071  11.837  16.602   5.957 -0.1714  0.0652 -0.1502
29218ION     NA48072   9.161  13.446   1.068 -0.0080 -0.0621 -0.4024
29219ION     NA48073  13.631   0.887   6.330  0.1549 -0.0554  0.2186
29220ION     NA48074   5.687  11.591  11.440  0.0053  0.1386 -0.0289
29221ION     NA48075  10.633   1.297   4.515 -0.1164  0.1193 -0.2996
29222ION     NA48076   1.259   4.527  11.385 -0.0587  0.4656 -0.0738
29223ION     NA48077  10.367  15.640  16.981 -0.3100  0.0772 -0.3216
29224ION     NA48078  14.451   2.158   0.029  0.3404  0.1714  0.0712
29225ION     NA48079   8.263   5.495  12.335 -0.1162  0.1064 -0.1077
29226ION     NA48080   8.401  15.734   4.106  0.1085 -0.3189 -0.2809
29227ION     NA48081   4.000   9.043   5.740 -0.2266 -0.1242  0.0386
29228ION     NA48082  13.127   6.155  16.262 -0.1957  0.0316 -0.1405
29229ION     NA48083   7.039  11.214  11.308  0.0440  0.0336  0.1118
29230ION     NA48084   0.682   2.395   5.807  0.0225  0.1208  0.1078
29231ION     NA48085   9.688  16.048  11.881 -0.2582 -0.1601 -0.2434
29232ION     NA48086   0.531   4.507   6.227  0.0843 -0.1799 -0.0687
29233ION     NA48087   9.193  13.144  11.417  0.1040  0.0427  0.0573
29234ION     NA48088  13.551  16.820  15.140 -0.2583  0.2726  0.1546
29235ION     NA48089  10.999  14.947  11.403 -0.1783  0.0424  0.0046
29236ION     NA48090   1.845  13.631  16.455  0.0471 -0.0649 -0.2627
29237ION     NA48091   7.598   2.271   6.022  0.1577 -0.4071 -0.0022
29238ION     NA48092  14.585   7.012   0.425 -0.2635  0.0688 -0.1164
29239ION     NA48093   6.004   9.652  11.529 -0.0818  0.1684 -0.0842
29240ION     NA48094   5.018   4.137   2.251 -0.0920 -0.2313  0.4111
29241ION     NA48095  14.654  17.141   6.212  0.2502 -0.4264 -0.2817
29242ION     NA48096   3.619  16.339  11.653 -0.0557 -0.2149 -0.1349
29243ION     NA48097   9.072  14.149   5.868  0.1932  0.2232 -0.1392
29244ION     NA48098   0.242  11.944  11.473 -0.0227 -0.1668 -0.0675
29245ION     NA48099  12.269   6.079   6.105  0.0039  0.4157 -0.0356
29246ION     NA48100   4.174   9.251  11.371  0.2482  0.0100  0.3500
29247ION     NA48101  16.977  14.406   6.345 -0.2721  0.1030  0.2448
29248ION     NA48102   8.709   9.312  11.249 -0.2217  0.0589 -0.2719
29249ION     NA48103   3.480  17.035  13.195  0.0223 -0.0770  0.1657
29250ION     NA48104   0.769   3.438  14.326 -0.1167 -0.2274 -0.0642
29251ION     NA48105   1.125  16.879  11.796 -0.0457 -0.1113 -0.1679
29252ION     NA48106   3.097   9.595   6.342 -0.0209  0.2936 -0.1917
29253ION     NA48107   9.574   4.678   5.957 -0.1657  0.1315 -0.0844
29254ION     NA48108   1.351   0.202   1.034  0.1072  0.1623 -0.0756
29255ION     NA48109  11.079   8.302   6.107 -0.4634 -0.1135  0.3732
29256ION     NA48110   5.252  16.499  13.556  0.0298 -0.0160  0.1140
29257ION     NA48111  16.542   8.347  11.425  0.0505 -0.3203 -0.0003
29258ION     NA48112   0.131   3.124  11.611 -0.0428  0.0246 -0.0893
29259ION     NA48113   3.216  10.403  11.662 -0.4123  0.2624 -0.3157
29260ION     NA48114  15.569  13.052  11.635 -0.2342  0.1492  0.0281
29261ION     NA48115   9.614   1.608  11.313 -0.0469  0.0646  0.3429
29262ION     NA48116   4.050   3.114  16.968 -0.0799  0.3031 -0.2482
29263ION     NA48117   1.043   2.930  11.602 -0.3122  0.0301  0.1221
29264ION     NA48118  15.900   8.960  11.540 -0.2841  0.0782 -0.0610
29265ION     NA48119   5.984   8.704  16.285 -0.1134  0.0044  0.0515
29266ION     NA48120  11.234  11.455   5.896 -0.0121 -0.0851 -0.1401
29267ION     NA48121   3.288   1.833  11.544  0.3183  0.2519 -0.2744
29268ION     NA48122  14.343  17.282   3.638 -0.3528  0.0734 -0.1054
29269ION     NA48123   8.646  12.722   6.304 -0.0352 -0.5052  0.1431
29270ION     NA48124  13.865   3.894   4.745 -0.0587 -0.1920 -0.0777
29271ION     NA48125   6.575   9.542   1.012 -0.0453 -0.0595 -0.0517
29272ION     NA48126   9.274   3.388  11.110 -0.0415  0.0962 -0.0348
29273ION     NA48127   6.729   2.445  11.332 -0.0329  0.1596 -0.3435
29274ION     NA48128   6.478  11.298  11.539  0.0005  0.0981  0.1058
29275ION     NA48129   6.109  10.750   6.224  0.0243  0.3808  0.2248
29276ION     NA48130  12.176   7.577  11.339 -0.0451  0.0523 -0.1289
29277ION     NA48131  11.568  13.925   5.669 -0.1872  0.1292 -0.0367
29278ION     NA48132  16.696   3.396   5.349 -0.1650 -0.1047 -0.0602
29279ION     NA48133  16.227  15.999   6.265  0.3006  0.1460  0.1114
29280ION     NA48134   4.099   3.518   5.794  0.0254  0.2381 -0.0968
29281ION     NA48135  11.446  16.637  11.328  0.0546 -0.0260 -0.0091
29282ION     NA48136  11.328  17.193   5.688 -0.2298  0.0319 -0.2313
29283ION     NA48137  16.235  14.418   6.308  0.0525  0.1979  0.0805
29284ION     NA48138   6.920   7.639   0.759  0.1917  0.2137  0.0091
29285ION     NA48139  12.862   8.761   6.173  0.2972 -0.1097 -0.0808
29286ION     NA48140  13.799   7.077  14.014 -0.0239  0.4067  0.0062
29287ION     NA48141   0.000  12.706  11.870  0.1736 -0.0064  0.0955
29288ION     NA48142  12.321   8.984   0.484 -0.1805 -0.0726  0.1522
29289ION     NA48143  15.342  10.413  11.409  0.0805  0.2235  0.0926
29290ION     NA48144  12.641   0.924   6.086 -0.0251  0.1439  0.0786
29291ION     NA48145   7.592  12.574  11.596 -0.1617 -0.3154 -0.1564
29292ION     NA48146  14.839   7.301   1.729  0.2144  0.1177  0.0469
29293ION     NA48147   6.278   3.858   4.330 -0.2086 -0.3721  0.3376
29294ION     NA48148   3.680  16.900   5.036 -0.0994  0.0420 -0.1782
29295ION     NA48149   6.290   1.166  11.555 -0.1689  0.2780  0.0110
29296ION     NA48150   0.161  16.516   6.184  0.0137  0.1318  0.0681
29297ION     NA48151   7.811   2.593  16.877 -0.2860 -0.1100 -0.0108
29298ION     NA48152  13.669  14.549   1.349  0.0124 -0.0362 -0.0857
29299ION     NA48153   1.850  17.123   6.168  0.0411  0.0262 -0.0913
29300ION     NA48154   8.902   7.941  15.700 -0.2176 -0.1102  0.0506
29301ION     NA48155  12.883   1.544  11.459  0.0161  0.0232 -0.2393
29302ION     NA48156   7.351   4.437   5.762  0.0605  0.0093 -0.2647
29303ION     NA48157   1.851   5.463  11.160  0.1568 -0.2078  0.2318
29304ION     NA48158  13.523  12.820  12.618 -0.1925 -0.0085  0.0616
29305ION     NA48159   4.655  14.224   6.246  0.1033 -0.1360 -0.1139
29306ION     NA48160   3.130   0.231   6.254 -0.2087  0.2527  0.1591
29307ION     NA48161   3.096   3.669   5.996 -0.1886 -0.1069  0.0864
29308ION     NA48162   6.880   0.639   6.152  0.1916  0.1743 -0.0372
29309ION     NA48163   5.459   5.159  12.339  0.1604 -0.0545 -0.1918
29310ION     NA48164  17.202   4.693  11.378  0.0907 -0.2245 -0.2943
29311ION     NA48165  13.308   0.771  11.903 -0.4336  0.2725  0.0259
29312ION     NA48166  11.523   8.917  11.291 -0.0790  0.0188  0.2379
29313ION     NA48167   1.171   3.149   6.294  0.0077 -0.1121  0.1623
29314ION     NA48168   8.993   2.265   1.797 -0.1126 -0.0913  0.0092
29315ION     NA48169   8.613   3.513   4.863 -0.0243 -0.0095  0.2191
29316ION     NA48170   6.867  14.120  11.926  0.1092  0.0250 -0.2199
29317ION     NA48171   2.879   4.891   6.064  0.1720 -0.2173  0.0653
29318ION     NA48172   1.762   6.608  14.698 -0.0394 -0.0007  0.1160
29319ION     NA48173   5.315   9.097  16.565  0.0431 -0.0808  0.0746
29320ION     NA48174  12.631   3.487  11.337  0.0668 -0.2192  0.0483
29321ION     NA48175   7.427  13.450  11.354 -0.1618 -0.1148  0.0528
29322ION     NA48176   2.644   6.353   6.166  0.4785 -0.1355 -0.1212
29323ION     NA48177   4.057   4.717  13.421  0.1759 -0.0355 -0.3413
29324ION     NA48178   6.293  14.711  11.631  0.2918 -0.3670  0.1408
29325ION     NA48179   0.095   7.608   6.156 -0.0088 -0.0434 -0.1583
29326ION     NA48180   9.519   7.232  11.478  0.1029 -0.2767  0.1240
29327ION     NA48181  16.719   6.259   6.190  0.0820 -0.2049  0.0884
29328ION     NA48182   2.840  10.368   6.287  0.1197  0.1940 -0.0244
29329ION     NA48183   5.095   6.544  12.957  0.2328  0.3531 -0.0825
29330ION     NA48184   7.988   7.817  11.686  0.2452 -0.0916  0.2322
29331ION     NA48185   5.901   5.356   5.743  0.1164  0.0509  0.0371
29332ION     NA48186  16.839  10.732   6.191  0.1740  0.1463  0.1908
29333ION     NA48187   4.267  14.406  11.447  0.0709  0.1864  0.1124
29334ION     NA48188   4.930  10.506  11.890  0.0388  0.0510  0.1598
29335ION     NA48189   2.112   1.371   3.538 -0.2793 -0.0242  0.2825
29336ION     NA48190   1.939  11.701   4.405  0.0771  0.1719 -0.2813
29337ION     NA48191  14.797   6.926   6.076  0.2123  0.1750  0.2028
29338ION     NA48192  14.875   9.578   1.079 -0.0890  0.1298 -0.0175
29339ION     NA48193   4.083  10.312   5.048  0.1692  0.0267 -0.0522
29340ION     NA48194  15.954   2.206  12.581  0.1651  0.2147 -0.2474
29341ION     NA48195   4.922   0.116   6.015 -0.1195  0.3452 -0.3261
29342ION     NA48196   5.420  13.443  11.674  0.2499 -0.2025 -0.0415
29343ION     NA48197  14.690  15.240  11.652 -0.0893 -0.3099 -0.1232
29344ION     NA48198   3.502   8.696   6.281  0.0040 -0.2643  0.0045
29345ION     NA48199  14.990   4.191  11.776  0.0380  0.0046  0.0484
29346ION     NA48200  10.424   0.269   6.199  0.2588 -0.1573 -0.0059
29347ION     NA48201   3.197   6.251  11.761 -0.2840  0.1927 -0.1400
29348ION     NA48202   7.484   5.523  11.365 -0.0550  0.2388 -0.1443
29349ION     NA48203  13.543  12.311   6.125  0.0111  0.1893 -0.1315
29350ION     NA48204   0.137  11.829   0.709 -0.0914  0.0472  0.1322
29351ION     NA48205   0.891  11.344   6.290  0.1509 -0.1568 -0.1471
29352ION     NA48206  10.181   2.909  11.270  0.1779  0.1197 -0.2256
29353ION     NA48207   5.069   0.170   0.734 -0.0431  0.1203  0.1641
29354ION     NA48208  17.187   5.623  17.317 -0.1069 -0.2296 -0.3385
29355ION     NA48209   8.148  14.269   6.051 -0.2156  0.0632 -0.3799
29356ION     NA48210   2.969   2.348  14.785  0.0591 -0.1443 -0.3654
29357ION     NA48211  15.408   2.102  11.682  0.0597  0.2660 -0.2143
29358ION     NA48212   1.355   0.651  11.466  0.1083 -0.0780 -0.0360
29359ION     NA48213  16.092  16.794  13.682  0.0960 -0.0270 -0.1047
29360ION     NA48214   0.153   5.943   6.188 -0.1506  0.0105 -0.1390
29361ION     NA48215  11.532   4.438  11.448 -0.1697  0.1614 -0.1392
29362ION     NA48216   1.578  15.616   6.148  0.2835 -0.0460 -0.0010
29363ION     NA48217  17.310   6.971   5.654  0.2079  0.0467 -0.1612
29364ION     NA48218   4.510  16.266   5.843 -0.0269 -0.1149 -0.0167
29365ION     NA48219   7.071  11.556   6.187  0.1330  0.1177  0.0183
29366ION     NA48220   8.030  17.234  11.516  0.2117 -0.2271  0.0334
29367ION     NA48221  12.317   8.280   1.955 -0.1897 -0.1762 -0.0172
29368ION     NA48222   5.501   8.060  11.481 -0.1774  0.0513 -0.0443
29369ION     NA48223   8.827  15.817  11.562  0.0554  0.1053  0.0278
29370ION     NA48224  12.579   3.207   4.343  0.4924 -0.2357 -0.0990
29371ION     NA48225   2.141  16.502  11.599 -0.0146  0.2571  0.1164
29372ION     NA48226   8.669   1.582   0.742  0.1506  0.3140  0.1019
29373ION     NA48227  11.983  10.839  11.346 -0.1695 -0.0659 -0.0220
29374ION     NA48228   8.080  14.786  11.372 -0.2347  0.1093  0.4440
29375ION     NA48229   2.463  11.761  11.695 -0.1982  0.2369 -0.3700
29376ION     NA48230  14.085  15.126   6.199  0.0924 -0.2237  0.0302
29377ION     NA48231  15.019  10.409   6.232 -0.1468  0.0196 -0.0093
29378ION     NA48232  14.939   3.379  11.707 -0.3680 -0.1408  0.2507
29379ION     NA48233   2.261   4.434  16.090  0.2506  0.3098 -0.1406
29380ION     NA48234  17.086   0.988   6.180  0.4617  0.2178  0.0447
29381ION     NA48235  10.756  12.474   5.953  0.3969 -0.1772  0.0935
29382ION     NA48236   8.057   9.293  16.121 -0.0712  0.2114  0.0418
29383ION     NA48237  13.941   7.799   5.831 -0.2481 -0.0819 -0.2504
29384ION     NA48238  12.453   8.618  11.395 -0.1546 -0.1246  0.0081
29385ION     NA48239   6.928  16.438   6.157  0.3150  0.0657  0.0705
29386ION     NA48240   0.475  13.378  11.789  0.2956  0.2474 -0.2749
29387ION     NA48241   2.861  11.511   6.198  0.2113  0.2384  0.2035
29388ION     NA48242  11.199   6.617  11.316  0.3685  0.1829  0.0842
29389ION     NA48243  15.658   4.652  13.805 -0.0953 -0.1748  0.2081
29390ION     NA48244   4.484  11.244   6.119  0.0274 -0.0537 -0.0123
29391ION     NA48245   6.981   6.968   6.070  0.2383 -0.1359 -0.4429
29392ION     NA48246   1.315   9.813   6.148  0.0818  0.0341 -0.0323
29393ION     NA48247  11.583   2.336  11.693  0.0679  0.1058  0.0534
29394ION     NA48248   0.225   7.967   3.662  0.1934  0.2360 -0.1781
29395ION     NA48249   2.994  16.368  11.551 -0.2543 -0.3931 -0.0035
29396ION     NA48250  14.550   7.443  11.398  0.3055 -0.0518 -0.1717
29397ION     NA48251   6.842  12.404   6.292 -0.1228  0.3667 -0.0467
29398ION     NA48252   1.924  10.503   6.095 -0.0578 -0.0268  0.2423
29399ION     NA48253  17.068  10.156   0.162 -0.0385  0.0005  0.1357
29400ION     NA48254  14.383  16.047  11.610 -0.3248 -0.1921  0.0095
29401ION     NA48255   7.135   2.593   6.035 -0.2162  0.2433 -0.0518
29402ION     NA48256   5.613  16.287  11.513  0.0612 -0.0688  0.1417
29403ION     NA48257  14.532   3.328  16.506  0.2043  0.0360  0.0286
29404ION     NA48258  11.276  11.529  11.405  0.1519  0.0985 -0.3003
29405ION     NA48259   3.745  13.707  11.170  0.2336  0.1526 -0.0950
29406ION     NA48260  16.451   5.354   6.135 -0.1588  0.0023  0.0797
29407ION     NA48261   7.683   5.361   5.924 -0.0331 -0.1364  0.0122
29408ION     NA48262   2.175   7.832   0.798  0.3776  0.1568  0.2377
29409ION     NA48263   1.535   8.235  11.302 -0.2281 -0.0386  0.0310
29410ION     NA48264   9.497   5.874   6.101  0.1792  0.1637  0.0700
29411ION     NA48265   9.728  11.749  11.375 -0.3645 -0.1901 -0.1552
29412ION     NA48266   0.030   8.466   6.003  0.2395 -0.2048 -0.0393
29413ION     NA48267  15.379   1.653   6.340  0.2978 -0.1165  0.1169
29414ION     NA48268  11.762   9.962  11.346  0.2876 -0.0426 -0.2527
29415ION     NA48269   4.966   9.120   6.106  0.2333  0.3147  0.4149
29416ION     NA48270  16.900  13.016   6.292  0.0315 -0.1661  0.1575
29417ION     NA48271  13.666   1.479   1.761  0.2800  0.2766 -0.2496
29418ION     NA48272  10.503   5.966   5.904  0.1417  0.3124  0.0651
29419ION     NA48273   7.631  16.088   5.043 -0.2503  0.1930  0.2230
29420ION     NA48274  10.107   6.332   6.124  0.2111  0.0460  0.0467
29421ION     NA48275  10.421   3.813   4.976  0.0195 -0.1440  0.0827
29422ION     NA48276  15.321  13.285   5.233  0.0076  0.0446  0.1287
29423ION     NA48277   8.929   1.774  11.444  0.0506 -0.2577  0.1785
29424ION     NA48278  14.640   6.514  11.411  0.5371  0.5933  0.1503
29425ION     NA48279   6.793   1.725   6.012  0.1263  0.3190 -0.0098
29426ION     NA48280   5.788   9.526   6.190  0.6695 -0.1646  0.1995
29427ION     NA48281  17.039   6.255   3.134 -0.0401  0.4548  0.1178
29428ION     NA48282   8.850   7.723  11.822  0.2288  0.0912 -0.0436
29429ION     NA48283   3.195   0.128  13.665 -0.4324 -0.1939 -0.3960
29430ION     NA48284   0.393  10.687   6.341  0.4109  0.2736 -0.1871
29431ION     NA48285  17.271   9.878  11.690 -0.3126 -0.1032  0.1134
29432ION     NA48286  17.112   6.570  11.501 -0.0864  0.2065  0.2052
29433ION     NA48287  16.246  12.421   6.441  0.1085 -0.1560 -0.1165
29434ION     NA48288  16.147  15.267  14.476 -0.0424 -0.0510 -0.0419
29435ION     NA48289   4.175   5.895  11.548 -0.0358 -0.0916  0.2533
29436ION     NA48290  10.335  17.346  11.433 -0.1954 -0.1879  0.1141
29437ION     NA48291   9.507  13.835  12.103  0.0022 -0.1188 -0.3128
29438ION     NA48292   3.151   4.145  11.372 -0.1006 -0.2826  0.0007
29439ION     NA48293  16.339   1.826   6.357 -0.0237  0.4604  0.3984
29440ION     NA48294   9.327   5.496   5.795 -0.1334  0.2814 -0.1596
29441ION     NA48295   9.386   4.336  11.373 -0.0852 -0.4110 -0.1873
29442ION     NA48296  13.664  16.520   6.086  0.1564 -0.2296 -0.3052
29443ION     NA48297  10.277   3.928  11.334  0.4157  0.2253  0.2187
29444ION     NA48298   5.915   6.211   4.765  0.0730 -0.0558  0.0558
29445ION     NA48299   9.732  13.860   6.313 -0.1217 -0.3099  0.0876
29446ION     NA48300  13.264  17.337  11.600 -0.2663 -0.0354  0.0301
29447ION     NA48301   2.928  12.735   6.425  0.0865  0.1835  0.0582
29448ION     NA48302   0.411  15.987  11.546 -0.1070 -0.1388  0.0089
29449ION     NA48303   2.810   2.812   5.448 -0.0505  0.1999  0.0157
29450ION     NA48304  13.630   3.286   4.030 -0.0229  0.1546  0.1366
29451ION     NA48305  16.570  11.925   0.984  0.1331  0.2513  0.2452
29452ION     NA48306  11.437  14.755   5.933  0.1108 -0.0670 -0.1152
29453ION     NA48307   8.308  13.432  15.392 -0.1839 -0.1680  0.0635
29454ION     NA48308   7.234   6.128   6.025  0.0133  0.1190 -0.1323
29455ION     NA48309  17.304   3.487   6.115 -0.0996 -0.0638  0.1860
29456ION     NA48310  12.944   7.153  11.424 -0.2069 -0.3590 -0.0922
29457ION     NA48311  16.909  15.929  11.536  0.1519 -0.1737  0.0661
29458ION     NA48312  11.313   2.101   5.744 -0.2631 -0.0634 -0.2337
29459ION     NA48313  16.683   9.029   6.018  0.0562  0.1319 -0.4608
29460ION     NA48314  16.550  15.949   5.633  0.0707 -0.3728  0.1435
29461ION     NA48315   9.655  14.088  11.326  0.1874 -0.0448 -0.1819
29462ION     NA48316  14.852  11.363   6.157  0.1845  0.1271  0.0737
29463ION     NA48317  14.643   2.448   1.723 -0.0850  0.2641 -0.0519
29464ION     NA48318   4.788   9.145  12.269 -0.5571 -0.3120 -0.0890
29465ION     NA48319  14.593  11.778  14.455  0.0150 -0.1032  0.1203
29466ION     NA48320   8.521   3.937   5.995  0.0840 -0.4094  0.2451
29467ION     NA48321  17.193   5.873  12.478  0.2403  0.2527  0.1815
29468ION     NA48322  14.224  10.739   6.224 -0.1523 -0.1738 -0.1696
29469ION     NA48323   4.022  11.880  11.385 -0.0580  0.0777 -0.0965
29470ION     NA48324  15.768   2.963  11.607  0.2976  0.0944  0.1653
29471ION     NA48325   0.574  10.402  11.519  0.0872  0.1422 -0.0793
29472ION     NA48326   1.494   2.364  15.872  0.0869  0.0404  0.1076
29473ION     NA48327  17.219  15.310  11.699  0.0590 -0.0684  0.1444
29474ION     NA48328  15.882   8.033  11.554  0.1879 -0.2937  0.0865
29475ION     NA48329  15.521  14.910  11.779 -0.0086 -0.0417  0.1153
29476ION     NA48330   6.423   3.636   5.559 -0.1154 -0.3276  0.2102
29477ION     NA48331  10.517  11.183  11.446 -0.1033  0.0053 -0.1848
29478ION     NA48332  14.084   4.472   5.994  0.2086  0.1191  0.1001
29479ION     NA48333  11.460   3.642  11.638  0.0130  0.0678  0.1159
29480ION     NA48334   6.448   4.569   5.841 -0.1365 -0.2262  0.0245
29481ION     NA48335  14.455  11.699   6.293  0.1528 -0.1507  0.1118
29482ION     NA48336   8.558   0.480  13.896  0.0386 -0.2812  0.1087
29483ION     NA48337  11.852  13.397  11.507 -0.0278  0.0141  0.0978
29484ION     NA48338  15.334   0.668   6.444 -0.3523  0.2182 -0.3517
29485ION     NA48339  13.643  16.420  11.543  0.1032  0.2838 -0.0419
29486ION     NA48340   4.775   2.922   6.108  0.1749  0.0413 -0.0618
29487ION     NA48341   6.552  16.548  11.560  0.0333  0.1130  0.0175
29488ION     NA48342   8.641   3.831  11.592 -0.1724  0.0502  0.0157
29489ION     NA48343   6.576   8.865  11.690 -0.0768 -0.0662  0.0607
29490ION     NA48344  16.462  11.647   6.126  0.2003  0.0928  0.3902
29491ION     NA48345  14.885   0.363  11.582 -0.1855  0.0586 -0.0253
29492ION     NA48346   6.549   5.522   5.883  0.1625 -0.0905 -0.3075
29493ION     NA48347   8.753  11.149  11.359  0.3286  0.0347 -0.1651
29494ION     NA48348   8.221   3.723  16.990  0.1842 -0.0842 -0.3514
29495ION     NA48349  15.368   8.698  11.503  0.1226  0.0902 -0.1705
29496ION     NA48350   3.043  13.051  11.358 -0.0278  0.0870  0.0788
29497ION     NA48351  10.684  12.246  11.358 -0.0770 -0.2279  0.2302
29498ION     NA48352  15.541  11.850   6.381  0.1985  0.3468  0.1632
29499ION     NA48353   0.602   0.923  11.489  0.0503  0.0141  0.3307
29500ION     NA48354   6.911  10.421   6.034 -0.0510  0.0503  0.0456
29501ION     NA48355   0.344   7.671  11.491 -0.0264 -0.3166 -0.1636
29502ION     NA48356  14.614   2.325   6.200  0.2933  0.0350 -0.0774
29503ION     NA48357   6.878   1.894  11.361  0.3520  0.3129  0.2186
29504ION     NA48358   3.753   4.437   5.952  0.2342 -0.2704  0.2671
29505ION     NA48359  11.564  14.657   3.600  0.0426 -0.0617  0.1340
29506ION     NA48360  17.353   5.475  11.694  0.0901  0.1300  0.1314
29507ION     NA48361   5.544   3.530   6.108 -0.1996  0.2133 -0.1428
29508ION     NA48362  16.142  10.733  11.579 -0.1154  0.0166  0.0617
29509ION     NA48363  12.941   9.776   6.088  0.1846 -0.2562 -0.2987
29510ION     NA48364   2.153   7.528  11.518  0.5162  0.2211 -0.0465
29511ION     NA48365   1.665   6.810  11.472  0.0188 -0.0768  0.1078
29512ION     NA48366  13.122  12.780  14.255  0.0888  0.0757 -0.1819
29513ION     NA48367  13.246  15.612   5.935 -0.1691 -0.1400  0.0081
29514ION     NA48368   0.000  11.448   6.424 -0.0769 -0.0376  0.2145
29515ION     NA48369  16.378  15.227  11.733  0.0200  0.2469 -0.3648
29516ION     NA48370   8.519  15.477   6.243 -0.0933 -0.1324  0.0606
29517ION     NA48371   4.785   7.061  17.168  0.3609 -0.0306  0.1411
29518ION     NA48372   1.645   2.166   5.949 -0.2067 -0.1043 -0.2199
29519ION     NA48373   5.787  12.698  11.379 -0.0872  0.0769  0.2329
29520ION     NA48374  10.332  15.850   6.118  0.2122  0.4625  0.0658
29521ION     NA48375   5.932   6.194   6.073  0.0864 -0.0884 -0.0624
29522ION     NA48376   4.289   6.463   3.431 -0.3637  0.0851 -0.2723
29523ION     NA48377  17.141   2.059   6.162  0.0631  0.3958 -0.1850
29524ION     NA48378   4.148   7.384  13.248  0.1341 -0.0376  0.2161
29525ION     NA48379  16.184  15.076   6.288 -0.3552 -0.1161  0.0390
29526ION     NA48380  16.465   2.305  11.899  0.2944  0.2974 -0.1634
29527ION     NA48381   5.827  13.687   0.422  0.0298 -0.0112 -0.1124
29528ION     NA48382  11.168   0.555   6.018  0.1493 -0.5959  0.2962
29529ION     NA48383   2.123   4.258   5.209  0.0924 -0.2311  0.1012
29530ION     NA48384   6.738  14.355  17.107  0.0730 -0.0356  0.0475
29531ION     NA48385   4.868   8.611  11.517 -0.2591  0.2078  0.1075
29532ION     NA48386  15.410   5.849  11.492 -0.1119 -0.1641  0.0661
29533ION     NA48387   1.186   4.045   6.277  0.0023 -0.0518 -0.0124
29534ION     NA48388   9.678   0.691   5.930 -0.4542  0.0856  0.0625
29535ION     NA48389   5.491   0.805   6.222  0.0875  0.0690  0.3695
29536ION     NA48390  11.268   7.322   6.308  0.0400 -0.2070 -0.1896
29537ION     NA48391   7.924   3.371  11.361  0.0767 -0.1584 -0.1391
29538ION     NA48392   4.091  15.304  11.684 -0.2929 -0.0872  0.1248
29539ION     NA48393   7.714  16.587   6.162 -0.0268 -0.1328  0.0360
29540ION     NA48394   5.735   0.730  11.563  0.1276 -0.2893  0.1634
29541ION     NA48395   1.952   3.573   6.108  0.1373 -0.0751 -0.0208
29542ION     NA48396  12.525  16.901   5.938 -0.1554  0.1312  0.1447
29543ION     NA48397  16.606   3.984   6.403 -0.0479  0.4541  0.1225
29544ION     NA48398  14.258  12.641  11.737 -0.2358  0.1740 -0.5113
29545ION     NA48399   8.133   3.511  15.925  0.1707  0.0763 -0.0586
29546ION     NA48400   5.056   7.616   6.012  0.0429 -0.1149 -0.3786
29547ION     NA48401   3.917  10.727  11.710  0.1531  0.4173 -0.1059
29548ION     NA48402   9.720  12.410   6.028 -0.1981 -0.0490 -0.3810
29549ION     NA48403  14.233  10.189   2.320  0.0259 -0.1870  0.0724
29550ION     NA48404   2.052  12.832   6.358  0.1712  0.0922 -0.3072
29551ION     NA48405   9.852  14.376   3.721 -0.2314  0.1383  0.2528
29552ION     NA48406   6.042   1.585   3.357  0.0314  0.1696 -0.0727
29553ION     NA48407  14.962   7.324  12.141  0.2351 -0.1465 -0.0653
29554ION     NA48408  11.005   8.999  11.298  0.0332 -0.1366 -0.1452
29555ION     NA48409   8.411  16.539  11.574  0.1499  0.1869  0.4439
29556ION     NA48410  12.998   2.329   6.103 -0.1044  0.1436 -0.2786
29557ION     NA48411   8.962  17.229  11.584  0.0242  0.1460 -0.2188
29558ION     NA48412  12.842   6.509   6.021  0.1255 -0.0659  0.1062
29559ION     NA48413   2.810  14.493   4.320  0.0070  0.0865 -0.0679
29560ION     NA48414   8.922   9.345   5.885  0.0632  0.0990 -0.0889
29561ION     NA48415   6.836   5.828  11.531 -0.1875 -0.2352 -0.2389
29562ION     NA48416  12.819  14.977  11.367 -0.1641 -0.3047 -0.1985
29563ION     NA48417  10.227   0.380   3.462  0.0819  0.1602  0.1965
29564ION     NA48418   2.974  16.945  15.382  0.1751 -0.0604  0.1275
29565ION     NA48419   9.619   9.708  11.391 -0.2809 -0.1536 -0.0344
29566ION     NA48420   9.185  11.010   6.127 -0.3099 -0.0411  0.1082
29567ION     NA48421  13.187   5.340  11.489 -0.0327  0.1336 -0.1532
29568ION     NA48422   3.845   1.834  16.186  0.0558  0.0671 -0.1538
29569ION     NA48423  15.801   8.211   4.847 -0.2367  0.0786 -0.3555
29570ION     NA48424  16.882   2.609   5.221 -0.1519  0.1580  0.4522
29571ION     NA48425   2.409   7.501  13.516 -0.2453 -0.1561 -0.1507
29572ION     NA48426  14.132   3.725  11.503  0.0545  0.3614 -0.1115
29573ION     NA48427  16.864   6.664   1.963  0.0490 -0.2171  0.1574
29574ION     NA48428  13.428  12.999   6.318 -0.0451  0.0938 -0.1050
29575ION     NA48429  15.479  17.190   6.437 -0.1732 -0.1884 -0.0551
29576ION     NA48430  10.273  13.315   5.902 -0.0661  0.0863 -0.0092
29577ION     NA48431   0.746  11.424  16.996  0.0216  0.2419 -0.1042
29578ION     NA48432   7.543   7.981  13.928  0.0124  0.0052  0.0116
29579ION     NA48433  12.433  16.511   1.045  0.0336 -0.0132 -0.1421
29580ION     NA48434   7.044  13.531   1.756 -0.0529  0.0439  0.4091
29581ION     NA48435   2.060   4.694  13.533 -0.2476  0.1168  0.0119
29582ION     NA48436   3.117   2.709  11.493 -0.0914 -0.1510 -0.4567
29583ION     NA48437  15.660  12.259  11.615  0.2639 -0.0883 -0.2664
29584ION     NA48438  12.287   4.071  11.505  0.2941 -0.1631 -0.2559
29585ION     NA48439   2.295   6.048  11.354  0.1238 -0.0481  0.0758
29586ION     NA48440   5.256   2.727   6.085  0.1715  0.0871 -0.3554
29587ION     NA48441  16.663  15.262   6.335 -0.2103  0.0697 -0.0540
29588ION     NA48442   7.707  12.877   6.323  0.1125 -0.0519  0.1607
29589ION     NA48443  14.273   9.986   6.028  0.3089  0.1374  0.0641
29590ION     NA48444   3.936   2.562  11.520  0.0844 -0.0714 -0.0961
29591ION     NA48445  12.385   3.207   5.993 -0.0137  0.0714  0.1543
29592ION     NA48446  12.078   9.712   6.061 -0.0972  0.2051 -0.1473
29593ION     NA48447   5.121   0.747   4.595  0.0477  0.1999 -0.1669
29594ION     NA48448  15.833   4.056   6.181 -0.0081 -0.0717  0.0481
29595ION     NA48449   3.403  17.161  11.802  0.3082  0.1079  0.3530
29596ION     NA48450  16.235   4.169  11.474  0.1850  0.1017  0.1670
29597ION     NA48451   6.400   7.157  14.008 -0.1878  0.0117 -0.0278
29598ION     NA48452  13.718   0.885   5.723  0.2205  0.0065 -0.0262
29599ION     NA48453   4.467   1.080  15.447  0.1254 -0.1813 -0.0004
29600ION     NA48454  12.453  15.767  11.536 -0.3072 -0.4461  0.0988
29601ION     NA48455  15.122   3.680   6.127 -0.0171 -0.1086 -0.4616
29602ION     NA48456   3.112  15.473  11.695  0.1195  0.2734 -0.3093
29603ION     NA48457   7.476   6.423  11.546 -0.0211 -0.2896 -0.0410
29604ION     NA48458   6.224   7.031   5.010 -0.2285 -0.0198  0.0215
29605ION     NA48459   7.634   9.868   6.151  0.0658  0.0642  0.1458
29606ION     NA48460   0.080   0.094  11.582 -0.0687  0.1407  0.2639
29607ION     NA48461  13.397   9.937   2.078 -0.1503 -0.2221  0.3250
29608ION     NA48462   9.005   4.080   6.043  0.2408 -0.1583 -0.3175
29609ION     NA48463   1.023   6.413   6.084 -0.1604 -0.0685 -0.1354
29610ION     NA48464   4.137   1.161  11.669 -0.2241  0.1139 -0.0964
29611ION     NA48465   6.013   7.397  11.355  0.1875 -0.0197 -0.0969
29612ION     NA48466   1.360  15.917  11.531  0.1773 -0.1420 -0.0648
29613ION     NA48467   9.046  14.631   6.220  0.3963  0.0210 -0.1375
29614ION     NA48468   5.788  15.581   6.138  0.1337  0.0953 -0.3728
29615ION     NA48469   5.890  13.153   6.207 -0.2367  0.2234 -0.0420
29616ION     NA48470   2.176  15.252  11.496 -0.0768  0.2744  0.0229
29617ION     NA48471  10.931   9.535  11.425  0.3917  0.0802 -0.1181
29618ION     NA48472   5.203  13.355   4.591 -0.2880 -0.1300 -0.1280
29619ION     NA48473   2.341   7.704   5.769 -0.0784 -0.1116  0.2338
29620ION     NA48474   3.727   7.492  16.044 -0.2015  0.0688  0.0814
29621ION     NA48475  10.496  14.086  14.105 -0.1114 -0.1995 -0.0538
29622ION     NA48476   0.989   7.740   0.171 -0.0613  0.0903  0.1187
29623ION     NA48477  15.508  11.234  11.607  0.1019 -0.1944  0.0231
29624ION     NA48478  10.492  12.051   5.923 -0.0887  0.0610  0.0443
29625ION     NA48479  12.987   4.424  11.435 -0.3046 -0.0783 -0.1218
29626ION     NA48480   2.068  12.468  15.778  0.3491 -0.2034 -0.0654
29627ION     NA48481   4.620   5.105  11.371  0.1114  0.0763  0.2177
29628ION     NA48482   4.799  15.588   6.290  0.0182  0.0689  0.1527
29629ION     NA48483  16.819   7.533  11.404  0.0997  0.0192  0.2153
29630ION     NA48484  13.708   1.313  12.378  0.1856 -0.4747  0.0114
29631ION     NA48485   1.957   0.114  11.723 -0.1077  0.1601 -0.1586
29632ION     NA48486  15.096  12.179  11.627  0.0072 -0.2496  0.3635
29633ION     NA48487  16.419   7.233  11.560 -0.2592 -0.0904 -0.2126
29634ION     NA48488   9.754  16.955  11.530  0.0631  0.2295  0.0621
29635ION     NA48489   0.537  12.046   6.502 -0.2826 -0.1267  0.2191
29636ION     NA48490   9.417   0.538  11.404  0.2010  0.0478  0.1183
29637ION     NA48491   8.092   1.410   5.886  0.0180  0.0384  0.0161
29638ION     NA48492  16.937  15.840  17.366  0.0361 -0.0693 -0.2261
29639ION     NA48493   8.680  12.492  17.014 -0.1126 -0.1118  0.1147
29640ION     NA48494   5.357   3.135  12.187  0.0422  0.2499 -0.0318
29641ION     NA48495   7.610   7.606   6.045 -0.0810  0.1923 -0.1033
29642ION     NA48496   1.481  11.949   6.438 -0.2703 -0.2551  0.2510
29643ION     NA48497  12.500  15.979   5.878 -0.2361  0.1112  0.6063
29644ION     NA48498   2.901  13.880  12.362 -0.1187 -0.1732 -0.0685
29645ION     NA48499   7.711   6.219   6.006  0.0744 -0.1546 -0.0041
29646ION     NA48500   8.362   3.953  15.017 -0.0851 -0.1139 -0.1256
29647ION     NA48501  16.357  11.593  11.653 -0.0350 -0.0840 -0.0940
29648ION     NA48502  10.691   2.210  11.385 -0.0342 -0.0841 -0.3429
29649ION     NA48503   5.523   3.099   3.834 -0.3285  0.0747 -0.2842
29650ION     NA48504   6.503   8.014  11.536 -0.1834  0.0156 -0.0572
29651ION     NA48505   1.367  14.952  11.596  0.3422 -0.1185 -0.0861
29652ION     NA48506   8.133   9.745   6.165  0.3323 -0.1324 -0.2306
29653ION     NA48507  16.480  13.143  11.686 -0.1951  0.1884  0.1805
29654ION     NA48508   9.522  11.748  13.448  0.0350 -0.0514  0.0010
29655ION     NA48509  12.080   1.366   2.611  0.1107  0.1044 -0.0238
29656ION     NA48510  10.448  15.631  11.489 -0.2092 -0.3021 -0.0089
29657ION     NA48511   5.258  16.266   5.992  0.0418  0.0769  0.0297
29658ION     NA48512  10.727  14.954   6.167 -0.1086  0.1673 -0.1210
29659ION     NA48513   8.517   2.232   6.052  0.2905 -0.2313 -0.0044
29660ION     NA48514   5.121  12.677   5.882 -0.1624 -0.1104  0.1426
29661ION     NA48515   5.959   7.873   6.169  0.1469 -0.0867 -0.3620
29662ION     NA48516   4.128  13.458  13.190  0.0346 -0.3261 -0.1631
29663ION     NA48517  14.501   1.316   6.448  0.1302  0.0808  0.1869
29664ION     NA48518  12.169  14.342   6.019  0.0680  0.1447  0.2199
29665ION     NA48519   4.822   5.939  11.476  0.1276  0.2072 -0.1627
29666ION     NA48520  11.485  12.200   5.788 -0.0201  0.2805  0.0307
29667ION     NA48521   1.251   1.539  11.565 -0.3175 -0.2148  0.0865
29668ION     NA48522   8.499   5.829   5.959 -0.0069 -0.2033 -0.0786
29669ION     NA48523   5.720   6.644   3.047 -0.2278  0.0705 -0.3790
29670ION     NA48524  15.945  17.029  11.754 -0.1988 -0.4453 -0.2810
29671ION     NA48525  17.031   1.783  13.525  0.0431 -0.0895 -0.0754
29672ION     NA48526   9.932  10.401   1.815  0.1509  0.2947 -0.2012
29673ION     NA48527  11.920   8.697   5.978  0.2924  0.0224 -0.1022
29674ION     NA48528  14.335  13.590   6.334  0.0910  0.0311  0.2516
29675ION     NA48529  14.960  17.150  13.046  0.0230  0.0591  0.1019
29676ION     NA48530  13.588   8.144   5.938 -0.1344 -0.1996 -0.0833
29677ION     NA48531  10.226   5.225   6.116 -0.0948 -0.2485 -0.0915
29678ION     NA48532  14.835  12.710   6.343  0.0022 -0.0474 -0.1037
29679ION     NA48533   9.381   8.906  11.249  0.1102  0.3424  0.0781
29680ION     NA48534   3.809   9.440   3.007  0.4207  0.3736  0.0329
29681ION     NA48535   1.951   6.021   5.474 -0.0683  0.2254 -0.0325
29682ION     NA48536   6.674  12.656  11.555 -0.6053  0.1440 -0.0589
29683ION     NA48537   7.119   6.118  16.520 -0.0212  0.0364 -0.1442
29684ION     NA48538   5.500  14.582   6.253 -0.1407 -0.0737  0.0795
29685ION     NA48539   4.250   9.854   6.127  0.4435 -0.2640 -0.1255
29686ION     NA48540  12.398   5.184   6.293  0.1457 -0.3423 -0.2538
29687ION     NA48541   6.454   9.639   5.866  0.2161 -0.0067 -0.1090
29688ION     NA48542   5.789  14.260  11.540 -0.0201 -0.0356  0.2308
29689ION     NA48543   6.450   6.188   6.041  0.0729 -0.0338  0.2246
29690ION     NA48544   8.258   6.995  11.602  0.0138 -0.3036 -0.1889
29691ION     NA48545  15.729   0.760  11.893  0.1422 -0.0135  0.0019
29692ION     NA48546   0.124   9.413   6.011 -0.0845  0.1338  0.2138
29693ION     NA48547  11.654   6.152  11.522  0.1959 -0.2414  0.2916
29694ION     NA48548   2.006   1.431   5.860  0.0300  0.1841 -0.0631
29695ION     NA48549   3.136  11.251  11.478  0.1908  0.0445  0.1233
29696ION     NA48550  14.998   4.631  11.605 -0.1478  0.1163  0.1629
29697ION     NA48551  11.963  16.545  11.377 -0.0124  0.1362  0.0344
29698ION     NA48552   1.933  11.004   6.296 -0.3084 -0.2100  0.5053
29699ION     NA48553   7.208  14.852  11.647 -0.1401 -0.2599  0.0826
29700ION     NA48554   0.118   0.727   1.744 -0.1966 -0.0671 -0.1494
29701ION     NA48555  12.709  13.398  11.556  0.0172 -0.2311  0.2288
29702ION     NA48556   6.938   3.634   0.478 -0.2452 -0.0929  0.0134
29703ION     NA48557  11.928   5.309   6.088 -0.1783  0.0262 -0.1424
29704ION     NA48558  13.017  10.528  11.284 -0.1461  0.2376 -0.0565
29705ION     NA48559   4.769  16.694  11.661 -0.0375  0.0692 -0.3051
29706ION     NA48560   9.554   2.480   6.159 -0.2594 -0.1108 -0.1279
29707ION     NA48561  15.302  15.656   6.135  0.2352 -0.2384  0.1636
29708ION     NA48562  13.834  10.696  11.430 -0.3369  0.2162 -0.0570
29709ION     NA48563   3.604   6.592  11.584 -0.0469 -0.3545 -0.0055
29710ION     NA48564  11.655  12.368  11.345 -0.1848  0.1831  0.3620
29711ION     NA48565   3.099  16.118   6.204  0.1928  0.0408  0.0849
29712ION     NA48566  14.865   6.202  16.186 -0.0289  0.1019  0.2147
29713ION     NA48567   9.673   0.977  12.232 -0.0334 -0.1988 -0.1182
29714ION     NA48568   1.389   4.586  15.580 -0.0525 -0.0221  0.1880
29715ION     NA48569  11.910   1.819   5.147 -0.2675 -0.1765 -0.1921
29716ION     NA48570   7.497  16.756  16.462 -0.0099  0.3779 -0.0795
29717ION     NA48571   7.816  10.672   6.098  0.0765 -0.0114  0.1831
29718ION     NA48572   8.823  13.609   6.245  0.0465 -0.1489  0.3229
29719ION     NA48573   5.888   4.452  11.215 -0.0881  0.0820  0.1510
29720ION     NA48574   7.233   7.459  15.541 -0.0213  0.3474 -0.2821
29721ION     NA48575  10.454   7.084   6.068  0.0149 -0.1227  0.1590
29722ION     NA48576   9.687  10.712  11.510  0.2525  0.0646  0.1251
29723ION     NA48577   5.530   8.920  11.983 -0.0787  0.1824 -0.1949
29724ION     NA48578   5.057   2.814  13.086 -0.0630  0.0027  0.2382
29725ION     NA48579   8.986   3.912   3.460 -0.3282  0.0059  0.0809
29726ION     NA48580   7.323   8.403   5.845  0.3897 -0.0609 -0.0877
29727ION     NA48581   6.281   3.567  11.243  0.2542 -0.2750 -0.0183
29728ION     NA48582   4.437  16.971   6.052 -0.0282 -0.0576 -0.1211
29729ION     NA48583  15.809   5.812  13.193 -0.0107 -0.1234 -0.0950
29730ION     NA48584   0.106   8.115  11.451  0.3014 -0.0569  0.1649
29731ION     NA48585  16.724   4.552  12.329 -0.1349  0.2223 -0.4348
29732ION     NA48586  13.737   2.765   6.009  0.0051  0.3530  0.2707
29733ION     NA48587   3.588  14.658  11.453 -0.1254  0.0909 -0.0115
29734ION     NA48588   0.481   2.627   6.175  0.4093 -0.1952 -0.0899
29735ION     NA48589   0.746   1.410  11.723 -0.0096  0.0946  0.0339
29736ION     NA48590  14.799  13.581  11.753 -0.0940  0.0013  0.0204
29737ION     NA48591   3.629   8.558  16.702 -0.0117  0.0307  0.0409
29738ION     NA48592   0.225  16.599  11.700  0.1762 -0.0659  0.0449
29739ION     NA48593  15.577   4.908   5.728 -0.2335 -0.1709 -0.2337
29740ION     NA48594   0.493   9.576  11.372  0.1571 -0.1970  0.2173
29741ION     NA48595   8.190   9.481  11.262  0.1517  0.2393 -0.3285
29742ION     NA48596   6.509  11.140  16.676 -0.1594 -0.0496 -0.0510
29743ION     NA48597   3.870  16.734  13.832 -0.0222 -0.0505 -0.6800
29744ION     NA48598  14.148  11.124  11.552 -0.1175  0.2531  0.3166
29745ION     NA48599   4.303   5.227   5.942 -0.2067  0.3006  0.0113
29746ION     NA48600  13.818  11.134  11.214 -0.0269  0.0635 -0.1919
29747ION     NA48601  13.991   1.003  17.035  0.2235 -0.0474 -0.3496
29748ION     NA48602   5.101   6.537   6.135 -0.1414  0.0543 -0.2369
29749ION     NA48603   4.628  15.143  13.577  0.0681  0.0772 -0.1519
29750ION     NA48604  12.250  15.822   0.915  0.0218  0.0955  0.0891
29751ION     NA48605   2.616   6.365  16.925  0.1120 -0.4375 -0.0263
29752ION     NA48606   9.547   3.431   6.009  0.2230 -0.2404  0.0280
29753ION     NA48607  12.145   1.719   6.085 -0.3668  0.0477  0.1499
29754ION     NA48608   3.757  12.990   6.043  0.2396  0.3140  0.1699
29755ION     NA48609   4.456   4.353   1.576 -0.0291 -0.1134  0.1216
29756ION     NA48610   6.392  10.295   6.284  0.0587  0.0444  0.0838
29757ION     NA48611   0.548   6.458   5.334  0.1409 -0.0326 -0.0916
29758ION     NA48612   0.000   1.715  11.687 -0.2431  0.2281 -0.3270
29759ION     NA48613  15.134   9.242   5.965  0.0476  0.0405 -0.2350
29760ION     NA48614   5.607   4.926   0.315  0.1810  0.1141 -0.1943
29761ION     NA48615   8.610   4.937   5.945  0.2684 -0.0649 -0.0220
29762ION     NA48616  17.308  12.129   2.127  0.0662 -0.2838 -0.2520
29763ION     NA48617  14.821  14.345  11.709  0.2021  0.2468  0.0617
29764ION     NA48618   7.704  12.413   6.150 -0.3418  0.1405  0.0878
29765ION     NA48619  10.503  15.295  14.807 -0.0341  0.0297  0.0794
29766ION     NA48620   4.085   7.420   5.987  0.0912  0.1275 -0.4552
29767ION     NA48621  15.875   3.368   6.304  0.1237 -0.0980  0.0334
29768ION     NA48622  10.250   8.459  11.245  0.1688  0.0102 -0.0940
29769ION     NA48623   6.174   2.388   6.074 -0.0990 -0.1936 -0.0138
29770ION     NA48624   0.371   3.491   6.091 -0.1895 -0.1072 -0.0513
29771ION     NA48625  15.715  11.029   6.280  0.0607  0.1809 -0.1990
29772ION     NA48626  12.771  17.274  11.561  0.1764  0.2095 -0.1534
29773ION     NA48627   6.009   7.129   6.180  0.1635 -0.0509 -0.0275
29774ION     NA48628  13.346   5.437   2.092 -0.0344 -0.1260 -0.1086
29775ION     NA48629  11.585   5.369  11.576  0.3189  0.0098  0.1659
29776ION     NA48630  15.443   1.454   4.622  0.3240  0.1922  0.0333
29777ION     NA48631   5.689  13.178  13.401  0.0353 -0.1271  0.2706
29778ION     NA48632  14.331  16.973  11.619 -0.1551  0.0570  0.0537
29779ION     NA48633  11.637  15.734  11.280  0.1834  0.2460 -0.2627
29780ION     NA48634  16.858   4.440   6.161  0.0526  0.0003 -0.1313
29781ION     NA48635   7.732  15.339   2.993  0.0673  0.2626  0.2440
29782ION     NA48636  13.910  15.243  14.082 -0.1264  0.3586 -0.0488
29783ION     NA48637  16.914   6.459   3.864 -0.2397 -0.0260 -0.0476
29784ION     NA48638   2.971  14.081  13.257 -0.3396  0.1791  0.1480
29785ION     NA48639  13.934   2.979  11.679 -0.0983  0.0257 -0.1283
29786ION     NA48640   6.201  11.470   5.790  0.1305  0.2399 -0.2081
29787ION     NA48641   9.942   1.043   4.151  0.2272 -0.4006 -0.1503
29788ION     NA48642  11.478  16.142  14.902 -0.2137  0.0257  0.1636
29789ION     NA48643  14.048  14.286   6.399 -0.2066  0.1858 -0.2011
29790ION     NA48644   2.357  10.830  11.552  0.0421 -0.2667  0.0721
29791ION     NA48645   7.875  15.619  11.390 -0.0166  0.2548  0.2185
29792ION     NA48646  13.742   6.303   5.876 -0.0079 -0.2750  0.2062
29793ION     NA48647  12.437   5.802  11.529 -0.1258  0.0542 -0.1991
29794ION     NA48648   2.258   0.569   6.160  0.3061  0.0510  0.0889
29795ION     NA48649  12.620  14.308  12.114  0.3894  0.0679 -0.0082
29796ION     NA48650   7.758  13.455   3.493 -0.0618  0.0157  0.1794
29797ION     NA48651  11.134  13.377   6.114 -0.1873 -0.0579 -0.3777
29798ION     NA48652  11.680   5.990   3.071  0.0077 -0.2155 -0.0488
29799ION     NA48653   0.814   8.946   6.060  0.0751  0.1103  0.0924
29800ION     NA48654  13.935   2.997   2.095  0.0159 -0.1935 -0.0882
29801ION     NA48655  15.835   4.589   1.972  0.0897  0.0918 -0.2096
29802ION     NA48656   8.612  10.410   5.832  0.0073 -0.1422 -0.1051
29803ION     NA48657  13.367  10.463   6.130  0.0115 -0.0796 -0.1704
29804ION     NA48658  13.994   4.509  11.784 -0.2864 -0.2611  0.1436
29805ION     NA48659  17.154  12.007  11.591 -0.2159 -0.1142 -0.2564
29806ION     NA48660  17.144  13.745  11.749 -0.3238  0.3475 -0.0772
29807ION     NA48661  16.863   1.514  15.801 -0.2965  0.0111 -0.3458
29808ION     NA48662   4.069   4.274   0.481  0.0481  0.0462  0.0531
29809ION     NA48663   9.478   4.593   2.224  0.4656 -0.1499 -0.1856
29810ION     NA48664   1.117  15.152   6.218  0.0136 -0.2323 -0.1966
29811ION     NA48665   0.355  14.401  16.035  0.0364  0.3147  0.3598
29812ION     NA48666   3.428  13.861  11.613 -0.0608 -0.0800 -0.0287
29813ION     NA48667  16.754   8.022   5.909  0.0037 -0.0575 -0.0620
29814ION     NA48668  12.954   6.435   5.476  0.1705  0.3387 -0.0880
29815ION     NA48669  10.866   3.029  11.316 -0.3958  0.0483 -0.1627
29816ION     NA48670  16.584  16.697  16.368  0.1477  0.0404 -0.1121
29817ION     NA48671  14.806  10.518  11.472 -0.2438  0.0707 -0.0927
29818ION     NA48672  11.598   3.926   5.903 -0.1153 -0.0445  0.1894
29819ION     NA48673   1.486   6.336  11.535 -0.4148 -0.1261  0.1296
29820ION     NA48674  13.329   3.964  11.354 -0.2684 -0.1571 -0.2181
29821ION     NA48675  12.069   0.026   5.975 -0.0917  0.0753  0.1019
29822ION     NA48676  16.677   4.746   1.784 -0.2506 -0.1248 -0.0347
29823ION     NA48677   6.312   5.025   5.057 -0.1274 -0.0272 -0.2155
29824ION     NA48678   4.834  15.476   5.316  0.0172  0.0016  0.1274
29825ION     NA48679  14.578   2.307  11.699  0.1652  0.2042  0.0125
29826ION     NA48680  15.179   0.150  13.882  0.1235 -0.3801  0.1241
29827ION     NA48681  15.057   1.218  11.576 -0.1027  0.2679  0.0330
29828ION     NA48682   8.259   4.747  11.665 -0.0080 -0.1257  0.0693
29829ION     NA48683   8.062  11.389   2.523  0.0618  0.1233 -0.0228
29830ION     NA48684   3.124  13.009   1.484  0.0092  0.0558  0.1687
29831ION     NA48685  12.713  12.606   6.130  0.4308  0.1572 -0.3015
29832ION     NA48686   8.228  13.289  11.454  0.0074  0.1850 -0.0113
29833ION     NA48687   9.128  14.954  11.318  0.4679 -0.0265  0.0746
29834ION     NA48688   4.597   7.873  11.410 -0.0359  0.3216  0.2129
29835ION     NA48689   5.524  10.312  11.583  0.1338  0.1052 -0.0347
29836ION     NA48690   1.886   0.136  16.917  0.2004 -0.0969 -0.0120
29837ION     NA48691   3.363  12.347  13.783 -0.3270  0.0075 -0.0564
29838ION     NA48692  12.868   8.058  11.305 -0.1740 -0.2057  0.0591
29839ION     NA48693   8.412  10.349  11.317 -0.1577  0.0609 -0.1129
29840ION     NA48694   4.444   2.421  11.439 -0.2196 -0.0083 -0.0619
29841ION     NA48695  15.748   3.934  13.044 -0.0370 -0.0496  0.1756
29842ION     NA48696  16.838   3.470  11.750  0.5378 -0.0905  0.2535
29843ION     NA48697  13.355  12.281  11.684 -0.0452 -0.1024  0.1977
29844ION     NA48698   8.180  11.882  11.407 -0.0150  0.0931 -0.3496
29845ION     NA48699  13.596  14.803   5.756 -0.0529  0.0847 -0.0457
29846ION     NA48700   7.900   4.466   5.781  0.0983 -0.1288 -0.2481
29847ION     NA48701  14.461   0.492   6.245 -0.1462 -0.0012 -0.0614
29848ION     NA48702   1.960   1.965  11.304  0.1590  0.2070  0.0771
29849ION     NA48703  14.452   5.302  11.525  0.1529 -0.0624 -0.1623
29850ION     NA48704   4.038   0.179   6.347  0.2239 -0.2605 -0.0780
29851ION     NA48705  15.368   4.936  11.794  0.3883  0.2278  0.0141
29852ION     NA48706  11.757   3.326  11.255  0.2392 -0.0656  0.2799
29853ION     NA48707   2.946   7.352   6.114  0.1811 -0.1802  0.0553
29854ION     NA48708  11.201   1.520  11.562 -0.1471 -0.2231 -0.1040
29855ION     NA48709  12.528   0.656  11.358  0.0953  0.0795  0.1142
29856ION     NA48710   4.399   6.866  11.599  0.0335  0.2183 -0.1310
29857ION     NA48711  15.309   7.009   6.079 -0.0595 -0.2610 -0.0932
29858ION     NA48712   3.104  10.668   3.486  0.0899  0.0041  0.2685
29859ION     NA48713  10.476   7.095  17.348  0.3278  0.2879 -0.2424
29860ION     NA48714   6.707  15.682   6.246  0.0185 -0.1214 -0.1986
29861ION     NA48715   4.029  17.286  11.580 -0.0690  0.0664 -0.0053
29862ION     NA48716  12.609  12.291  11.585  0.0544  0.2597 -0.0560
29863ION     NA48717   3.506  15.327   6.272 -0.0759 -0.2072  0.1728
29864ION     NA48718  16.023  10.448   6.245  0.2884  0.1113 -0.0470
29865ION     NA48719   9.194   5.113   4.740 -0.1994  0.1778  0.0203
29866ION     NA48720  15.522   6.634   5.796  0.3379  0.1607  0.2922
29867ION     NA48721   0.600   4.880  11.467  0.1453 -0.1410  0.0452
29868ION     NA48722   1.593  13.434  11.696 -0.2876 -0.3889  0.1611
29869ION     NA48723   5.196   4.272  11.370 -0.0202 -0.0990  0.0134
29870ION     NA48724   8.108   2.932  14.063  0.2112 -0.0887 -0.0535
29871ION     NA48725   2.285   0.593  14.789  0.0364 -0.0622 -0.3779
29872ION     NA48726  11.864  13.062   5.925  0.1230  0.0500 -0.1052
29873ION     NA48727  12.529   2.610  11.450 -0.0889 -0.1154 -0.2065
29874ION     NA48728   8.918   4.214  11.263 -0.0485  0.2737 -0.0591
29875ION     NA48729   3.547   8.172   6.218  0.0113  0.1992  0.0799
29876ION     NA48730   6.599  10.391  11.535  0.0676  0.1777 -0.1669
29877ION     NA48731   7.531   4.300  11.905 -0.2809  0.3840  0.1721
29878ION     NA48732  16.857  12.711  12.665 -0.0328  0.0993 -0.2183
29879ION     NA48733  13.528  11.280   6.171  0.0485  0.1877 -0.1303
29880ION     NA48734   3.999  16.157   6.110 -0.0047  0.0661 -0.0455
29881ION     NA48735  17.262  16.036  16.091 -0.2140  0.0177  0.4772
29882ION     NA48736   2.552   2.035   6.161  0.0338 -0.0127 -0.0655
29883ION     NA48737   3.626  16.807   6.115 -0.0996 -0.0777 -0.2138
29884ION     NA48738  15.910   9.801  11.469  0.1911 -0.0082 -0.0448
29885ION     NA48739  10.624   5.913  16.192 -0.2696  0.2891  0.2255
29886ION     NA48740   7.332   3.372   5.812  0.1113  0.1318 -0.0059
29887ION     NA48741   5.128   1.046   5.885  0.0709  0.1346  0.2590
29888ION     NA48742   0.314   9.771   6.293 -0.2818 -0.0921  0.2754
29889ION     NA48743   2.491   5.692   5.986 -0.0108  0.0953 -0.0272
29890ION     NA48744   1.919  10.731  14.875 -0.1121 -0.0173 -0.0119
29891ION     NA48745   2.112   2.940   6.193 -0.2876 -0.0814  0.0139
29892ION     NA48746  13.399   9.038   6.056 -0.3473 -0.3613  0.0961
29893ION     NA48747   4.824  10.030  12.817  0.2844  0.0384  0.0578
29894ION     NA48748   3.080   0.922  11.554  0.1171  0.0212 -0.1590
29895ION     NA48749   7.997  12.021  12.464  0.1674  0.0076 -0.0405
29896ION     NA48750   4.858  10.189   2.487  0.2394  0.0512 -0.0635
29897ION     NA48751   2.659   7.603  12.396 -0.2091  0.2664  0.0525
29898ION     NA48752   2.198  13.693   1.859  0.2190  0.2287 -0.0014
29899ION     NA48753  15.036   5.744  14.853  0.0486 -0.0102 -0.1821
29900ION     NA48754   1.316   5.388  11.279  0.1060 -0.0969  0.2986
29901ION     NA48755  17.292   8.863  11.187  0.1266  0.1510 -0.0104
29902ION     NA48756   1.446  15.691  13.440  0.2838 -0.0104 -0.0928
29903ION     NA48757   7.892  13.331   6.344  0.0242 -0.0171 -0.0783
29904ION     NA48758  16.240  13.790   6.415 -0.0725  0.0168  0.2511
29905ION     NA48759  13.603  10.471  14.178 -0.0399 -0.0999 -0.2089
29906ION     NA48760  10.097  16.807   6.174 -0.0752 -0.0353 -0.1728
29907ION     NA48761   9.068  15.372   6.287 -0.1168  0.1908 -0.0920
29908ION     NA48762  14.371   3.297   5.547  0.0662  0.1010  0.0141
29909ION     NA48763  12.662   0.627   0.652  0.0380  0.1962 -0.1476
29910ION     NA48764   2.655   8.953  12.498 -0.1195  0.2492  0.0285
29911ION     NA48765   8.370  16.393   6.167 -0.3733 -0.0156  0.0616
29912ION     NA48766  14.368   7.311   6.095 -0.0902 -0.2340 -0.2092
29913ION     NA48767  10.840   0.259  12.996 -0.1507  0.0987  0.0022
29914ION     NA48768  11.419  14.057  11.508 -0.1586  0.5942  0.0131
29915ION     NA48769  16.933  12.991  11.674 -0.2242 -0.0757  0.3567
29916ION     NA48770  11.545  10.355   6.013 -0.0227 -0.1112 -0.2684
29917ION     NA48771   6.755   7.736   5.850  0.2982 -0.2507 -0.2722
29918ION     NA48772  12.435   9.339  11.431  0.1037  0.1140  0.3830
29919ION     NA48773  11.216   9.513   5.853  0.0980  0.1655 -0.1755
29920ION     NA48774  11.526  16.365  13.016  0.0173 -0.2720  0.1436
29921ION     NA48775  11.574   7.795   6.101  0.1168 -0.0709  0.2349
29922ION     NA48776  14.853  12.713  11.614 -0.0161 -0.0536  0.1209
29923ION     NA48777   5.192   5.700   6.019 -0.0254  0.2722 -0.0003
29924ION     NA48778   3.070   5.021  11.458 -0.1483 -0.1539  0.1132
29925ION     NA48779  15.572  13.122   6.325 -0.1549 -0.3469 -0.1267
29926ION     NA48780   0.559   6.165  11.643  0.0462  0.1145 -0.1847
29927ION     NA48781  11.205  10.643  11.387 -0.0300 -0.0821  0.3122
29928ION     NA48782   7.738  15.695   5.994  0.3240 -0.0987  0.0162
29929ION     NA48783   4.434  11.773  12.316 -0.1204  0.2013 -0.0420
29930ION     NA48784   1.888   1.707  12.300  0.0176 -0.1310  0.1605
29931ION     NA48785   0.024  13.639   6.230  0.0255 -0.3337  0.0235
29932ION     NA48786   2.573   2.543  11.448 -0.3059 -0.3350 -0.0389
29933ION     NA48787   0.307   3.671   3.388 -0.4606  0.0473 -0.3252
29934ION     NA48788  13.342   3.182   5.909  0.2498  0.1430  0.0917
29935ION     NA48789   7.088   8.794  11.755  0.1331  0.1096 -0.1232
29936ION     NA48790  14.581   8.526   5.989  0.2453 -0.3107 -0.1860
29937ION     NA48791  13.426   7.081   5.961  0.1212  0.2242  0.4408
29938ION     NA48792   0.837   3.716   4.196 -0.0169  0.0382 -0.2044
29939ION     NA48793   9.963   4.326  12.156 -0.1154  0.0179  0.0969
29940ION     NA48794   9.665   5.879  12.002 -0.2344  0.3458  0.2179
29941ION     NA48795   8.403   2.627  11.317 -0.0540  0.0469  0.1937
29942ION     NA48796   5.559  12.354  13.167  0.1270  0.0827 -0.1191
29943ION     NA48797  14.615   8.236   5.558 -0.2845 -0.0611  0.0186
29944ION     NA48798   1.034   9.531  14.266  0.0444  0.1043 -0.1539
29945ION     NA48799  10.496   9.105   5.684  0.0836  0.1967 -0.0675
29946ION     NA48800   1.138   1.386   5.993  0.0438 -0.3674  0.1908
29947ION     NA48801   5.300  14.445  11.674  0.2931 -0.3158 -0.0630
29948ION     NA48802   2.584  11.136   2.150  0.2257 -0.1119  0.1420
29949ION     NA48803   7.379   2.681   3.337 -0.0922  0.0923  0.0245
29950ION     NA48804  15.749  15.381   4.037  0.0783 -0.2003 -0.0234
29951ION     NA48805  12.098   3.678   3.044 -0.1220 -0.0337  0.0446
29952ION     NA48806   5.776  17.141  11.424 -0.2236 -0.0814 -0.1879
29953ION     NA48807   0.024  12.793  15.444  0.0681  0.4822  0.0499
29954ION     NA48808  12.505   8.635   1.089  0.1247  0.1033  0.0456
29955ION     NA48809   6.258  16.700   3.677  0.2669 -0.0962  0.1222
29956ION     NA48810   3.939   7.430  11.370 -0.0239 -0.0523  0.0513
29957ION     NA48811  10.458   4.422   6.195 -0.0695 -0.0673  0.5780
29958ION     NA48812   0.155  15.397   6.267  0.0049 -0.0121  0.0890
29959ION     NA48813  12.676  13.833  16.788 -0.1299  0.2615 -0.0295
29960ION     NA48814  11.264  10.740  14.265  0.0768  0.4200 -0.2713
29961ION     NA48815   8.930  13.545  11.193  0.0407 -0.1019 -0.0047
29962ION     NA48816   6.810   7.250  11.506  0.0216  0.1923 -0.2216
29963ION     NA48817  10.682   4.893  11.311 -0.2319  0.0316 -0.2598
29964ION     NA48818   8.315   5.362  11.438  0.0764  0.1361 -0.0719
29965ION     NA48819  12.259  11.583  14.881  0.0937 -0.1209  0.0118
29966ION     NA48820   6.769   6.715   4.387  0.2327  0.2551 -0.1700
29967ION     NA48821  16.134   0.437   6.270  0.2718 -0.1549 -0.0863
29968ION     NA48822   5.770  14.126   4.616  0.0130 -0.1192  0.2472
29969ION     NA48823   1.997   8.869   2.801 -0.2299  0.3262 -0.1533
29970ION     NA48824   5.063   6.775  11.463 -0.0890 -0.2302  0.0602
29971ION     NA48825   2.890   4.577  15.080  0.0068 -0.1928 -0.2134
29972ION     NA48826  12.800  14.330   6.332  0.2220  0.1407  0.4213
29973ION     NA48827   0.986  12.606  11.715 -0.2728 -0.1172  0.0461
29974ION     NA48828  13.602  12.722   3.114  0.1072 -0.0647 -0.1816
29975ION     NA48829   2.120   6.630  15.763 -0.0318  0.0974 -0.0551
29976ION     NA48830  11.886   6.846   6.177 -0.1572  0.0299  0.0222
29977ION     NA48831  11.379  12.391  11.860 -0.0332  0.1782 -0.0777
29978ION     NA48832   6.358   0.872   6.056  0.0090 -0.1628  0.3495
29979ION     NA48833   5.312   9.189   0.845 -0.0920  0.1470 -0.0680
29980ION     NA48834  14.267   9.041  12.542  0.1426  0.0629  0.0659
29981ION     NA48835  15.570   5.751   6.331  0.1295  0.2647  0.0212
29982ION     NA48836  12.183   1.765  16.519 -0.0164  0.0959 -0.0570
29983ION     NA48837   5.037   5.060   6.035  0.0881  0.0332 -0.3347
29984ION     NA48838   0.970  16.115   6.255 -0.0995  0.2602  0.0135
29985ION     NA48839   3.065  14.561   6.264 -0.1402  0.1186 -0.1686
29986ION     NA48840  17.200   0.423   6.273  0.0205  0.1064  0.0984
29987ION     NA48841   9.636   7.222   5.834 -0.2787 -0.2081 -0.2765
29988ION     NA48842   8.337  13.564  14.062  0.0460  0.1292  0.1424
29989ION     NA48843   2.299  15.322   3.747  0.0149  0.0031 -0.0169
29990ION     NA48844   6.024  12.977   5.102  0.2193 -0.0999 -0.2042
29991ION     NA48845   4.601   2.238   5.541 -0.1381  0.1857 -0.0088
29992ION     NA48846   5.188  15.491  14.218 -0.0154 -0.0016  0.1553
29993ION     NA48847  17.046  10.655  11.483 -0.2009 -0.1261  0.0719
29994ION     NA48848  10.718   9.072  15.595 -0.1834 -0.2016 -0.2329
29995ION     NA48849   2.413  13.590  11.543 -0.0103  0.0860  0.0047
29996ION     NA48850   5.430   8.374   5.962  0.0803 -0.0806 -0.1193
29997ION     NA48851   2.318  16.168   6.143 -0.0385  0.4193 -0.1618
29998ION     NA48852   7.486  17.007  11.621  0.1812  0.0289  0.1246
29999ION     NA48853  17.243   0.999  11.731 -0.0370 -0.0472  0.2359
30000ION     NA48854   2.065   7.295   3.780 -0.0435  0.4269 -0.4094
30001ION     NA48855   4.855   2.001   6.028  0.0435 -0.0045 -0.1755
30002ION     NA48856   7.268  11.840  11.335  0.4525 -0.1531 -0.2357
30003ION     NA48857   8.571   8.408   5.867  0.0002 -0.1063  0.1281
30004ION     NA48858   2.214   4.210   6.163 -0.0963  0.1681  0.0724
30005ION     NA48859   9.002  12.211  11.684 -0.0259 -0.2801 -0.1040
30006ION     NA48860  15.934   9.648   5.925  0.1020  0.0732  0.1068
30007ION     NA48861  14.416  16.086   6.027  0.0154  0.1583  0.0140
30008ION     NA48862  16.185  14.136  11.870  0.0718  0.0877  0.0831
30009ION     NA48863   3.957  13.406  11.542 -0.0891  0.1989  0.0370
30010ION     NA48864   8.609  14.180  11.488  0.1112 -0.0716  0.3903
30011ION     NA48865   6.964   7.544   3.934  0.0399  0.2340  0.1447
30012ION     NA48866  12.363  10.504   6.005 -0.1119 -0.0107 -0.0517
30013ION     NA48867  12.036  11.597  11.401  0.1076 -0.0948  0.0042
30014ION     NA48868   5.621  15.441   2.846  0.0627  0.1139 -0.1119
30015ION     NA48869   8.502   6.711   6.093  0.0717 -0.1506 -0.2786
30016ION     NA48870  14.330   7.160  17.045 -0.0329  0.1092  0.0781
30017ION     NA48871   4.245   1.751   2.570 -0.0312 -0.0385 -0.0312
30018ION     NA48872   0.707   6.740  11.659 -0.0040  0.0708  0.0237
30019ION     NA48873   0.002   4.400   6.097  0.2308 -0.0914  0.0406
30020ION     NA48874   8.266  17.373   6.070  0.3032  0.0242 -0.2604
30021ION     NA48875   0.631  12.112   4.706  0.1480 -0.0723 -0.0471
30022ION     NA48876   5.484  12.188   1.919  0.3842  0.2135 -0.2236
30023ION     NA48877  15.244   2.810   5.676 -0.1469  0.0327  0.1285
30024ION     NA48878   7.059  15.739  11.723  0.1290 -0.1223 -0.0687
30025ION     NA48879  12.115   2.511   6.180 -0.0189  0.0444  0.1330
30026ION     NA48880   6.228   9.242   0.674  0.0354  0.0001 -0.0147
30027ION     NA48881   6.794   9.678  11.538  0.0277  0.1392  0.0744
30028ION     NA48882  10.686   9.171   3.257  0.2687  0.1546  0.1832
30029ION     NA48883   6.062   0.273   2.247 -0.0448 -0.2004  0.1693
30030ION     NA48884   5.948  12.351   6.110  0.0729 -0.1228  0.0385
30031ION     NA48885   2.493   3.476  11.560  0.0286  0.2643 -0.2285
30032ION     NA48886  10.054  14.965  16.237  0.1749  0.0366  0.1241
30033ION     NA48887  10.486   1.005   5.948 -0.0968 -0.2690 -0.0628
30034ION     NA48888  10.812   5.264  15.178 -0.2971 -0.0067  0.0899
30035ION     NA48889   3.867  14.581   5.945  0.0177 -0.0373  0.1031
30036ION     NA48890   2.451  12.681  11.710  0.1600  0.1031 -0.2860
30037ION     NA48891   1.476   7.854   2.297 -0.1510  0.3573 -0.0170
30038ION     NA48892   2.874  14.642  11.323  0.0139 -0.1001 -0.0957
30039ION     NA48893   8.171  14.854  15.718  0.0354 -0.2668  0.2439
30040ION     NA48894   5.586   7.776   5.180 -0.0110 -0.2004  0.3197
30041ION     NA48895   0.074   5.345   2.054 -0.0622  0.0337  0.2745
30042ION     NA48896   2.763   6.972  11.310 -0.0100 -0.1509 -0.0941
30043ION     NA48897   5.128   4.971   5.538 -0.0249  0.2843 -0.4490
30044ION     NA48898   7.723  11.037   3.894  0.3628 -0.0619 -0.0508
30045ION     NA48899   6.226   3.166  14.756 -0.0438  0.0995  0.3780
30046ION     NA48900   2.609   8.417  11.531 -0.1401 -0.0289 -0.0219
30047ION     NA48901   0.933  10.389   6.186  0.0131  0.1180 -0.2836
30048ION     NA48902   8.044  14.198  16.536 -0.2107 -0.3364 -0.0648
30049ION     NA48903   6.220   0.002  11.378 -0.0534 -0.1053 -0.0022
30050ION     NA48904  11.792   1.226   5.931 -0.1676 -0.1880  0.0614
30051ION     NA48905  17.076  14.281  11.859 -0.0370 -0.0341 -0.0989
30052ION     NA48906  16.203   6.226  11.375 -0.0853 -0.0685  0.3713
30053ION     NA48907  14.107  12.441   6.183  0.2335 -0.0137 -0.0500
30054ION     NA48908   0.102   1.764   6.034  0.2501  0.1531  0.0043
30055ION     NA48909  13.769   5.122   4.502 -0.1214  0.1005  0.2413
30056ION     NA48910   4.496   3.832  11.291 -0.2076 -0.0201 -0.2322
30057ION     NA48911  12.249   6.669  11.310 -0.1428 -0.0768 -0.0015
30058ION     NA48912  13.312   2.019  13.130  0.1560 -0.1262 -0.0734
30059ION     NA48913  10.342  16.442  11.554 -0.1233 -0.2850  0.1940
30060ION     NA48914   0.907  11.185  11.536  0.0587 -0.0708  0.0285
30061ION     NA48915   5.293  10.653   6.083 -0.1569  0.0499  0.1762
30062ION     NA48916  15.894  16.958   6.287  0.0029  0.1438  0.0865
30063ION     NA48917   8.790   4.384  13.088  0.3146 -0.0352 -0.0830
30064ION     NA48918   2.703  16.921   6.100  0.1697 -0.0968 -0.2143
30065ION     NA48919   2.533   2.345   4.007  0.4449  0.1485  0.2569
30066ION     NA48920  10.964  16.596   6.125  0.0520  0.0523  0.2311
30067ION     NA48921   3.220   9.248  11.276  0.1452  0.0764 -0.2394
30068ION     NA48922   2.804   5.487  11.502  0.0871 -0.0581 -0.1610
30069ION     NA48923   4.242   1.308   6.166 -0.3134  0.2259  0.1409
30070ION     NA48924  14.510   8.830  11.733 -0.0646  0.0641 -0.3248
30071ION     NA48925   6.306   8.695   6.202  0.1761 -0.0462 -0.0084
30072ION     NA48926   9.835   1.689   5.865  0.0740  0.1696 -0.1232
30073ION     NA48927   4.515   8.266   6.045  0.0644  0.1864 -0.0034
30074ION     NA48928  16.209   5.173  11.419 -0.2088  0.2777  0.0828
30075ION     NA48929   1.574   7.412   6.109 -0.1077  0.1215  0.2119
30076ION     NA48930  11.231   7.464  11.189  0.0903  0.0234 -0.0564
30077ION     NA48931   6.068   0.132   6.231  0.0193  0.1694 -0.1468
30078ION     NA48932   0.413   8.655  15.415  0.0673  0.2388  0.2127
30079ION     NA48933   2.990  11.359  15.180  0.4197  0.2526  0.2587
30080ION     NA48934   7.143  14.164   5.956 -0.0456  0.4020  0.3792
30081ION     NA48935   9.110   5.210  11.508  0.1329  0.2689  0.0387
30082ION     NA48936  15.939   8.438   6.123 -0.2243 -0.1152 -0.1061
30083ION     NA48937  14.116   6.408   2.331 -0.2459  0.1153  0.0850
30084ION     NA48938   1.796   9.004   6.147 -0.2306  0.2676 -0.2328
30085ION     NA48939  11.255   5.100   5.994 -0.1955 -0.2451 -0.0601
30086ION     NA48940   8.114  11.519  16.398 -0.1936  0.1067 -0.2958
30087ION     NA48941  10.605   9.938   6.129 -0.0379 -0.3185  0.1732
30088ION     NA48942   9.454  12.995   6.203  0.1916  0.0239 -0.1570
30089ION     NA48943  11.445   3.063   6.045  0.0662 -0.1388  0.1521
30090ION     NA48944   7.599   8.517   3.799 -0.1131 -0.4069  0.3796
30091ION     NA48945   0.624   7.608   6.066  0.3698 -0.2145 -0.0511
30092ION     NA48946   2.553  10.281  15.478 -0.0404 -0.0901 -0.0246
30093ION     NA48947   9.128  17.078   6.163  0.0682 -0.1218  0.2036
30094ION     NA48948   9.474  11.659   1.155 -0.0758  0.0967  0.1375
30095ION     NA48949  12.504  10.788  11.421 -0.0524  0.0132  0.0560
30096ION     NA48950   7.248   7.381  11.671 -0.2152  0.0817 -0.4885
30097ION     NA48951   4.919  14.973  11.709 -0.2199 -0.1751 -0.0533
30098ION     NA48952   2.408   6.728   5.752 -0.0257  0.0301 -0.2532
30099ION     NA48953  16.771  16.579   6.026  0.0144  0.3683 -0.0890
30100ION     NA48954   9.022   1.204  16.609 -0.0007 -0.0374  0.0609
30101ION     NA48955   4.169  10.083  11.929  0.0485 -0.0073 -0.1264
30102ION     NA48956   0.252  12.679  17.476  0.1061  0.1692 -0.2889
30103ION     NA48957   5.596  15.325  11.841  0.1302 -0.0502 -0.0298
30104ION     NA48958  15.561  17.372   1.034 -0.0508  0.1759  0.0430
30105ION     NA48959  12.592  13.433   6.335  0.0190 -0.1192  0.0047
30106ION     NA48960   9.105   8.050  13.454  0.2339  0.0992 -0.0107
30107ION     NA48961   4.461  14.448   5.281  0.0022  0.1513 -0.0674
30108ION     NA48962  16.870   9.993   5.518  0.1007  0.0372 -0.1442
30109ION     NA48963   2.800  10.923   6.147 -0.2304 -0.3068 -0.1754
30110ION     NA48964   9.924  16.683  15.801  0.1257  0.1716 -0.0975
30111ION     NA48965  16.594   0.371  11.738  0.0634  0.1359 -0.1425
30112ION     NA48966  11.021   5.416   2.470 -0.3777 -0.4050 -0.1934
30113ION     NA48967  15.134   6.643  11.204 -0.1256 -0.0876 -0.3294
30114ION     NA48968  13.235   4.804   6.191 -0.1656  0.0029  0.0911
30115ION     NA48969   4.927   3.732  12.367  0.4093 -0.1164 -0.0493
30116ION     NA48970   3.706   3.382  11.537  0.1545 -0.3964 -0.1106
30117ION     NA48971   1.744  16.526   6.079  0.1508  0.1031  0.2320
30118ION     NA48972  12.497   4.214   6.063  0.1294  0.4730  0.1982
30119ION     NA48973  11.943  14.979  11.529 -0.1091 -0.2736  0.0254
30120ION     NA48974   9.882  11.129   6.068 -0.1216 -0.0658  0.1333
30121ION     NA48975  15.544   3.018  12.524  0.0448 -0.1321 -0.2253
30122ION     NA48976  10.955   2.893   3.406 -0.1553 -0.0494 -0.0135
30123ION     NA48977  10.488   3.042   6.074  0.2741  0.4774  0.2748
30124ION     NA48978  13.785   6.863  11.377 -0.2354 -0.1648 -0.0500
30125ION     NA48979   4.240  13.664   6.000  0.4103  0.1080 -0.1483
30126ION     NA48980   6.043   6.423  11.491 -0.1733 -0.0696  0.3452
30127ION     NA48981  13.369   9.721  11.417 -0.0869 -0.0055  0.0146
30128ION     NA48982  16.371   1.932   5.505 -0.0886  0.1641  0.0972
30129ION     NA48983   8.525   8.516  11.539 -0.3461  0.1056 -0.2364
30130ION     NA48984   9.331  17.361   5.720  0.2127 -0.1892 -0.1096
30131ION     NA48985  10.951   5.586   6.046  0.0467  0.1247 -0.1007
30132ION     NA48986   1.104   4.793   5.774 -0.1901  0.1394 -0.0470
30133ION     NA48987  12.887  11.528  11.521 -0.0831  0.3959 -0.0042
30134ION     NA48988   9.365   6.823   1.434  0.2356 -0.1873 -0.1127
30135ION     NA48989  12.063   4.696   4.057 -0.2295  0.0743  0.0132
30136ION     NA48990  11.622   0.657  11.436  0.1051  0.4428  0.1998
30137ION     NA48991  15.490   7.726  11.512  0.1114  0.1763 -0.2091
30138ION     NA48992   8.611   0.429  11.342  0.0619 -0.2434  0.0665
30139ION     NA48993  16.679   7.134   6.099 -0.0208  0.0616 -0.0594
30140ION     NA48994   8.596   5.952  11.580  0.0019 -0.0992  0.2056
30141ION     NA48995   7.461  13.682   4.809  0.0333  0.1917  0.0122
30142ION     NA48996   1.530   5.641  17.300  0.1073 -0.0764 -0.0476
30143ION     NA48997  13.538  12.978  11.612 -0.3592  0.0811  0.2794
30144ION     NA48998  14.934   6.014   6.020 -0.1878 -0.0563 -0.2551
30145ION     NA48999   0.378  16.988   6.188 -0.0108 -0.0425 -0.0402
30146ION     NA49000   0.386   4.112  11.520 -0.2052  0.1901  0.3642
30147ION     NA49001   9.804   8.105  11.278  0.0429 -0.0695 -0.3847
30148ION     NA49002  11.755   8.492   4.378  0.0590 -0.0740 -0.0916
30149ION     NA49003   5.112   1.889  11.607  0.1073 -0.1696  0.1332
30150ION     NA49004   7.744   5.029  17.420  0.0955  0.0292 -0.1748
30151ION     NA49005   0.484  14.632  11.661 -0.1469  0.0603 -0.1608
30152ION     NA49006  10.335   3.653  12.764 -0.1591 -0.0207 -0.0531
30153ION     NA49007  13.031   7.424   5.976 -0.1538  0.2868  0.0284
30154ION     NA49008   2.280   9.657   6.238  0.0562 -0.2744  0.0934
30155ION     NA49009   8.520  11.941   6.053  0.2318  0.2378 -0.0724
30156ION     NA49010  11.817   8.039  11.239  0.0742 -0.0982 -0.0137
30157ION     NA49011   1.971  15.799  12.268  0.1899  0.1065 -0.0501
30158ION     NA49012   0.913   5.341   5.902 -0.0998  0.2203  0.1156
30159ION     NA49013   0.777   2.520   1.147 -0.0304  0.3454  0.1648
30160ION     NA49014  15.336  14.509   6.337  0.1311  0.1438  0.1450
30161ION     NA49015   1.966  14.254  11.623 -0.0618 -0.3576 -0.1841
30162ION     NA49016   1.596   3.181  11.724 -0.0815 -0.1489 -0.1840
30163ION     NA49017   4.862   9.640  11.602  0.2125  0.1420  0.1763
30164ION     NA49018  14.805   6.038  15.286 -0.2148  0.1285  0.1407
30165ION     NA49019  13.630   5.789  12.694 -0.0404 -0.0219  0.0583
  17.40594  17.40594  17.48562
