INSANE! Membrane UpperLeaflet>loPI:POPI:DPPI:PYPI:ERGO=80.0:5.0:3.0:2.0:10.0 LowerLeaflet>loPI:POPI:DPPI:PYPI:ERGO=80.0:5.0:3.0:2.0:10.0
49019
    1loPI    C1    1   3.802   1.024   9.586  0.0698 -0.1066 -0.0575
    1loPI    C2    2   3.918   1.385   9.459  0.2779 -0.2152 -0.1817
    1loPI    C3    3   3.551   1.252   9.374  0.1360  0.0384  0.0186
    1loPI   PO4    4   4.004   0.861   9.505 -0.2681  0.1558  0.2239
    1loPI   GL1    5   3.806   0.618   9.182  0.1351 -0.0391  0.2496
    1loPI   GL2    6   3.579   0.797   9.155 -0.1605  0.0228  0.2245
    1loPI   C1A    7   3.970   0.507   8.718 -0.3289  0.0347  0.4072
    1loPI   C2A    8   3.955   0.277   8.304 -0.1423 -0.1495  0.1693
    1loPI   C3A    9   3.831  -0.051   7.997 -0.0492  0.2526  0.0200
    1loPI   C4A   10   3.613  -0.228   7.627 -0.1117  0.0915 -0.1849
    1loPI   C5A   11   3.688  -0.550   7.318 -0.2888  0.0501 -0.3741
    1loPI   C6A   12   3.627  -0.979   7.162  0.0203 -0.2611 -0.0468
    1loPI   C1B   13   3.487   0.768   8.689 -0.1051 -0.2313 -0.4471
    1loPI   C2B   14   3.467   0.751   8.334  0.2273 -0.0613 -0.3324
    1loPI   C3B   15   3.154   0.583   7.932 -0.3398  0.0541 -0.2106
    1loPI   C4B   16   3.052   0.640   7.481 -0.0779  0.0655 -0.0026
    2loPI    C1   17   9.647  15.204   9.861 -0.0130 -0.1876  0.0421
    2loPI    C2   18   9.485  15.547   9.988  0.0577 -0.0903 -0.1269
    2loPI    C3   19   9.367  15.199  10.146 -0.1682 -0.0048 -0.1046
    2loPI   PO4   20   9.617  15.227   9.598  0.0954 -0.0277 -0.0666
    2loPI   GL1   21   9.654  14.936   9.094 -0.6561  0.0323 -0.0053
    2loPI   GL2   22   9.909  15.308   9.175 -0.1327 -0.1868  0.2345
    2loPI   C1A   23   9.273  14.925   8.859 -0.0050 -0.1787 -0.0401
    2loPI   C2A   24   8.847  15.121   8.727 -0.0092  0.1229  0.1468
    2loPI   C3A   25   8.777  15.213   8.378 -0.0417 -0.0911  0.0719
    2loPI   C4A   26   8.419  15.292   8.120 -0.1322  0.1528  0.2940
    2loPI   C5A   27   8.466  15.449   7.737 -0.1651 -0.2052 -0.3937
    2loPI   C6A   28   8.315  15.707   7.278  0.1440 -0.0481 -0.1045
    2loPI   C1B   29   9.645  15.383   8.879  0.1349  0.0695 -0.3568
    2loPI   C2B   30   9.388  15.372   8.583  0.2681  0.1805  0.0670
    2loPI   C3B   31   9.185  15.392   8.144  0.2761  0.2064  0.0426
    2loPI   C4B   32   8.858  15.115   7.900 -0.0400 -0.1230 -0.0698
    3loPI    C1   33  18.968   2.310  10.212 -0.1215 -0.1174 -0.1491
    3loPI    C2   34  18.661   2.109  10.371 -0.3466  0.1476 -0.2402
    3loPI    C3   35  18.751   2.476  10.504  0.0706 -0.0122 -0.0638
    3loPI   PO4   36  19.183   2.160  10.103 -0.0224 -0.1723  0.1446
    3loPI   GL1   37  19.021   2.299   9.638 -0.1394  0.1132 -0.0284
    3loPI   GL2   38  18.963   2.539   9.790 -0.4064  0.1727  0.0184
    3loPI   C1A   39  19.026   2.235   9.092  0.0372 -0.1154 -0.3744
    3loPI   C2A   40  18.876   2.245   8.717  0.1011 -0.0081  0.0884
    3loPI   C3A   41  18.932   2.174   8.314 -0.4352  0.0614 -0.0558
    3loPI   C4A   42  18.948   2.357   7.836 -0.0571  0.0579 -0.3051
    3loPI   C5A   43  19.318   2.242   7.585  0.0680  0.0645  0.0168
    3loPI   C6A   44  19.557   2.360   7.218  0.1279  0.1009  0.2435
    3loPI   C1B   45  18.859   2.846   9.578  0.1978 -0.0588  0.3167
    3loPI   C2B   46  18.493   2.965   9.408 -0.2719 -0.4526 -0.1131
    3loPI   C3B   47  18.313   3.017   9.039 -0.1858 -0.2015 -0.1211
    3loPI   C4B   48  18.305   2.987   8.648  0.0481  0.2169 -0.1880
    4loPI    C1   49   5.432  14.188  10.008  0.3884  0.2638  0.0338
    4loPI    C2   50   5.353  13.899  10.274  0.2004  0.0078 -0.2919
    4loPI    C3   51   5.603  14.197  10.370 -0.0129  0.0271  0.2362
    4loPI   PO4   52   5.544  14.082   9.827 -0.0509 -0.0387 -0.0168
    4loPI   GL1   53   5.625  13.913   9.319  0.2316  0.0819 -0.2878
    4loPI   GL2   54   5.833  13.725   9.239 -0.4349  0.0293 -0.2428
    4loPI   C1A   55   5.692  14.133   9.029  0.3066  0.0667 -0.2590
    4loPI   C2A   56   5.451  14.231   8.582 -0.2012 -0.1482  0.1052
    4loPI   C3A   57   5.115  14.293   8.232 -0.1484 -0.1072  0.0866
    4loPI   C4A   58   4.746  14.207   7.941 -0.2452  0.1024  0.0961
    4loPI   C5A   59   4.500  14.062   7.591  0.1159 -0.2386  0.2133
    4loPI   C6A   60   4.112  14.068   7.405 -0.0058  0.1590  0.1572
    4loPI   C1B   61   5.929  13.762   8.854  0.1518 -0.2541  0.1658
    4loPI   C2B   62   5.710  13.801   8.515 -0.1719  0.1002  0.2432
    4loPI   C3B   63   5.500  13.811   8.135 -0.0676 -0.1088 -0.3591
    4loPI   C4B   64   5.478  14.146   7.928 -0.0068  0.3118  0.0411
    5loPI    C1   65   9.077  10.393  10.234  0.1263  0.1731 -0.0633
    5loPI    C2   66   9.347  10.139  10.384  0.1666  0.1666 -0.1459
    5loPI    C3   67   9.260  10.477  10.580 -0.0316 -0.0028  0.0647
    5loPI   PO4   68   9.126  10.548  10.067  0.0056 -0.2136  0.0247
    5loPI   GL1   69   9.061  10.751   9.703  0.1270 -0.0016 -0.1743
    5loPI   GL2   70   8.852  10.546   9.624 -0.2471  0.1132 -0.0685
    5loPI   C1A   71   9.271  10.425   9.473  0.0967  0.0302 -0.0455
    5loPI   C2A   72   9.383  10.485   9.039  0.0791  0.2065  0.1605
    5loPI   C3A   73   9.554  10.418   8.648 -0.0344  0.3536  0.2361
    5loPI   C4A   74   9.726  10.253   8.279  0.3378 -0.2921  0.1505
    5loPI   C5A   75   9.672  10.240   7.897 -0.1256  0.2688  0.0040
    5loPI   C6A   76   9.501  10.577   7.480 -0.0796 -0.1638  0.1880
    5loPI   C1B   77   8.824  10.741   9.269  0.2951 -0.0948 -0.3337
    5loPI   C2B   78   8.697  11.068   8.983  0.1609 -0.1823  0.2928
    5loPI   C3B   79   8.528  10.804   8.561 -0.0138 -0.0586 -0.0062
    5loPI   C4B   80   8.333  10.813   8.218  0.1605 -0.0296 -0.0264
    6loPI    C1   81  13.932  13.390  10.167  0.0370 -0.1891  0.1722
    6loPI    C2   82  14.177  13.705  10.202  0.1326 -0.2468  0.0315
    6loPI    C3   83  13.853  13.676  10.435  0.2255 -0.1387  0.1755
    6loPI   PO4   84  13.943  13.375   9.914  0.0924 -0.2147  0.1412
    6loPI   GL1   85  14.110  13.342   9.567 -0.1223 -0.1685 -0.1833
    6loPI   GL2   86  14.325  13.205   9.388 -0.2342  0.0551  0.0946
    6loPI   C1A   87  14.005  13.626   9.164  0.0069  0.0143 -0.1052
    6loPI   C2A   88  13.598  13.693   8.990  0.1872  0.0688 -0.1227
    6loPI   C3A   89  13.495  13.541   8.594 -0.4540 -0.1095 -0.3768
    6loPI   C4A   90  13.398  13.370   8.228 -0.2832  0.1829 -0.0848
    6loPI   C5A   91  13.009  13.279   8.018 -0.2556  0.1239 -0.1621
    6loPI   C6A   92  12.690  13.141   8.189  0.0425 -0.1558  0.2895
    6loPI   C1B   93  14.237  13.145   8.961  0.1250  0.2709  0.3695
    6loPI   C2B   94  14.276  13.094   8.579  0.0405  0.4265  0.0651
    6loPI   C3B   95  14.352  13.265   8.209 -0.1252  0.3905 -0.0194
    6loPI   C4B   96  14.566  13.316   7.869  0.1290  0.1787  0.3053
    7loPI    C1   97   9.409  11.556   9.800  0.1321  0.1436  0.2907
    7loPI    C2   98   9.053  11.730   9.861  0.0345  0.0213  0.0823
    7loPI    C3   99   9.389  11.917   9.970 -0.0688  0.3386 -0.1294
    7loPI   PO4  100   9.422  11.479   9.534  0.1237 -0.2803  0.2961
    7loPI   GL1  101   9.432  11.554   9.149  0.5206 -0.2667  0.0210
    7loPI   GL2  102   9.729  11.705   9.227  0.1267  0.0898 -0.0021
    7loPI   C1A  103   9.233  11.510   8.812  0.2223  0.0781 -0.3633
    7loPI   C2A  104   9.307  11.256   8.509 -0.0961  0.0295 -0.1724
    7loPI   C3A  105   9.457  11.225   8.140  0.1921  0.1987  0.0820
    7loPI   C4A  106   9.807  11.195   7.873 -0.3271  0.1197 -0.0658
    7loPI   C5A  107  10.171  11.325   7.679 -0.1184  0.0560 -0.0294
    7loPI   C6A  108  10.272  11.410   7.232 -0.1509 -0.1931  0.3200
    7loPI   C1B  109   9.917  11.895   8.888 -0.0519  0.0163 -0.0118
    7loPI   C2B  110   9.969  12.059   8.461 -0.0483  0.2172 -0.0798
    7loPI   C3B  111   9.763  12.018   8.092  0.1508  0.0915 -0.1698
    7loPI   C4B  112  10.043  12.249   7.759 -0.2466  0.2327  0.2594
    8loPI    C1  113  12.400   5.438  10.100 -0.0393  0.1752 -0.3260
    8loPI    C2  114  12.189   5.117  10.213  0.0765  0.1125 -0.2856
    8loPI    C3  115  12.042   5.484  10.273  0.0970  0.0772 -0.0098
    8loPI   PO4  116  12.542   5.282   9.843 -0.0826 -0.0766 -0.1490
    8loPI   GL1  117  12.930   5.492   9.598 -0.1914 -0.0166  0.1710
    8loPI   GL2  118  12.933   5.802   9.511  0.2779  0.0506 -0.0922
    8loPI   C1A  119  12.932   5.263   9.283 -0.2347 -0.1601 -0.2375
    8loPI   C2A  120  12.750   5.117   9.022 -0.0581  0.0896  0.2139
    8loPI   C3A  121  12.600   4.803   8.860  0.1797  0.0973 -0.4046
    8loPI   C4A  122  12.572   4.624   8.455  0.1633  0.0899  0.0432
    8loPI   C5A  123  12.459   4.704   8.038  0.2631 -0.3700  0.0095
    8loPI   C6A  124  12.758   4.525   7.728 -0.0827  0.0943  0.0272
    8loPI   C1B  125  12.845   5.795   9.104  0.0983  0.0100 -0.0732
    8loPI   C2B  126  12.574   5.958   8.825  0.0459 -0.1150  0.0160
    8loPI   C3B  127  12.246   6.231   8.862 -0.1226  0.1072  0.3702
    8loPI   C4B  128  11.901   6.457   8.684  0.2768  0.0672  0.0113
    9loPI    C1  129  15.900   7.212  10.254 -0.0359  0.2607 -0.0066
    9loPI    C2  130  15.997   7.483  10.532  0.2288  0.0020  0.1585
    9loPI    C3  131  15.887   7.114  10.642 -0.3299  0.0961 -0.0555
    9loPI   PO4  132  16.008   7.282  10.061 -0.0244  0.0390 -0.5307
    9loPI   GL1  133  16.002   7.070   9.638 -0.2259 -0.0643 -0.1902
    9loPI   GL2  134  16.013   7.199   9.391  0.0336 -0.1006  0.3240
    9loPI   C1A  135  15.841   6.733   9.255 -0.2381  0.1947  0.3548
    9loPI   C2A  136  15.619   6.691   8.919 -0.0562 -0.4956 -0.1343
    9loPI   C3A  137  15.542   7.002   8.565  0.2204  0.2232  0.1440
    9loPI   C4A  138  15.302   6.969   8.167  0.1852 -0.0232 -0.4494
    9loPI   C5A  139  15.058   6.761   7.942  0.1057 -0.2445  0.5962
    9loPI   C6A  140  15.084   6.362   7.780  0.0166  0.2035  0.1960
    9loPI   C1B  141  15.930   7.218   8.969  0.1079  0.1569  0.0491
    9loPI   C2B  142  16.007   7.215   8.607 -0.0384  0.1450 -0.3168
    9loPI   C3B  143  16.117   6.982   8.085 -0.1221 -0.0698  0.1050
    9loPI   C4B  144  16.136   6.709   7.848  0.0706 -0.1055  0.0293
   10loPI    C1  145   7.036   5.108  10.004  0.2190  0.3144 -0.0706
   10loPI    C2  146   7.432   5.128   9.958  0.2101  0.1135 -0.2501
   10loPI    C3  147   7.266   4.801  10.116  0.1051  0.1438 -0.2971
   10loPI   PO4  148   6.952   5.193   9.728  0.4045  0.2098  0.0314
   10loPI   GL1  149   7.003   5.418   9.358  0.3746 -0.0413 -0.0513
   10loPI   GL2  150   7.081   5.734   9.265 -0.0687 -0.1642 -0.3012
   10loPI   C1A  151   7.265   5.325   8.993  0.3573  0.1659  0.1597
   10loPI   C2A  152   7.497   5.369   8.794 -0.2135  0.5364  0.1954
   10loPI   C3A  153   7.675   5.306   8.475  0.3949 -0.1012 -0.2586
   10loPI   C4A  154   7.967   5.460   8.222  0.2911  0.1671 -0.0996
   10loPI   C5A  155   8.146   5.501   7.924  0.2399  0.3661  0.0298
   10loPI   C6A  156   8.137   5.469   7.466  0.0989  0.1613 -0.1028
   10loPI   C1B  157   6.971   5.719   8.895  0.4324  0.1367 -0.0058
   10loPI   C2B  158   7.107   5.626   8.488  0.0637  0.1580  0.2313
   10loPI   C3B  159   7.086   5.778   8.022 -0.1478 -0.0756  0.0016
   10loPI   C4B  160   6.990   5.952   7.570  0.1248 -0.2915 -0.0205
   11loPI    C1  161   1.654  10.573  10.242  0.1923  0.0351  0.1742
   11loPI    C2  162   1.485  10.874  10.444 -0.1124 -0.1303  0.1725
   11loPI    C3  163   1.757  10.640  10.622  0.1767  0.1824  0.1529
   11loPI   PO4  164   1.639  10.648   9.997  0.0353 -0.1870  0.4707
   11loPI   GL1  165   1.324  10.557   9.649 -0.1119  0.0001  0.2651
   11loPI   GL2  166   1.458  10.936   9.609 -0.1254 -0.0713 -0.1317
   11loPI   C1A  167   1.172  10.446   9.344  0.1469 -0.1297  0.1547
   11loPI   C2A  168   1.133  10.326   8.946 -0.0240 -0.1037 -0.0620
   11loPI   C3A  169   1.071  10.344   8.512  0.0609  0.0330  0.0236
   11loPI   C4A  170   0.834  10.567   8.139  0.1338  0.2751  0.1609
   11loPI   C5A  171   0.809  10.816   7.862  0.1246  0.0336  0.0408
   11loPI   C6A  172   0.678  10.711   7.474 -0.2049 -0.0181 -0.0021
   11loPI   C1B  173   1.082  10.920   9.288  0.2347  0.0993 -0.3245
   11loPI   C2B  174   1.065  10.864   8.916 -0.0292  0.0212  0.2037
   11loPI   C3B  175   0.830  10.956   8.493  0.0586 -0.1135  0.0905
   11loPI   C4B  176   0.441  10.720   8.480 -0.1403 -0.0423 -0.0493
   12loPI    C1  177   3.727  18.945  10.087 -0.0936 -0.1414 -0.0784
   12loPI    C2  178   3.841  18.645  10.326  0.1858 -0.1131 -0.1728
   12loPI    C3  179   3.541  18.885  10.436  0.1233 -0.2753  0.0163
   12loPI   PO4  180   4.005  18.873   9.849 -0.0919 -0.0857 -0.3476
   12loPI   GL1  181   4.063  18.854   9.361 -0.2938  0.0808 -0.3065
   12loPI   GL2  182   4.456  18.818   9.327  0.1489  0.2221  0.0174
   12loPI   C1A  183   4.021  18.457   9.136 -0.2249 -0.0519 -0.0916
   12loPI   C2A  184   4.213  18.367   8.762 -0.2597 -0.3616 -0.0460
   12loPI   C3A  185   4.319  18.243   8.302 -0.1032 -0.0310 -0.0959
   12loPI   C4A  186   4.351  18.015   8.020 -0.0965  0.1273 -0.3871
   12loPI   C5A  187   4.223  18.018   7.765  0.0567  0.0478  0.1204
   12loPI   C6A  188   4.139  18.144   7.325  0.1825 -0.0996  0.1020
   12loPI   C1B  189   4.490  18.715   8.947 -0.2115  0.2761 -0.0038
   12loPI   C2B  190   4.483  18.703   8.478 -0.0426  0.0281  0.1093
   12loPI   C3B  191   4.736  18.631   8.210  0.2051  0.0719 -0.0171
   12loPI   C4B  192   4.568  18.428   7.759  0.2967  0.1803 -0.2352
   13loPI    C1  193  17.826  13.683  10.147  0.1846  0.0220 -0.0149
   13loPI    C2  194  17.593  13.932  10.356  0.1765  0.0274 -0.0304
   13loPI    C3  195  17.982  14.013  10.311  0.1962 -0.0184  0.0560
   13loPI   PO4  196  17.729  13.632   9.882  0.0537 -0.0365  0.0735
   13loPI   GL1  197  17.679  13.802   9.561 -0.1778  0.1781  0.0242
   13loPI   GL2  198  17.701  14.127   9.342  0.0380  0.0816 -0.0139
   13loPI   C1A  199  17.667  13.747   9.017  0.2250  0.0768  0.0247
   13loPI   C2A  200  17.734  13.492   8.702 -0.3645  0.3399 -0.1586
   13loPI   C3A  201  17.979  13.408   8.338  0.0219 -0.3236  0.0650
   13loPI   C4A  202  18.051  13.533   7.903 -0.0343  0.0083  0.3901
   13loPI   C5A  203  18.208  13.412   7.529 -0.1143 -0.2086  0.0567
   13loPI   C6A  204  18.637  13.516   7.571  0.5784  0.1093 -0.1711
   13loPI   C1B  205  18.048  13.999   9.189 -0.1187 -0.1495 -0.0027
   13loPI   C2B  206  18.109  13.812   8.735 -0.4151 -0.1487 -0.0059
   13loPI   C3B  207  18.273  13.854   8.329 -0.1292 -0.1279 -0.1408
   13loPI   C4B  208  18.025  14.206   8.064 -0.2847  0.0503 -0.0295
   14loPI    C1  209  13.596  15.866   9.652 -0.1730 -0.2745 -0.0510
   14loPI    C2  210  13.620  16.264   9.613  0.0720 -0.2808  0.0163
   14loPI    C3  211  13.476  16.104   9.951  0.2415 -0.2515  0.1032
   14loPI   PO4  212  13.464  15.761   9.386  0.1197 -0.3747  0.0916
   14loPI   GL1  213  13.618  15.563   9.148 -0.0626  0.0848 -0.0596
   14loPI   GL2  214  14.041  15.500   9.072  0.2260 -0.1921  0.0301
   14loPI   C1A  215  13.690  15.643   8.665  0.2088 -0.0137  0.1492
   14loPI   C2A  216  13.684  15.675   8.286 -0.0673 -0.4034 -0.2455
   14loPI   C3A  217  13.614  15.716   7.840  0.0813 -0.1299 -0.3783
   14loPI   C4A  218  13.500  15.385   7.597  0.1814  0.0222  0.0731
   14loPI   C5A  219  13.494  15.035   7.321 -0.2673  0.1679 -0.1585
   14loPI   C6A  220  13.494  14.585   7.503  0.0972  0.1506  0.0770
   14loPI   C1B  221  14.313  15.577   8.834 -0.2041 -0.1799  0.2929
   14loPI   C2B  222  14.171  15.759   8.426 -0.0537 -0.0701  0.1322
   14loPI   C3B  223  14.097  15.823   8.040 -0.2612  0.1080  0.1372
   14loPI   C4B  224  14.219  15.895   7.508  0.0314  0.3131  0.0813
   15loPI    C1  225  18.415  15.452  10.472 -0.1747 -0.1585  0.0059
   15loPI    C2  226  18.018  15.473  10.426 -0.1571  0.0654 -0.0571
   15loPI    C3  227  18.172  15.326  10.764 -0.2948  0.1919  0.0619
   15loPI   PO4  228  18.502  15.313  10.218 -0.1817 -0.0717  0.2867
   15loPI   GL1  229  18.494  15.085   9.842 -0.4096  0.2501  0.0116
   15loPI   GL2  230  18.364  14.772   9.856  0.1292  0.2465 -0.2368
   15loPI   C1A  231  18.640  15.193   9.463  0.0902 -0.0853 -0.0833
   15loPI   C2A  232  18.568  15.505   9.165  0.2347  0.0568  0.2956
   15loPI   C3A  233  18.690  15.682   8.757 -0.1020  0.1425 -0.0349
   15loPI   C4A  234  18.498  15.751   8.333  0.0925 -0.0871  0.1190
   15loPI   C5A  235  18.252  15.986   7.995 -0.1130  0.1367  0.0106
   15loPI   C6A  236  17.994  16.397   7.887  0.0007 -0.1855  0.0319
   15loPI   C1B  237  18.440  14.693   9.383  0.0160  0.1639  0.1337
   15loPI   C2B  238  18.439  14.728   8.967  0.1714 -0.2317  0.1826
   15loPI   C3B  239  18.461  14.812   8.465  0.3341  0.0105 -0.0646
   15loPI   C4B  240  18.568  14.915   8.099  0.2696  0.2005 -0.4134
   16loPI    C1  241   1.870  16.189  10.613 -0.0057 -0.1529 -0.1348
   16loPI    C2  242   1.869  16.583  10.680 -0.0423 -0.1577 -0.1060
   16loPI    C3  243   1.671  16.338  10.926  0.3003 -0.2322  0.1021
   16loPI   PO4  244   1.921  16.142  10.338  0.1741 -0.1910  0.2615
   16loPI   GL1  245   2.031  16.212   9.859  0.0581 -0.1252  0.1247
   16loPI   GL2  246   1.955  15.885   9.949  0.0806 -0.2434  0.1583
   16loPI   C1A  247   1.838  16.193   9.528  0.3107  0.2218 -0.0549
   16loPI   C2A  248   1.725  16.198   9.016 -0.1937 -0.0724  0.0132
   16loPI   C3A  249   1.683  16.011   8.596 -0.2842  0.0091 -0.1265
   16loPI   C4A  250   1.566  16.008   8.183  0.0272 -0.0210 -0.4450
   16loPI   C5A  251   1.516  15.926   7.755  0.1520 -0.0708  0.0509
   16loPI   C6A  252   1.375  15.865   7.316 -0.0045  0.0525 -0.2004
   16loPI   C1B  253   2.026  15.755   9.540  0.0180  0.1448 -0.0227
   16loPI   C2B  254   2.116  15.817   9.123  0.0738  0.0735 -0.1354
   16loPI   C3B  255   2.143  15.861   8.753 -0.3498 -0.3278 -0.0063
   16loPI   C4B  256   2.117  15.785   8.412  0.0675 -0.1695 -0.0414
   17loPI    C1  257  12.195  17.679   9.871 -0.1761  0.2989 -0.2638
   17loPI    C2  258  12.366  17.955  10.106  0.0456  0.1648 -0.2645
   17loPI    C3  259  12.108  17.691  10.261 -0.1541  0.3601 -0.2607
   17loPI   PO4  260  12.384  17.494   9.701  0.1873 -0.2540  0.3063
   17loPI   GL1  261  12.341  17.313   9.325 -0.2305 -0.0430  0.3853
   17loPI   GL2  262  12.381  16.998   9.309  0.1532 -0.0755 -0.0563
   17loPI   C1A  263  12.170  17.371   8.962  0.1915 -0.4734  0.1229
   17loPI   C2A  264  11.969  17.237   8.591  0.0562 -0.0968 -0.0146
   17loPI   C3A  265  11.719  17.284   8.281 -0.1803  0.1277  0.2384
   17loPI   C4A  266  11.717  17.376   7.918 -0.1085  0.0839 -0.2076
   17loPI   C5A  267  11.611  17.583   7.548  0.0804 -0.1801 -0.1113
   17loPI   C6A  268  11.342  17.721   7.295  0.1626 -0.0931 -0.1310
   17loPI   C1B  269  12.485  16.637   8.985 -0.1044 -0.1826 -0.2396
   17loPI   C2B  270  12.597  16.379   8.654 -0.1791 -0.0455  0.0945
   17loPI   C3B  271  12.649  16.238   8.279  0.1975  0.1648 -0.3063
   17loPI   C4B  272  12.835  15.943   8.114 -0.0035 -0.1066 -0.1910
   18loPI    C1  273   9.791  18.252  10.031 -0.0675  0.0076  0.2274
   18loPI    C2  274   9.796  18.624  10.180  0.2234  0.1592 -0.1434
   18loPI    C3  275   9.894  18.314  10.413  0.1911  0.3360  0.1099
   18loPI   PO4  276   9.812  18.317   9.703 -0.3063 -0.0810 -0.1259
   18loPI   GL1  277  10.065  18.498   9.401 -0.0674 -0.1142  0.3778
   18loPI   GL2  278  10.256  18.351   9.097  0.0217  0.0681 -0.1502
   18loPI   C1A  279   9.851  18.631   8.980  0.0766  0.2359  0.0951
   18loPI   C2A  280   9.854  18.796   8.600 -0.1661 -0.2266  0.1393
   18loPI   C3A  281  10.002  18.845   8.160  0.2187 -0.1207  0.3104
   18loPI   C4A  282  10.216  18.759   7.745 -0.0077 -0.0029  0.4143
   18loPI   C5A  283  10.569  18.942   7.617 -0.1004  0.1062  0.0968
   18loPI   C6A  284  10.976  18.571   7.530 -0.1455  0.0311  0.2435
   18loPI   C1B  285  10.338  18.510   8.756 -0.0747  0.1167 -0.2545
   18loPI   C2B  286  10.472  18.767   8.430 -0.0588 -0.1084 -0.0387
   18loPI   C3B  287  10.706  19.069   8.162 -0.0303 -0.2930  0.0436
   18loPI   C4B  288  11.064  18.929   7.840  0.0102 -0.2538 -0.0186
   19loPI    C1  289  17.834  18.452  10.054 -0.0789 -0.2607  0.0579
   19loPI    C2  290  18.129  18.705  10.149 -0.0058 -0.2239 -0.2539
   19loPI    C3  291  17.815  18.661  10.394  0.0711  0.0273 -0.1073
   19loPI   PO4  292  17.827  18.471   9.820 -0.2753 -0.6017  0.0527
   19loPI   GL1  293  17.892  18.644   9.411 -0.1423  0.2217  0.1795
   19loPI   GL2  294  18.278  18.542   9.356  0.1261  0.0024 -0.0668
   19loPI   C1A  295  17.670  18.793   8.955 -0.2024  0.0252  0.1241
   19loPI   C2A  296  17.604  19.026   8.642  0.2132  0.2044 -0.1567
   19loPI   C3A  297  17.654  19.335   8.321 -0.1189  0.2842  0.2090
   19loPI   C4A  298  17.765  19.451   7.938 -0.1408 -0.2562 -0.0255
   19loPI   C5A  299  17.656  19.251   7.516  0.1608  0.0525  0.1456
   19loPI   C6A  300  17.542  19.368   7.116  0.0715  0.1365 -0.0076
   19loPI   C1B  301  18.099  18.510   8.959  0.1149 -0.1083  0.0681
   19loPI   C2B  302  18.207  18.576   8.547 -0.3271  0.0854 -0.0749
   19loPI   C3B  303  18.359  18.605   8.093  0.1631 -0.0749  0.0357
   19loPI   C4B  304  18.325  18.611   7.631  0.1846 -0.1398  0.1079
   20loPI    C1  305   9.958   5.366  10.074  0.1415  0.0985 -0.1847
   20loPI    C2  306   9.926   4.985   9.957  0.0164  0.0942 -0.1380
   20loPI    C3  307  10.116   5.074  10.297 -0.1218  0.0556 -0.0497
   20loPI   PO4  308   9.897   5.419   9.752 -0.0080  0.1519 -0.0705
   20loPI   GL1  309   9.750   5.392   9.325  0.1407  0.0255 -0.0062
   20loPI   GL2  310   9.470   5.363   9.198  0.1552  0.1691  0.0084
   20loPI   C1A  311   9.756   5.499   8.826  0.2424  0.1438  0.2165
   20loPI   C2A  312   9.732   5.612   8.337  0.1798  0.0831  0.0864
   20loPI   C3A  313   9.753   5.607   7.987 -0.3422  0.0038  0.1630
   20loPI   C4A  314   9.887   5.950   7.778  0.0136  0.0288 -0.2086
   20loPI   C5A  315   9.852   6.225   7.521 -0.0429 -0.0980  0.1613
   20loPI   C6A  316   9.933   6.565   7.254  0.3369  0.2030 -0.1846
   20loPI   C1B  317   9.473   5.023   8.884  0.3171  0.1273  0.0204
   20loPI   C2B  318   9.600   5.081   8.523 -0.1544  0.0042  0.2410
   20loPI   C3B  319   9.912   5.109   8.142 -0.0238 -0.1863  0.2268
   20loPI   C4B  320   9.863   5.254   7.682 -0.0483  0.1902 -0.2255
   21loPI    C1  321  11.199   4.236  10.102  0.0527 -0.2517  0.0280
   21loPI    C2  322  11.513   4.482  10.131 -0.1487  0.0024  0.0904
   21loPI    C3  323  11.503   4.144  10.345  0.1277 -0.0604  0.0079
   21loPI   PO4  324  11.160   4.227   9.824  0.1397  0.0168 -0.1780
   21loPI   GL1  325  11.249   4.171   9.451 -0.0946 -0.1040  0.1150
   21loPI   GL2  326  11.341   3.885   9.463 -0.0214  0.0781  0.1747
   21loPI   C1A  327  11.279   4.115   9.005  0.0197 -0.0756  0.3830
   21loPI   C2A  328  11.261   4.213   8.608 -0.0791  0.1487 -0.0306
   21loPI   C3A  329  11.354   4.153   8.277 -0.1405 -0.0309  0.0780
   21loPI   C4A  330  11.749   4.450   8.015  0.0106 -0.1610 -0.2636
   21loPI   C5A  331  11.987   4.831   8.203  0.2143 -0.0494  0.1361
   21loPI   C6A  332  12.282   5.162   8.076  0.1844  0.1243  0.3239
   21loPI   C1B  333  11.696   3.897   9.146  0.1836  0.0110  0.1028
   21loPI   C2B  334  11.643   3.908   8.587 -0.0822  0.1260 -0.3097
   21loPI   C3B  335  11.672   3.740   8.084  0.1566  0.0035 -0.3528
   21loPI   C4B  336  11.218   3.717   7.826 -0.0522 -0.2538 -0.0914
   22loPI    C1  337   4.898  15.611  10.005 -0.1346  0.0358 -0.0645
   22loPI    C2  338   4.878  15.238   9.860 -0.1284 -0.0798  0.2260
   22loPI    C3  339   5.058  15.308  10.211 -0.1937  0.1869  0.2089
   22loPI   PO4  340   4.848  15.729   9.701  0.1852  0.1469 -0.3290
   22loPI   GL1  341   4.607  15.937   9.436  0.2932 -0.1112  0.2771
   22loPI   GL2  342   4.750  16.229   9.590  0.1576  0.1890  0.2985
   22loPI   C1A  343   4.793  15.901   9.101  0.0102  0.0835  0.0459
   22loPI   C2A  344   4.852  15.703   8.684 -0.2258 -0.0068 -0.0313
   22loPI   C3A  345   5.145  15.390   8.468  0.0275 -0.1550  0.0490
   22loPI   C4A  346   5.405  15.127   8.184 -0.3504 -0.0279 -0.1349
   22loPI   C5A  347   5.595  14.923   7.827 -0.1360 -0.2935  0.1542
   22loPI   C6A  348   5.905  14.782   7.482  0.1285  0.0256 -0.0247
   22loPI   C1B  349   4.732  16.429   9.111 -0.0108  0.1799  0.1265
   22loPI   C2B  350   4.696  16.480   8.665  0.0365  0.3503 -0.1798
   22loPI   C3B  351   4.652  16.579   8.227 -0.1786 -0.0736 -0.0825
   22loPI   C4B  352   4.956  16.622   7.970  0.3184  0.1001 -0.1088
   23loPI    C1  353   1.912  18.256  10.060 -0.1575 -0.2573  0.1024
   23loPI    C2  354   1.658  18.565  10.067 -0.0227 -0.1417 -0.0291
   23loPI    C3  355   1.579  18.237  10.281 -0.0885  0.0448  0.2386
   23loPI   PO4  356   1.993  18.287   9.787  0.1230 -0.0998 -0.0211
   23loPI   GL1  357   1.888  18.042   9.481  0.2103  0.0692  0.0144
   23loPI   GL2  358   1.907  17.740   9.465  0.2932  0.1212 -0.4061
   23loPI   C1A  359   2.201  17.986   9.162 -0.0669 -0.0514  0.2597
   23loPI   C2A  360   2.212  17.848   8.757 -0.0511  0.1753  0.2634
   23loPI   C3A  361   2.066  17.569   8.500 -0.0988 -0.1135 -0.0180
   23loPI   C4A  362   2.025  17.337   8.149  0.2033 -0.1221  0.2348
   23loPI   C5A  363   2.270  17.183   7.759 -0.0395  0.0720 -0.0935
   23loPI   C6A  364   2.294  16.891   7.344 -0.2982 -0.2358  0.0860
   23loPI   C1B  365   1.881  17.651   9.140 -0.0257  0.3935  0.2640
   23loPI   C2B  366   1.612  17.527   8.766  0.2352 -0.4435  0.3266
   23loPI   C3B  367   1.410  17.433   8.258 -0.1950 -0.0264 -0.0393
   23loPI   C4B  368   1.282  17.485   7.798 -0.0835 -0.3097 -0.1789
   24loPI    C1  369   3.653  10.542  10.182  0.0841  0.1130  0.0017
   24loPI    C2  370   3.889  10.834  10.044 -0.1525  0.3683  0.1285
   24loPI    C3  371   3.926  10.710  10.422 -0.0699  0.2505  0.0824
   24loPI   PO4  372   3.637  10.368  10.063 -0.0368  0.1711  0.0338
   24loPI   GL1  373   3.651  10.391   9.604  0.1033 -0.1237 -0.0887
   24loPI   GL2  374   3.904  10.628   9.515  0.0460 -0.3324  0.1804
   24loPI   C1A  375   3.639  10.363   9.089  0.2433 -0.0586 -0.0636
   24loPI   C2A  376   3.583  10.433   8.654  0.1768  0.1368 -0.0334
   24loPI   C3A  377   3.696  10.446   8.250 -0.0303  0.1146  0.2840
   24loPI   C4A  378   3.624  10.577   7.846  0.0147  0.2145 -0.2294
   24loPI   C5A  379   3.857  10.850   7.492  0.1281 -0.1158 -0.3151
   24loPI   C6A  380   3.734  10.931   7.100 -0.0157  0.0886  0.3730
   24loPI   C1B  381   4.040  10.723   8.986  0.1212  0.0430  0.2635
   24loPI   C2B  382   4.029  10.654   8.510  0.0195  0.0587 -0.2393
   24loPI   C3B  383   4.040  10.826   8.073  0.0519  0.0345 -0.3322
   24loPI   C4B  384   4.373  10.940   7.663  0.3366 -0.1500  0.0274
   25loPI    C1  385  14.025   6.287  10.164 -0.0919  0.1073 -0.0795
   25loPI    C2  386  13.889   6.100  10.491  0.0183  0.2239  0.0343
   25loPI    C3  387  14.280   6.096  10.407 -0.0066  0.2159 -0.0827
   25loPI   PO4  388  13.911   6.156   9.932 -0.1357 -0.3824  0.0983
   25loPI   GL1  389  14.088   6.198   9.512  0.3352 -0.2005  0.0841
   25loPI   GL2  390  14.371   6.107   9.570 -0.1586  0.1490 -0.1040
   25loPI   C1A  391  14.273   6.339   9.109  0.0819 -0.0428 -0.1007
   25loPI   C2A  392  14.255   6.009   8.732  0.0214  0.1752 -0.2332
   25loPI   C3A  393  14.127   6.038   8.335  0.1231 -0.1113  0.1803
   25loPI   C4A  394  14.412   6.118   7.972  0.3978  0.0600 -0.3459
   25loPI   C5A  395  14.742   5.965   7.832  0.1551  0.0911  0.0961
   25loPI   C6A  396  15.153   5.884   7.976  0.0036 -0.3099  0.1352
   25loPI   C1B  397  14.690   6.122   9.292  0.0197 -0.0620 -0.0247
   25loPI   C2B  398  14.731   6.175   8.802  0.0142  0.0894 -0.4542
   25loPI   C3B  399  14.669   5.811   8.423  0.0922 -0.0512  0.0262
   25loPI   C4B  400  14.307   5.545   8.195  0.1458 -0.0943 -0.0654
   26loPI    C1  401   2.951   3.998  10.096  0.0347 -0.0178 -0.0523
   26loPI    C2  402   3.027   3.829  10.450 -0.0513  0.1714  0.0579
   26loPI    C3  403   2.977   4.225  10.424  0.1496  0.1826 -0.1978
   26loPI   PO4  404   2.785   3.753   9.997  0.1164 -0.1501 -0.1446
   26loPI   GL1  405   2.871   3.757   9.638 -0.1788 -0.3570  0.1648
   26loPI   GL2  406   3.241   3.709   9.738  0.1285  0.0730  0.0069
   26loPI   C1A  407   3.066   4.075   9.332  0.0649  0.3054 -0.1563
   26loPI   C2A  408   3.284   4.145   8.928  0.0612 -0.1260  0.3232
   26loPI   C3A  409   3.444   4.404   8.613  0.4425  0.1654 -0.0213
   26loPI   C4A  410   3.727   4.708   8.491 -0.1691 -0.3339 -0.3668
   26loPI   C5A  411   3.953   4.883   8.154  0.0312  0.2289 -0.0219
   26loPI   C6A  412   3.807   4.804   7.720  0.2047  0.1696 -0.2747
   26loPI   C1B  413   3.222   3.580   9.313  0.0851 -0.1115 -0.0012
   26loPI   C2B  414   2.953   3.422   9.072  0.0604 -0.0094 -0.0293
   26loPI   C3B  415   2.869   3.360   8.579  0.3826 -0.1859  0.1809
   26loPI   C4B  416   3.006   2.999   8.271 -0.1094 -0.4571 -0.0304
   27loPI    C1  417   7.447   8.194  10.416 -0.1126  0.2447 -0.0040
   27loPI    C2  418   7.661   8.121  10.745  0.0855  0.2333 -0.1337
   27loPI    C3  419   7.541   8.493  10.664 -0.0493  0.2203  0.0018
   27loPI   PO4  420   7.551   8.097  10.154  0.0574 -0.0116  0.2055
   27loPI   GL1  421   7.509   7.943   9.711  0.0303  0.0693  0.0948
   27loPI   GL2  422   7.547   8.220   9.671  0.1154  0.0648 -0.2062
   27loPI   C1A  423   7.439   7.830   9.267  0.1562  0.0612  0.3092
   27loPI   C2A  424   7.567   7.961   8.795 -0.3044 -0.0706  0.4272
   27loPI   C3A  425   7.718   7.902   8.318 -0.1265 -0.0984  0.1752
   27loPI   C4A  426   7.555   7.722   8.060  0.0444 -0.0689  0.0125
   27loPI   C5A  427   7.573   7.434   7.754 -0.0903  0.1343 -0.0345
   27loPI   C6A  428   7.390   7.061   7.508  0.1532 -0.1021  0.1575
   27loPI   C1B  429   7.550   8.449   9.329 -0.1839 -0.0187 -0.0109
   27loPI   C2B  430   7.612   8.468   8.923  0.1570 -0.1423  0.1103
   27loPI   C3B  431   7.616   8.436   8.479  0.2162 -0.0143  0.1302
   27loPI   C4B  432   7.815   8.465   8.095 -0.2375  0.3720 -0.4990
   28loPI    C1  433   3.762  14.477  10.140 -0.1390  0.1512  0.1028
   28loPI    C2  434   3.944  14.740  10.379  0.3020 -0.1103  0.0652
   28loPI    C3  435   3.986  14.348  10.445 -0.2621 -0.1801  0.0578
   28loPI   PO4  436   3.792  14.486   9.812  0.2416 -0.0778 -0.3725
   28loPI   GL1  437   3.475  14.345   9.616  0.1597  0.3197 -0.0221
   28loPI   GL2  438   3.652  14.386   9.333 -0.0202  0.0272 -0.0431
   28loPI   C1A  439   3.170  14.210   9.293 -0.0036  0.1387 -0.3081
   28loPI   C2A  440   3.331  14.224   8.790 -0.1085 -0.1504 -0.0815
   28loPI   C3A  441   3.358  14.212   8.382 -0.3588 -0.0205  0.1184
   28loPI   C4A  442   3.196  14.498   8.119  0.0980 -0.1697  0.0579
   28loPI   C5A  443   3.483  14.695   7.878  0.1122  0.3621 -0.4768
   28loPI   C6A  444   3.585  15.031   7.649  0.1224  0.0514  0.2628
   28loPI   C1B  445   3.829  14.185   8.846  0.0789 -0.0552 -0.2163
   28loPI   C2B  446   3.899  14.099   8.545  0.1453  0.1036  0.0798
   28loPI   C3B  447   3.813  14.183   8.157 -0.1846 -0.4064 -0.1797
   28loPI   C4B  448   3.816  14.335   7.672 -0.1906  0.1220 -0.0483
   29loPI    C1  449  13.152  17.640   9.657  0.0025  0.1379 -0.2109
   29loPI    C2  450  13.156  17.931   9.931  0.0116 -0.0229 -0.0387
   29loPI    C3  451  12.836  17.694   9.895  0.1021 -0.1518 -0.0064
   29loPI   PO4  452  13.439  17.797   9.578  0.2062 -0.1395 -0.2113
   29loPI   GL1  453  13.724  17.975   9.301  0.1323  0.0014 -0.1912
   29loPI   GL2  454  13.595  18.256   9.366 -0.2372 -0.0778  0.0274
   29loPI   C1A  455  13.603  17.787   8.873 -0.2332  0.1739  0.3958
   29loPI   C2A  456  13.567  17.392   8.483 -0.2080 -0.1975  0.0337
   29loPI   C3A  457  13.525  17.411   8.032  0.3893 -0.2930 -0.2253
   29loPI   C4A  458  13.579  17.147   7.546  0.0851 -0.2484 -0.0265
   29loPI   C5A  459  13.610  17.057   7.075 -0.1076 -0.0351 -0.3381
   29loPI   C6A  460  13.433  16.878   6.724 -0.3237 -0.2090 -0.2315
   29loPI   C1B  461  13.582  18.357   8.947 -0.0095 -0.1529 -0.0816
   29loPI   C2B  462  13.457  18.184   8.618 -0.0940 -0.2505 -0.1298
   29loPI   C3B  463  13.424  17.875   8.341  0.1228  0.2555 -0.0702
   29loPI   C4B  464  13.081  17.763   8.133 -0.2101  0.1181 -0.0403
   30loPI    C1  465   3.045   7.181  10.030  0.0995  0.0359  0.0206
   30loPI    C2  466   2.733   7.336   9.833 -0.1913 -0.3206  0.1871
   30loPI    C3  467   2.956   7.569  10.070  0.0404  0.0691 -0.3899
   30loPI   PO4  468   2.935   6.867   9.950 -0.1409 -0.0865  0.1398
   30loPI   GL1  469   2.790   6.798   9.511 -0.1084  0.1466 -0.0797
   30loPI   GL2  470   2.421   6.833   9.743  0.0017  0.1476 -0.0142
   30loPI   C1A  471   2.765   6.994   9.102 -0.2045  0.1447  0.0492
   30loPI   C2A  472   2.737   6.983   8.688  0.2528 -0.1979  0.1456
   30loPI   C3A  473   2.847   7.189   8.285  0.0014  0.1147 -0.0178
   30loPI   C4A  474   2.817   7.389   7.958  0.0839  0.1239  0.0871
   30loPI   C5A  475   2.906   7.832   7.831  0.2248 -0.1882  0.0427
   30loPI   C6A  476   2.909   8.164   7.626  0.0200  0.2518  0.2536
   30loPI   C1B  477   2.384   7.108   9.380  0.1746  0.1643 -0.2514
   30loPI   C2B  478   2.211   7.406   9.040  0.3609  0.0350 -0.2447
   30loPI   C3B  479   1.980   7.440   8.705 -0.0618  0.1295  0.0080
   30loPI   C4B  480   1.747   7.426   8.304 -0.0081 -0.1982 -0.2339
   31loPI    C1  481  15.943   0.830   9.714 -0.1346  0.1518  0.2437
   31loPI    C2  482  16.224   0.888   9.992  0.2310 -0.1115 -0.0608
   31loPI    C3  483  15.945   0.606  10.045  0.2301 -0.0836  0.0882
   31loPI   PO4  484  15.836   1.021   9.618  0.1067 -0.1177  0.1533
   31loPI   GL1  485  15.630   1.166   9.284  0.1261  0.2530  0.1939
   31loPI   GL2  486  15.850   1.119   9.123 -0.2456 -0.0094 -0.1456
   31loPI   C1A  487  15.528   1.537   9.075 -0.2057  0.2014 -0.0949
   31loPI   C2A  488  15.387   1.622   8.764 -0.4261  0.0674  0.1233
   31loPI   C3A  489  15.549   1.656   8.327  0.0035  0.0665 -0.1508
   31loPI   C4A  490  15.734   1.795   7.877  0.0134 -0.1279  0.0115
   31loPI   C5A  491  15.658   2.043   7.584  0.0313  0.2242  0.2565
   31loPI   C6A  492  15.486   2.389   7.498 -0.1529  0.1119 -0.2520
   31loPI   C1B  493  15.688   1.112   8.708  0.0148 -0.2312 -0.3041
   31loPI   C2B  494  15.674   1.184   8.273 -0.0388  0.0842 -0.2655
   31loPI   C3B  495  15.819   1.197   7.873 -0.3036  0.2148  0.0224
   31loPI   C4B  496  16.061   1.163   7.499 -0.0668  0.1567  0.0145
   32loPI    C1  497  16.453  18.698  10.026 -0.0811  0.2101  0.1443
   32loPI    C2  498  16.630  18.383  10.199  0.0196  0.0846 -0.1795
   32loPI    C3  499  16.726  18.754  10.313  0.1782  0.0075 -0.0580
   32loPI   PO4  500  16.389  18.587   9.725  0.1212  0.2129  0.0210
   32loPI   GL1  501  16.406  18.704   9.302  0.3293 -0.0332  0.0336
   32loPI   GL2  502  16.391  18.360   9.200  0.0819 -0.1533  0.1432
   32loPI   C1A  503  16.267  18.825   8.811 -0.0575  0.0381  0.0228
   32loPI   C2A  504  16.145  18.920   8.418  0.2681  0.0644 -0.0513
   32loPI   C3A  505  16.299  19.031   8.071 -0.3542 -0.0128  0.0369
   32loPI   C4A  506  16.592  19.262   7.745  0.1180 -0.1262  0.1866
   32loPI   C5A  507  16.662  19.506   7.334  0.0279 -0.3790 -0.1683
   32loPI   C6A  508  16.631  19.726   6.972 -0.2363  0.2210  0.0068
   32loPI   C1B  509  16.768  18.516   8.834  0.1736  0.1022 -0.1743
   32loPI   C2B  510  16.924  18.475   8.386 -0.2145 -0.0917 -0.0131
   32loPI   C3B  511  17.031  18.542   8.027  0.0752  0.0925 -0.0579
   32loPI   C4B  512  16.884  18.637   7.633 -0.2501 -0.0306 -0.0311
   33loPI    C1  513  18.665  10.697  10.188  0.0516  0.0808 -0.1361
   33loPI    C2  514  18.490  10.641  10.543  0.2036  0.0410 -0.0669
   33loPI    C3  515  18.607  10.326  10.327 -0.1394  0.0553 -0.2795
   33loPI   PO4  516  18.432  10.884  10.015 -0.1191  0.0445  0.0585
   33loPI   GL1  517  18.384  10.800   9.528 -0.0335 -0.1718 -0.2728
   33loPI   GL2  518  18.135  10.675   9.348 -0.0880 -0.3422 -0.1424
   33loPI   C1A  519  18.603  11.081   9.230  0.3157 -0.1497 -0.1249
   33loPI   C2A  520  18.685  11.374   8.874  0.3996 -0.0893 -0.1792
   33loPI   C3A  521  18.815  11.368   8.544 -0.2094  0.2954 -0.0929
   33loPI   C4A  522  18.703  11.150   8.136 -0.1209 -0.1703 -0.2333
   33loPI   C5A  523  18.435  11.142   7.773  0.1355  0.0586  0.1107
   33loPI   C6A  524  17.984  11.041   7.617 -0.0846 -0.0343  0.0161
   33loPI   C1B  525  18.111  11.067   9.156  0.0822 -0.0504 -0.2059
   33loPI   C2B  526  18.208  11.539   9.073  0.1697 -0.0381 -0.0508
   33loPI   C3B  527  18.302  11.703   8.716  0.0858 -0.1711  0.3098
   33loPI   C4B  528  18.531  11.726   8.342 -0.0008 -0.0386  0.1897
   34loPI    C1  529   4.858  17.507  10.250  0.1926  0.1746  0.1044
   34loPI    C2  530   5.191  17.293  10.193  0.1435  0.1105  0.0565
   34loPI    C3  531   4.912  17.164  10.448  0.0109  0.0001 -0.1422
   34loPI   PO4  532   4.758  17.489   9.963  0.1547  0.1341 -0.1139
   34loPI   GL1  533   4.767  17.448   9.561  0.0244  0.0314  0.0307
   34loPI   GL2  534   4.940  17.222   9.540  0.2654  0.1040  0.0828
   34loPI   C1A  535   4.698  17.672   9.101 -0.0650  0.1069 -0.3578
   34loPI   C2A  536   5.017  17.727   8.790 -0.1286 -0.2005  0.1373
   34loPI   C3A  537   4.980  17.571   8.410  0.2229  0.1679 -0.1516
   34loPI   C4A  538   4.840  17.744   7.985  0.0514 -0.2862 -0.0776
   34loPI   C5A  539   4.696  18.018   7.626  0.1041  0.2172  0.0436
   34loPI   C6A  540   4.511  17.742   7.214  0.2457 -0.0257  0.0300
   34loPI   C1B  541   5.399  17.107   9.427  0.0286 -0.2146  0.0951
   34loPI   C2B  542   5.572  16.776   9.420 -0.1994  0.2144  0.2319
   34loPI   C3B  543   5.701  16.622   9.053 -0.0373 -0.0264 -0.0410
   34loPI   C4B  544   5.640  16.656   8.663  0.1617  0.1618  0.0437
   35loPI    C1  545   0.274  14.274  10.057 -0.0350 -0.1096 -0.1156
   35loPI    C2  546  -0.110  14.233   9.952 -0.1015  0.2394 -0.0212
   35loPI    C3  547  -0.011  14.268  10.338  0.0283  0.1326 -0.0440
   35loPI   PO4  548   0.349  14.186   9.922 -0.3523  0.1904  0.1789
   35loPI   GL1  549   0.227  14.124   9.535 -0.1626 -0.1225 -0.0141
   35loPI   GL2  550  -0.016  13.930   9.507 -0.1618 -0.0237  0.4184
   35loPI   C1A  551   0.458  13.922   9.201 -0.2708 -0.1340  0.2300
   35loPI   C2A  552   0.270  13.799   8.934  0.2936 -0.0154  0.1605
   35loPI   C3A  553   0.138  13.920   8.498 -0.1228  0.0064 -0.2908
   35loPI   C4A  554   0.136  14.239   8.231 -0.0615  0.0682  0.0248
   35loPI   C5A  555  -0.125  14.561   8.141 -0.1977 -0.2067  0.1027
   35loPI   C6A  556  -0.199  14.975   7.818  0.0784  0.0660 -0.0826
   35loPI   C1B  557  -0.193  14.005   9.028  0.5228 -0.0732 -0.3243
   35loPI   C2B  558  -0.137  14.278   8.761 -0.0510  0.1492 -0.3370
   35loPI   C3B  559  -0.385  14.446   8.570  0.2791  0.0421 -0.1428
   35loPI   C4B  560  -0.636  14.322   8.252 -0.1417  0.0784 -0.5556
   36loPI    C1  561   6.386  15.311   9.999 -0.0465  0.2398  0.0084
   36loPI    C2  562   6.024  15.286  10.168  0.0089  0.0759  0.1050
   36loPI    C3  563   6.324  15.466  10.363  0.0042  0.1266  0.0657
   36loPI   PO4  564   6.358  15.306   9.794  0.0140  0.3847 -0.3694
   36loPI   GL1  565   6.278  15.322   9.449  0.1795 -0.1113  0.1105
   36loPI   GL2  566   6.220  15.067   9.301 -0.1711  0.3023 -0.0577
   36loPI   C1A  567   6.345  15.458   9.053  0.1199  0.0518 -0.1095
   36loPI   C2A  568   6.318  15.530   8.673 -0.1324 -0.1681  0.1664
   36loPI   C3A  569   6.219  15.552   8.279 -0.3508  0.0244  0.2730
   36loPI   C4A  570   6.495  15.616   7.917  0.0271 -0.1723  0.0093
   36loPI   C5A  571   6.472  15.443   7.571 -0.1803  0.4045  0.2270
   36loPI   C6A  572   6.341  15.385   7.115  0.4009 -0.1872 -0.0987
   36loPI   C1B  573   6.369  14.898   8.965  0.0692 -0.1763 -0.0154
   36loPI   C2B  574   6.388  15.006   8.627  0.4406 -0.0586 -0.3870
   36loPI   C3B  575   6.337  15.026   8.276  0.1337  0.0739  0.1714
   36loPI   C4B  576   6.369  15.014   7.861  0.0576  0.1464  0.1166
   37loPI    C1  577  12.432  12.424  10.139 -0.0166 -0.1851  0.0621
   37loPI    C2  578  12.173  12.153  10.277 -0.2331  0.0552  0.1345
   37loPI    C3  579  12.405  12.356  10.532  0.1032 -0.2311  0.0626
   37loPI   PO4  580  12.443  12.381   9.818 -0.1201  0.3521 -0.2473
   37loPI   GL1  581  12.538  12.630   9.452  0.1047  0.2097  0.0893
   37loPI   GL2  582  12.281  12.262   9.370  0.0495 -0.1016  0.0130
   37loPI   C1A  583  12.504  12.560   9.000  0.0103 -0.0201 -0.1769
   37loPI   C2A  584  12.474  12.346   8.624 -0.0872  0.0357 -0.0791
   37loPI   C3A  585  12.671  12.377   8.204 -0.0635 -0.0349  0.0749
   37loPI   C4A  586  12.420  12.325   7.816  0.2882  0.0723 -0.3054
   37loPI   C5A  587  12.527  12.589   7.450  0.0894  0.0662  0.2355
   37loPI   C6A  588  12.638  13.054   7.354 -0.1276 -0.1415  0.2348
   37loPI   C1B  589  12.555  12.110   9.092  0.1065 -0.0368 -0.1133
   37loPI   C2B  590  12.607  11.832   8.738 -0.1174  0.0697 -0.0916
   37loPI   C3B  591  12.476  11.891   8.249  0.3825 -0.0523  0.0365
   37loPI   C4B  592  12.335  11.846   7.879 -0.0247  0.1072  0.1158
   38loPI    C1  593  11.089  12.656   9.646 -0.2196 -0.0707 -0.0244
   38loPI    C2  594  11.406  12.900   9.628 -0.0854 -0.2631 -0.3543
   38loPI    C3  595  11.236  12.818   9.981  0.1688 -0.0785 -0.1859
   38loPI   PO4  596  10.951  12.799   9.535  0.1587 -0.0072 -0.1861
   38loPI   GL1  597  11.101  12.862   9.130 -0.2260 -0.0125 -0.1760
   38loPI   GL2  598  11.218  13.124   9.284  0.0227 -0.1499 -0.2413
   38loPI   C1A  599  10.920  12.626   8.840 -0.0131 -0.1267 -0.1332
   38loPI   C2A  600  11.030  12.369   8.525 -0.2693  0.0083 -0.0293
   38loPI   C3A  601  10.971  12.282   8.143 -0.4770  0.0216 -0.1470
   38loPI   C4A  602  10.870  12.575   7.835 -0.0655 -0.1787 -0.2984
   38loPI   C5A  603  10.845  12.706   7.438  0.0301 -0.0955 -0.4249
   38loPI   C6A  604  11.092  12.914   7.072 -0.0126  0.0875  0.0675
   38loPI   C1B  605  11.048  13.365   8.960  0.1620  0.1995  0.2459
   38loPI   C2B  606  11.035  13.420   8.462  0.0844 -0.0336  0.0165
   38loPI   C3B  607  10.878  13.224   8.067  0.0963 -0.0096  0.3133
   38loPI   C4B  608  10.559  13.152   7.887 -0.0117  0.1478  0.1250
   39loPI    C1  609  16.555  15.965   9.863 -0.0634  0.1386  0.0839
   39loPI    C2  610  16.534  15.802  10.227  0.0221 -0.3548 -0.1237
   39loPI    C3  611  16.818  16.071  10.145 -0.1141 -0.0969  0.2223
   39loPI   PO4  612  16.321  15.999   9.797 -0.2606  0.0405  0.1648
   39loPI   GL1  613  16.236  15.822   9.455  0.2887 -0.1742  0.0244
   39loPI   GL2  614  16.274  16.202   9.358 -0.0598 -0.0366 -0.0103
   39loPI   C1A  615  16.570  15.791   9.170  0.1332 -0.0583 -0.1948
   39loPI   C2A  616  16.844  15.534   8.764 -0.3741  0.1281  0.1366
   39loPI   C3A  617  17.211  15.330   8.538  0.0186  0.0246 -0.0883
   39loPI   C4A  618  17.512  15.169   8.214 -0.2170  0.1148 -0.1161
   39loPI   C5A  619  17.779  15.179   7.943  0.2574  0.0289  0.3050
   39loPI   C6A  620  18.075  14.980   7.576  0.0259 -0.0735 -0.0130
   39loPI   C1B  621  16.246  16.170   8.981  0.0048 -0.2903 -0.0237
   39loPI   C2B  622  16.462  16.072   8.631 -0.2507 -0.2108 -0.1388
   39loPI   C3B  623  16.505  16.153   8.103 -0.0125  0.2141  0.1745
   39loPI   C4B  624  16.512  16.104   7.593  0.0151  0.4411 -0.0236
   40loPI    C1  625   3.998   0.353   9.606  0.1725  0.0577  0.1351
   40loPI    C2  626   3.967   0.196   9.973  0.2295 -0.1773  0.0411
   40loPI    C3  627   3.694   0.109   9.694  0.1936 -0.0096  0.0230
   40loPI   PO4  628   4.256   0.392   9.546 -0.2412  0.1741 -0.1324
   40loPI   GL1  629   4.367   0.157   9.281  0.4991 -0.0363 -0.0399
   40loPI   GL2  630   3.999   0.173   9.142  0.0812 -0.0930 -0.1952
   40loPI   C1A  631   4.412   0.201   8.866 -0.3242 -0.0334  0.3427
   40loPI   C2A  632   4.626   0.119   8.603  0.1211  0.2957 -0.0233
   40loPI   C3A  633   4.698  -0.002   8.179 -0.0338 -0.0878 -0.2729
   40loPI   C4A  634   4.608  -0.189   7.862 -0.0155 -0.1407  0.3580
   40loPI   C5A  635   4.597  -0.340   7.463  0.1526 -0.1167 -0.0303
   40loPI   C6A  636   4.867  -0.109   7.181 -0.1684  0.1211 -0.1509
   40loPI   C1B  637   4.112  -0.212   8.801 -0.0852 -0.0637  0.0545
   40loPI   C2B  638   4.116  -0.156   8.378  0.0417 -0.0949  0.2173
   40loPI   C3B  639   4.222  -0.451   8.026 -0.1239 -0.0272  0.0368
   40loPI   C4B  640   4.042  -0.633   7.673 -0.0651 -0.0053 -0.0605
   41loPI    C1  641   0.202  12.071  10.031  0.0334 -0.0164  0.1102
   41loPI    C2  642  -0.114  12.315   9.999 -0.1062 -0.1676  0.3052
   41loPI    C3  643   0.177  12.326   9.724 -0.1071  0.2202  0.3142
   41loPI   PO4  644   0.046  11.805  10.012 -0.0329  0.3300  0.1040
   41loPI   GL1  645  -0.051  11.511   9.735 -0.2757 -0.3444 -0.0876
   41loPI   GL2  646   0.244  11.365   9.730  0.1196 -0.0873 -0.1925
   41loPI   C1A  647  -0.361  11.605   9.299 -0.1782 -0.0550  0.0526
   41loPI   C2A  648  -0.542  11.941   8.982 -0.1709 -0.1058 -0.0334
   41loPI   C3A  649  -0.439  12.208   8.830 -0.1102  0.1729  0.1991
   41loPI   C4A  650  -0.304  12.354   8.403 -0.3087 -0.2094  0.1885
   41loPI   C5A  651  -0.097  12.279   7.957 -0.0477  0.4951 -0.0962
   41loPI   C6A  652  -0.039  11.967   7.643  0.4554  0.0028 -0.0749
   41loPI   C1B  653   0.309  11.372   9.231 -0.4939 -0.0083  0.3258
   41loPI   C2B  654  -0.002  11.540   8.890 -0.0625  0.2061  0.1236
   41loPI   C3B  655  -0.123  11.815   8.542 -0.1126  0.1040  0.1685
   41loPI   C4B  656  -0.186  11.684   8.126  0.0414  0.1227  0.1478
   42loPI    C1  657  11.510   7.948  10.232 -0.0127  0.1294  0.0010
   42loPI    C2  658  11.765   7.707  10.424 -0.0452 -0.0590 -0.1879
   42loPI    C3  659  11.478   7.898  10.627  0.1158 -0.0082 -0.0050
   42loPI   PO4  660  11.593   7.929   9.949 -0.1950 -0.0388  0.0271
   42loPI   GL1  661  11.878   8.145   9.608  0.1426 -0.0017 -0.1454
   42loPI   GL2  662  11.665   8.279   9.499  0.0377 -0.1776  0.0058
   42loPI   C1A  663  11.900   7.898   9.210  0.0761 -0.4461 -0.2098
   42loPI   C2A  664  12.011   7.715   8.850  0.1420 -0.0625 -0.1628
   42loPI   C3A  665  11.854   7.439   8.482  0.0631  0.2148  0.1108
   42loPI   C4A  666  11.983   7.430   8.131 -0.1869  0.3321  0.0124
   42loPI   C5A  667  11.973   7.474   7.616  0.1442  0.0186 -0.0963
   42loPI   C6A  668  11.802   7.337   7.227 -0.2456 -0.2085 -0.3338
   42loPI   C1B  669  11.765   8.469   9.158  0.1761  0.0680  0.3553
   42loPI   C2B  670  11.785   8.448   8.784 -0.2371  0.2290  0.0216
   42loPI   C3B  671  11.807   8.724   8.446 -0.0519  0.4303  0.1033
   42loPI   C4B  672  11.768   9.139   8.307 -0.0773 -0.1052  0.1784
   43loPI    C1  673  18.697  18.726   9.556  0.0253 -0.1600 -0.1121
   43loPI    C2  674  18.728  19.047   9.793  0.0526 -0.2192 -0.0349
   43loPI    C3  675  18.595  18.700   9.942  0.2442 -0.3058 -0.0617
   43loPI   PO4  676  18.910  18.737   9.413  0.1196  0.1875  0.1867
   43loPI   GL1  677  19.068  19.077   9.137  0.3627 -0.0138  0.0216
   43loPI   GL2  678  19.146  18.783   8.971  0.0489  0.3305  0.1607
   43loPI   C1A  679  18.958  19.226   8.687 -0.0325  0.0391  0.1585
   43loPI   C2A  680  19.100  19.169   8.262  0.2191  0.1227  0.1174
   43loPI   C3A  681  19.512  19.179   8.152  0.1442 -0.1896 -0.1486
   43loPI   C4A  682  19.788  19.295   7.861  0.1171 -0.0989 -0.0236
   43loPI   C5A  683  20.154  19.450   7.824  0.1527 -0.1745 -0.1114
   43loPI   C6A  684  20.660  19.514   7.696  0.1674  0.0982 -0.0034
   43loPI   C1B  685  19.381  18.862   8.616  0.0048 -0.0186 -0.0106
   43loPI   C2B  686  19.708  18.711   8.294  0.0089 -0.2470  0.4134
   43loPI   C3B  687  19.853  18.820   7.914 -0.0053 -0.0578 -0.1921
   43loPI   C4B  688  20.098  18.545   7.662  0.2137  0.4182  0.2565
   44loPI    C1  689   4.767   4.358   9.659  0.3450  0.0433  0.1641
   44loPI    C2  690   4.637   4.017   9.824  0.1133 -0.0584 -0.2180
   44loPI    C3  691   4.584   4.364  10.015 -0.1568 -0.1724 -0.0806
   44loPI   PO4  692   4.987   4.365   9.611 -0.0189  0.1598 -0.0747
   44loPI   GL1  693   5.100   4.718   9.374  0.1630  0.4823  0.0510
   44loPI   GL2  694   5.434   4.724   9.240  0.2102  0.0199 -0.1822
   44loPI   C1A  695   4.901   4.657   9.016  0.3272  0.2561  0.0767
   44loPI   C2A  696   4.921   4.547   8.568  0.2305  0.3666 -0.0347
   44loPI   C3A  697   4.931   4.751   8.113  0.0765 -0.1787  0.0611
   44loPI   C4A  698   4.829   4.692   7.715 -0.1596  0.0666  0.0257
   44loPI   C5A  699   4.631   4.438   7.413 -0.0257  0.0892  0.1442
   44loPI   C6A  700   4.729   4.506   7.036  0.3818 -0.1188 -0.1738
   44loPI   C1B  701   5.333   4.819   8.821 -0.0794  0.0258 -0.1076
   44loPI   C2B  702   5.125   4.994   8.579  0.1430 -0.2397 -0.0688
   44loPI   C3B  703   4.916   5.247   8.199  0.2381  0.0458 -0.0636
   44loPI   C4B  704   4.670   5.606   8.015 -0.0589  0.0407 -0.1679
   45loPI    C1  705   2.429   9.414  10.184  0.0845  0.3707  0.1398
   45loPI    C2  706   2.627   9.393  10.531  0.1345  0.2645  0.1054
   45loPI    C3  707   2.287   9.188  10.482  0.2978  0.0188 -0.0189
   45loPI   PO4  708   2.623   9.493  10.043  0.0576  0.0636  0.1302
   45loPI   GL1  709   2.863   9.510   9.734 -0.1084 -0.0255  0.0872
   45loPI   GL2  710   2.708   9.828   9.668  0.0176  0.0473 -0.1080
   45loPI   C1A  711   2.607   9.515   9.332 -0.0405  0.0754 -0.2820
   45loPI   C2A  712   2.370   9.307   8.942  0.1946 -0.0155  0.0862
   45loPI   C3A  713   2.246   9.290   8.466  0.0824 -0.0563  0.0834
   45loPI   C4A  714   2.367   9.262   7.903 -0.0641  0.2075 -0.1794
   45loPI   C5A  715   2.104   8.988   7.586 -0.1221 -0.1619 -0.0209
   45loPI   C6A  716   1.787   8.738   7.484  0.2164  0.2003  0.2018
   45loPI   C1B  717   2.889  10.003   9.331  0.3464 -0.1189  0.3631
   45loPI   C2B  718   2.648  10.319   9.010  0.3177 -0.2001 -0.0704
   45loPI   C3B  719   2.447  10.289   8.644  0.3037  0.0516 -0.0108
   45loPI   C4B  720   2.127  10.229   8.348  0.0649 -0.1560  0.2348
   46loPI    C1  721   1.405   6.436  10.240  0.2367 -0.1058 -0.2153
   46loPI    C2  722   1.090   6.452   9.994  0.2136  0.2507 -0.1668
   46loPI    C3  723   1.035   6.385  10.384  0.2285 -0.0414 -0.2132
   46loPI   PO4  724   1.558   6.311  10.101 -0.0935 -0.0849  0.0522
   46loPI   GL1  725   1.676   6.462   9.669  0.1447  0.2691  0.0334
   46loPI   GL2  726   1.968   6.667   9.692  0.2866  0.3008 -0.0628
   46loPI   C1A  727   1.832   6.310   9.297 -0.1207  0.0631 -0.1868
   46loPI   C2A  728   2.037   6.409   8.912  0.0825  0.1467  0.1499
   46loPI   C3A  729   2.030   6.567   8.558 -0.0820  0.0026 -0.1112
   46loPI   C4A  730   2.002   6.489   8.173  0.1500  0.1786  0.1737
   46loPI   C5A  731   2.228   6.167   8.040 -0.0085 -0.0725 -0.2536
   46loPI   C6A  732   2.429   5.804   8.115 -0.0796 -0.0728 -0.1374
   46loPI   C1B  733   1.833   6.834   9.245 -0.1143 -0.0180  0.2712
   46loPI   C2B  734   1.841   6.994   8.891  0.1909 -0.0155  0.1132
   46loPI   C3B  735   1.669   6.973   8.542 -0.0219 -0.0761 -0.1258
   46loPI   C4B  736   1.826   6.955   8.103 -0.1606  0.0400  0.3077
   47loPI    C1  737  12.472  11.768  10.353  0.1657  0.0883  0.1805
   47loPI    C2  738  12.344  11.494  10.091  0.1532  0.1570  0.1145
   47loPI    C3  739  12.230  11.473  10.473 -0.0242  0.1949  0.0645
   47loPI   PO4  740  12.713  11.913  10.154 -0.3729 -0.0132  0.0745
   47loPI   GL1  741  12.705  11.970   9.778  0.2551  0.0481  0.3364
   47loPI   GL2  742  12.379  11.846   9.730 -0.1388  0.0190 -0.0399
   47loPI   C1A  743  12.979  11.855   9.410  0.1222  0.2361  0.0553
   47loPI   C2A  744  13.018  11.762   9.051  0.1149  0.1267 -0.0956
   47loPI   C3A  745  13.154  11.543   8.699  0.0291  0.2685 -0.0087
   47loPI   C4A  746  13.447  11.448   8.366  0.0747  0.0950 -0.4063
   47loPI   C5A  747  13.409  11.648   8.011  0.1167 -0.1131  0.1511
   47loPI   C6A  748  13.014  11.791   7.828 -0.0850  0.0201  0.0630
   47loPI   C1B  749  12.549  11.682   9.330 -0.0705 -0.0079  0.1828
   47loPI   C2B  750  12.262  11.643   9.062  0.0851  0.2096 -0.3706
   47loPI   C3B  751  12.115  11.609   8.643  0.2953  0.3392 -0.0698
   47loPI   C4B  752  11.962  11.661   8.199 -0.3895 -0.0392 -0.0082
   48loPI    C1  753   3.895   4.206   9.946  0.0914  0.0964 -0.1993
   48loPI    C2  754   3.878   4.504  10.212  0.0361  0.0070 -0.1022
   48loPI    C3  755   3.596   4.472   9.930  0.0588  0.0641 -0.1316
   48loPI   PO4  756   4.124   4.175   9.912  0.3431 -0.1048 -0.0340
   48loPI   GL1  757   4.250   4.311   9.490  0.0218 -0.1322  0.3119
   48loPI   GL2  758   4.099   4.028   9.454 -0.0586  0.3025  0.0107
   48loPI   C1A  759   4.452   4.353   9.069 -0.3019 -0.0692  0.1610
   48loPI   C2A  760   4.498   4.248   8.670  0.0310  0.0595 -0.0969
   48loPI   C3A  761   4.651   4.257   8.234  0.2686 -0.2088  0.1287
   48loPI   C4A  762   4.899   4.211   7.913 -0.1353 -0.0883  0.1140
   48loPI   C5A  763   4.995   3.862   7.517  0.2017  0.4791  0.2127
   48loPI   C6A  764   4.887   3.594   7.205 -0.1410  0.0606 -0.0616
   48loPI   C1B  765   4.117   3.917   8.995 -0.1047  0.0416 -0.2443
   48loPI   C2B  766   4.126   3.831   8.555  0.2900  0.0790  0.1100
   48loPI   C3B  767   4.221   3.926   8.136 -0.0402  0.0026  0.2735
   48loPI   C4B  768   4.399   4.127   7.788 -0.2315 -0.0143  0.1945
   49loPI    C1  769  18.306   8.794  10.037  0.0669 -0.0048 -0.1335
   49loPI    C2  770  18.147   8.529  10.291 -0.1404  0.2429  0.0003
   49loPI    C3  771  18.268   8.411   9.929  0.1073 -0.1033  0.1901
   49loPI   PO4  772  18.086   9.039  10.041 -0.1022  0.1653  0.0489
   49loPI   GL1  773  18.101   9.368   9.604 -0.1217  0.0701  0.1356
   49loPI   GL2  774  18.200   9.192   9.249 -0.0624  0.3607  0.3098
   49loPI   C1A  775  17.995   9.846   9.318 -0.1253  0.1102 -0.1466
   49loPI   C2A  776  17.836   9.914   8.787 -0.0382 -0.3609  0.1551
   49loPI   C3A  777  17.676  10.042   8.422  0.0268 -0.2197  0.1027
   49loPI   C4A  778  17.808  10.410   8.130 -0.1497  0.1862 -0.0142
   49loPI   C5A  779  17.641  10.753   8.152 -0.0730  0.0308  0.0620
   49loPI   C6A  780  17.136  10.826   7.986  0.2378 -0.3351  0.1770
   49loPI   C1B  781  18.335   9.175   8.857 -0.0490 -0.2852  0.3311
   49loPI   C2B  782  18.674   9.438   8.669  0.2485 -0.0622  0.1817
   49loPI   C3B  783  18.791   9.797   8.401  0.1649 -0.4080  0.0253
   49loPI   C4B  784  18.803  10.246   8.086 -0.0483  0.0854  0.0888
   50loPI    C1  785   9.352  18.901   9.828  0.0889 -0.0474 -0.1198
   50loPI    C2  786   9.029  18.670   9.779  0.0964 -0.1397  0.2387
   50loPI    C3  787   9.371  18.510   9.913  0.2476 -0.0126  0.0110
   50loPI   PO4  788   9.317  19.101   9.613 -0.1727 -0.0214 -0.1791
   50loPI   GL1  789   9.045  18.974   9.273 -0.0532 -0.0033 -0.0824
   50loPI   GL2  790   8.878  19.174   9.273  0.0360 -0.1220 -0.0490
   50loPI   C1A  791   9.271  19.044   8.872  0.2244 -0.4526 -0.1384
   50loPI   C2A  792   9.394  19.036   8.456  0.1947 -0.2534  0.1143
   50loPI   C3A  793   9.458  18.912   8.053 -0.3729  0.2504 -0.2361
   50loPI   C4A  794   9.710  18.775   7.709 -0.0329 -0.0865  0.1868
   50loPI   C5A  795   9.880  18.360   7.614  0.2491 -0.2213 -0.2665
   50loPI   C6A  796  10.231  18.149   7.422  0.0183 -0.2538  0.1235
   50loPI   C1B  797   8.837  19.388   8.839 -0.0384 -0.0153  0.0137
   50loPI   C2B  798   8.627  19.456   8.368  0.1613  0.0683 -0.0062
   50loPI   C3B  799   8.476  19.224   8.051  0.4859 -0.0660  0.0496
   50loPI   C4B  800   8.197  18.898   7.942 -0.0878  0.1329  0.4387
   51loPI    C1  801  19.051  11.353  10.259 -0.1581 -0.0460  0.0612
   51loPI    C2  802  19.153  11.234  10.627  0.1721 -0.0796 -0.0381
   51loPI    C3  803  19.312  11.568  10.474 -0.1463  0.0646 -0.0626
   51loPI   PO4  804  19.039  11.093  10.157  0.3416  0.0934  0.0323
   51loPI   GL1  805  18.874  11.073   9.773 -0.1255  0.0885 -0.0101
   51loPI   GL2  806  18.923  10.758   9.791  0.0496 -0.1892 -0.2106
   51loPI   C1A  807  19.064  11.125   9.401  0.0174  0.0827  0.0252
   51loPI   C2A  808  19.092  11.088   9.021  0.2208  0.0397 -0.0065
   51loPI   C3A  809  19.084  11.003   8.637  0.0427 -0.0649  0.1770
   51loPI   C4A  810  19.209  10.897   8.203  0.0872  0.1691 -0.1894
   51loPI   C5A  811  19.184  11.094   7.806 -0.2390  0.1258  0.0332
   51loPI   C6A  812  18.855  11.470   7.699  0.1699 -0.1249  0.2166
   51loPI   C1B  813  18.850  10.630   9.411 -0.1299 -0.1233 -0.0050
   51loPI   C2B  814  18.764  10.611   9.045  0.0505  0.2407 -0.1478
   51loPI   C3B  815  18.426  10.808   8.853 -0.1024  0.2060  0.0674
   51loPI   C4B  816  18.255  11.169   8.648 -0.5234 -0.1241 -0.2549
   52loPI    C1  817   9.683  16.123   9.962  0.3947 -0.0330  0.0534
   52loPI    C2  818   9.744  16.515  10.013  0.4057 -0.0119 -0.1147
   52loPI    C3  819   9.836  16.259  10.306  0.0757  0.1425  0.1312
   52loPI   PO4  820   9.816  16.065   9.776  0.2886  0.1330  0.3475
   52loPI   GL1  821   9.817  16.133   9.341 -0.0233 -0.1941  0.3964
   52loPI   GL2  822   9.954  15.813   9.263  0.4702 -0.0694 -0.1674
   52loPI   C1A  823   9.681  16.308   8.969 -0.0580  0.1517 -0.2826
   52loPI   C2A  824   9.553  16.595   8.677  0.2158 -0.3505 -0.3692
   52loPI   C3A  825   9.531  16.796   8.228 -0.0831 -0.3018 -0.1548
   52loPI   C4A  826   9.535  16.776   7.888  0.1778 -0.0449 -0.0420
   52loPI   C5A  827   9.191  16.819   7.688 -0.2306 -0.1357  0.1673
   52loPI   C6A  828   9.034  17.011   7.264  0.1413 -0.0559  0.1335
   52loPI   C1B  829   9.949  15.854   8.849 -0.1003  0.1807  0.0482
   52loPI   C2B  830   9.938  16.172   8.491 -0.1755  0.0283 -0.1396
   52loPI   C3B  831   9.799  16.338   8.160  0.0989 -0.4157  0.2287
   52loPI   C4B  832   9.880  16.410   7.712  0.0465  0.1435  0.2498
   53loPI    C1  833  11.243  19.119   9.780  0.3476 -0.1539 -0.2472
   53loPI    C2  834  11.334  19.352  10.092  0.0832  0.0015 -0.2836
   53loPI    C3  835  11.389  18.957  10.116  0.0235  0.0074 -0.0240
   53loPI   PO4  836  11.403  19.312   9.623  0.0467  0.1321  0.1347
   53loPI   GL1  837  11.546  19.436   9.242  0.3246  0.0010  0.0509
   53loPI   GL2  838  11.492  19.117   9.185  0.0442 -0.2005  0.1548
   53loPI   C1A  839  11.623  19.502   8.871  0.1074 -0.1765 -0.3536
   53loPI   C2A  840  11.705  19.441   8.476 -0.2238 -0.2001 -0.2331
   53loPI   C3A  841  11.583  19.551   8.211 -0.2585 -0.0989  0.0333
   53loPI   C4A  842  11.315  19.469   7.907  0.3611 -0.1414 -0.1140
   53loPI   C5A  843  11.183  19.558   7.606  0.2633 -0.1022  0.1185
   53loPI   C6A  844  11.185  19.738   7.298  0.2277 -0.0022  0.0303
   53loPI   C1B  845  11.489  18.982   8.855  0.0393  0.1190 -0.2766
   53loPI   C2B  846  11.305  19.078   8.499 -0.0108  0.0720 -0.1898
   53loPI   C3B  847  11.493  19.033   8.135  0.1097 -0.1003  0.1247
   53loPI   C4B  848  11.537  19.032   7.694 -0.1035 -0.3133 -0.3483
   54loPI    C1  849   0.938  16.136  10.517  0.0915  0.0548 -0.1635
   54loPI    C2  850   1.175  16.188  10.836 -0.1978  0.2930  0.0181
   54loPI    C3  851   0.980  16.500  10.679  0.0605  0.2080 -0.4922
   54loPI   PO4  852   1.102  15.944  10.251  0.0568  0.1264 -0.1051
   54loPI   GL1  853   1.187  15.740   9.873 -0.0673 -0.0925 -0.0752
   54loPI   GL2  854   1.451  15.922   9.763 -0.0907  0.0832 -0.1244
   54loPI   C1A  855   1.056  15.664   9.521 -0.0598  0.0292 -0.0739
   54loPI   C2A  856   0.935  15.802   9.107  0.2317  0.1873 -0.1361
   54loPI   C3A  857   0.819  15.974   8.740 -0.1166 -0.2418  0.1903
   54loPI   C4A  858   0.767  16.144   8.388  0.2491 -0.0688  0.3267
   54loPI   C5A  859   0.427  16.405   8.195 -0.0640 -0.0724  0.1320
   54loPI   C6A  860   0.187  16.768   8.160  0.0367 -0.0205 -0.0913
   54loPI   C1B  861   1.548  15.804   9.409  0.1116  0.1159  0.1236
   54loPI   C2B  862   1.357  15.602   9.099 -0.2597  0.0287  0.0685
   54loPI   C3B  863   1.243  15.630   8.595  0.3500 -0.0563 -0.0283
   54loPI   C4B  864   1.059  15.860   8.217  0.1518  0.3630 -0.1242
   55loPI    C1  865   0.749   3.400  10.092  0.2620 -0.0159  0.0724
   55loPI    C2  866   0.721   3.002  10.116  0.1218  0.0018  0.2191
   55loPI    C3  867   0.695   3.224  10.447 -0.1623  0.1546  0.0980
   55loPI   PO4  868   0.897   3.351   9.755  0.2740  0.5243 -0.2077
   55loPI   GL1  869   0.908   3.073   9.473 -0.1601 -0.0523  0.0510
   55loPI   GL2  870   1.224   3.150   9.360 -0.0397  0.0562  0.2336
   55loPI   C1A  871   0.845   2.973   9.008  0.3286  0.1026 -0.0783
   55loPI   C2A  872   0.715   2.806   8.689 -0.0728 -0.0524 -0.0075
   55loPI   C3A  873   0.556   2.936   8.330 -0.0442 -0.2818 -0.0491
   55loPI   C4A  874   0.629   3.350   8.040  0.1557  0.1102 -0.1441
   55loPI   C5A  875   0.438   3.491   7.710  0.0342 -0.2957 -0.1355
   55loPI   C6A  876   0.127   3.272   7.554 -0.3084  0.3175  0.0228
   55loPI   C1B  877   1.206   3.314   8.924 -0.0280 -0.6225 -0.1365
   55loPI   C2B  878   1.345   3.400   8.576  0.2661 -0.1877 -0.1939
   55loPI   C3B  879   1.186   3.516   8.138  0.2889 -0.2284 -0.0248
   55loPI   C4B  880   1.050   3.543   7.733  0.1485 -0.4565 -0.0596
   56loPI    C1  881   7.330  13.031  10.066 -0.0356 -0.1377  0.1046
   56loPI    C2  882   7.260  12.762  10.354 -0.1508 -0.1202  0.0935
   56loPI    C3  883   7.631  12.811  10.211 -0.1238 -0.2502  0.1182
   56loPI   PO4  884   7.256  13.025   9.865  0.4483  0.0563 -0.2784
   56loPI   GL1  885   7.033  13.085   9.574 -0.2315  0.0638  0.0860
   56loPI   GL2  886   6.812  12.801   9.716 -0.1356 -0.0472 -0.2079
   56loPI   C1A  887   7.181  13.134   9.134 -0.0297 -0.3357 -0.2185
   56loPI   C2A  888   7.249  13.501   8.971 -0.1530  0.2847  0.0791
   56loPI   C3A  889   6.946  13.513   8.554  0.0078 -0.1162  0.1196
   56loPI   C4A  890   6.916  13.725   8.226  0.1298  0.0726  0.0471
   56loPI   C5A  891   7.015  13.557   7.824  0.3016 -0.2059  0.2013
   56loPI   C6A  892   6.951  13.208   7.514 -0.1971 -0.4366  0.0177
   56loPI   C1B  893   6.937  12.753   9.266  0.0400  0.1481  0.2680
   56loPI   C2B  894   7.238  12.617   8.931 -0.2469  0.2754 -0.0223
   56loPI   C3B  895   7.183  12.339   8.656 -0.0985 -0.0607 -0.2400
   56loPI   C4B  896   7.398  12.249   8.292  0.0912 -0.0043 -0.2615
   57loPI    C1  897   2.464  17.142  10.307  0.0261  0.0510 -0.0136
   57loPI    C2  898   2.295  16.899  10.576  0.0896  0.0612  0.0361
   57loPI    C3  899   2.450  17.249  10.693  0.0900  0.0796 -0.0190
   57loPI   PO4  900   2.447  16.960  10.082 -0.0129  0.5131  0.3655
   57loPI   GL1  901   2.532  17.047   9.631  0.0731 -0.0505 -0.0151
   57loPI   GL2  902   2.667  16.791   9.675  0.2881 -0.1958 -0.0486
   57loPI   C1A  903   2.389  16.958   9.312 -0.1345  0.0737 -0.0943
   57loPI   C2A  904   2.426  16.800   8.994 -0.2311  0.0311 -0.1573
   57loPI   C3A  905   2.536  16.637   8.579 -0.0626 -0.3803 -0.2754
   57loPI   C4A  906   2.749  16.486   8.266 -0.2090 -0.0131 -0.2661
   57loPI   C5A  907   2.746  16.166   7.948  0.2781  0.3914 -0.0781
   57loPI   C6A  908   2.885  15.917   7.575 -0.0662  0.2291 -0.0749
   57loPI   C1B  909   2.848  16.653   9.334 -0.0968 -0.1025 -0.1980
   57loPI   C2B  910   2.815  16.385   9.042  0.3229  0.0693 -0.1891
   57loPI   C3B  911   2.561  16.173   8.760 -0.1493  0.0718 -0.4474
   57loPI   C4B  912   2.182  16.315   8.462  0.1513 -0.0612  0.3642
   58loPI    C1  913  14.595   3.635  10.153 -0.0141 -0.1823  0.0061
   58loPI    C2  914  14.875   3.566  10.430 -0.0836  0.0063  0.1256
   58loPI    C3  915  14.500   3.648  10.541 -0.1408 -0.0428 -0.0285
   58loPI   PO4  916  14.703   3.492   9.978 -0.0563  0.2166 -0.2410
   58loPI   GL1  917  14.759   3.267   9.588 -0.1585  0.1074 -0.1240
   58loPI   GL2  918  14.908   3.593   9.485  0.2744 -0.0667  0.3879
   58loPI   C1A  919  14.358   3.277   9.250 -0.0254  0.1898  0.0172
   58loPI   C2A  920  14.242   3.358   8.886  0.1023  0.0684  0.2152
   58loPI   C3A  921  14.279   3.384   8.581 -0.2030  0.0075 -0.0111
   58loPI   C4A  922  14.311   3.677   8.273 -0.0782  0.0412  0.3186
   58loPI   C5A  923  14.129   4.009   8.074  0.1419  0.2341  0.1318
   58loPI   C6A  924  14.041   4.180   7.755  0.0815 -0.1856  0.1590
   58loPI   C1B  925  14.997   3.821   9.130  0.0741 -0.0747  0.0802
   58loPI   C2B  926  15.074   3.910   8.732 -0.0454 -0.1442 -0.0119
   58loPI   C3B  927  14.894   4.114   8.438  0.1222 -0.0895 -0.0810
   58loPI   C4B  928  14.602   4.101   8.140  0.0117  0.0030  0.1196
   59loPI    C1  929   0.614  17.776  10.371  0.2017 -0.0817 -0.0781
   59loPI    C2  930   0.246  17.905  10.458  0.2418 -0.0381  0.0285
   59loPI    C3  931   0.469  17.733  10.742  0.3447  0.0348 -0.0074
   59loPI   PO4  932   0.529  17.787  10.037 -0.2185 -0.2970  0.0307
   59loPI   GL1  933   0.650  17.536   9.654  0.1037 -0.0791 -0.1977
   59loPI   GL2  934   0.790  17.518   9.378 -0.1925  0.0772  0.1168
   59loPI   C1A  935   0.284  17.537   9.243 -0.2509  0.1740  0.3464
   59loPI   C2A  936   0.151  17.617   8.784  0.0716  0.0025  0.1464
   59loPI   C3A  937   0.066  17.831   8.431  0.0630 -0.0531 -0.2425
   59loPI   C4A  938  -0.059  17.881   8.056 -0.1735 -0.0041  0.2117
   59loPI   C5A  939   0.067  18.026   7.632 -0.1989  0.1279 -0.2254
   59loPI   C6A  940   0.455  17.946   7.348 -0.2975  0.0887  0.0246
   59loPI   C1B  941   0.646  17.607   8.926  0.0015  0.0606  0.0608
   59loPI   C2B  942   0.507  17.940   8.724 -0.2997  0.1112 -0.1062
   59loPI   C3B  943   0.559  18.340   8.802 -0.2547 -0.0538 -0.1688
   59loPI   C4B  944   0.816  18.736   8.667  0.3894 -0.1489 -0.2186
   60loPI    C1  945  14.801  15.096  10.107  0.3490  0.0007  0.1835
   60loPI    C2  946  14.460  15.298  10.161  0.2396 -0.0104 -0.3912
   60loPI    C3  947  14.773  15.365  10.401 -0.0659  0.2186 -0.0451
   60loPI   PO4  948  14.730  14.980   9.788  0.0477  0.2870  0.1732
   60loPI   GL1  949  14.928  14.868   9.380  0.3237  0.3822  0.1974
   60loPI   GL2  950  15.147  14.934   9.104 -0.1115  0.0261  0.2683
   60loPI   C1A  951  14.659  14.789   8.948  0.1840 -0.1348 -0.0340
   60loPI   C2A  952  14.610  14.624   8.573  0.1830 -0.3494  0.1077
   60loPI   C3A  953  14.687  14.343   8.242 -0.2710 -0.1456 -0.1528
   60loPI   C4A  954  14.728  14.298   7.876 -0.1083 -0.0037 -0.2059
   60loPI   C5A  955  14.857  14.241   7.398 -0.0416  0.1121 -0.1464
   60loPI   C6A  956  15.011  14.037   7.053  0.0046  0.0005  0.1481
   60loPI   C1B  957  15.097  14.997   8.702 -0.1154 -0.0712 -0.0165
   60loPI   C2B  958  14.988  14.986   8.441  0.2245  0.3327 -0.1324
   60loPI   C3B  959  14.833  14.844   8.127  0.2143  0.0700 -0.0014
   60loPI   C4B  960  14.805  14.768   7.721  0.0328 -0.1019  0.3969
   61loPI    C1  961   8.369  17.157   9.361  0.0149 -0.2063  0.0068
   61loPI    C2  962   8.072  17.076   9.617 -0.0684 -0.1377 -0.0674
   61loPI    C3  963   7.995  17.271   9.276  0.1276  0.2589  0.1084
   61loPI   PO4  964   8.463  16.920   9.344  0.1817 -0.2187  0.2487
   61loPI   GL1  965   8.732  16.588   9.185  0.0901 -0.1477  0.1163
   61loPI   GL2  966   8.353  16.558   8.978  0.0617  0.0787  0.2387
   61loPI   C1A  967   8.958  16.605   8.851  0.2304  0.2817  0.3247
   61loPI   C2A  968   9.029  16.729   8.492  0.2599 -0.0773  0.0188
   61loPI   C3A  969   8.933  16.978   8.077  0.2069  0.0692  0.0659
   61loPI   C4A  970   8.843  17.249   7.644 -0.3870 -0.0629 -0.0064
   61loPI   C5A  971   8.855  17.714   7.634 -0.0922 -0.1759 -0.0149
   61loPI   C6A  972   8.635  18.091   7.623  0.2881 -0.0758 -0.0134
   61loPI   C1B  973   8.502  16.692   8.587 -0.0600  0.2830  0.1420
   61loPI   C2B  974   8.407  16.523   8.235  0.2002  0.0710 -0.1121
   61loPI   C3B  975   8.312  16.347   7.943 -0.2597  0.0985  0.1116
   61loPI   C4B  976   8.264  16.186   7.433  0.0929 -0.0960  0.0336
   62loPI    C1  977   7.791  15.723   9.828 -0.0378 -0.1118  0.1859
   62loPI    C2  978   7.853  15.374  10.012  0.2535 -0.1037  0.1079
   62loPI    C3  979   8.111  15.675  10.062  0.0912  0.0474  0.0449
   62loPI   PO4  980   7.661  15.673   9.655 -0.2103  0.1634 -0.1972
   62loPI   GL1  981   7.358  15.844   9.290 -0.2924 -0.0209 -0.2197
   62loPI   GL2  982   7.637  15.872   9.209 -0.2975  0.2984  0.4999
   62loPI   C1A  983   7.390  15.604   8.884  0.0438 -0.0656  0.1873
   62loPI   C2A  984   7.162  15.592   8.554  0.0658  0.2820 -0.0596
   62loPI   C3A  985   7.062  15.686   8.093 -0.1245 -0.3541 -0.0196
   62loPI   C4A  986   6.970  15.697   7.623  0.2087  0.2461  0.0449
   62loPI   C5A  987   6.959  15.442   7.352  0.1647 -0.0623  0.0299
   62loPI   C6A  988   7.124  15.056   7.207  0.1260  0.0653 -0.3530
   62loPI   C1B  989   7.655  15.946   8.702  0.4595  0.2666  0.4073
   62loPI   C2B  990   7.556  15.737   8.346  0.1872  0.1559 -0.1780
   62loPI   C3B  991   7.477  15.339   8.127  0.0857  0.0831 -0.2204
   62loPI   C4B  992   7.230  14.996   8.275 -0.1236 -0.0202  0.2263
   63loPI    C1  993  16.024  17.390   9.676 -0.0247 -0.0240 -0.1613
   63loPI    C2  994  16.017  16.992   9.713 -0.0058 -0.0391 -0.3122
   63loPI    C3  995  15.964  17.224  10.035  0.0419 -0.1635 -0.2139
   63loPI   PO4  996  16.302  17.473   9.534 -0.2160 -0.1205 -0.2376
   63loPI   GL1  997  16.568  17.677   9.303 -0.3448 -0.1237 -0.0224
   63loPI   GL2  998  16.728  17.974   9.219  0.2743 -0.0625  0.1964
   63loPI   C1A  999  16.495  17.576   8.900  0.0039  0.3051  0.2738
   63loPI   C2A 1000  16.378  17.758   8.425 -0.1409  0.0489 -0.1672
   63loPI   C3A 1001  16.463  18.093   8.062 -0.2597 -0.2690 -0.3147
   63loPI   C4A 1002  16.546  18.216   7.613  0.0618  0.1713 -0.3314
   63loPI   C5A 1003  16.217  18.247   7.236  0.1264  0.1584 -0.2794
   63loPI   C6A 1004  15.771  18.122   6.942 -0.2105 -0.1255 -0.0438
   63loPI   C1B 1005  16.741  17.994   8.711  0.0627 -0.0182  0.0408
   63loPI   C2B 1006  16.937  17.938   8.259  0.1888  0.0090 -0.1274
   63loPI   C3B 1007  16.989  18.045   7.841  0.4764  0.1399  0.2944
   63loPI   C4B 1008  17.228  18.028   7.536  0.1885 -0.4495 -0.2567
   64loPI    C1 1009  18.543   1.201  10.137 -0.3222 -0.2318 -0.0053
   64loPI    C2 1010  18.523   1.600  10.159  0.0715 -0.2024 -0.1185
   64loPI    C3 1011  18.367   1.375  10.451  0.0510  0.0393  0.0590
   64loPI   PO4 1012  18.396   1.168   9.934  0.2995 -0.1691  0.3352
   64loPI   GL1 1013  18.455   1.254   9.477  0.2873 -0.0563 -0.2625
   64loPI   GL2 1014  18.363   0.989   9.378  0.2341 -0.1527 -0.0451
   64loPI   C1A 1015  18.682   1.367   9.057  0.0704  0.2922  0.1533
   64loPI   C2A 1016  18.743   1.474   8.634  0.2583 -0.0278  0.1065
   64loPI   C3A 1017  18.983   1.570   8.252 -0.0751 -0.2619 -0.1251
   64loPI   C4A 1018  19.307   1.574   7.963 -0.2070  0.0146  0.0985
   64loPI   C5A 1019  19.550   1.789   7.634 -0.3154 -0.0503  0.1281
   64loPI   C6A 1020  19.348   1.912   7.210  0.0325  0.0104 -0.1445
   64loPI   C1B 1021  18.692   0.851   9.118  0.1294 -0.2689  0.0253
   64loPI   C2B 1022  18.992   0.975   8.978 -0.4394 -0.0869  0.2591
   64loPI   C3B 1023  19.119   1.142   8.624  0.0120 -0.1788  0.0351
   64loPI   C4B 1024  19.075   1.057   8.205 -0.0504 -0.0539 -0.2267
   65loPI    C1 1025  14.365   2.464  10.008  0.0214 -0.2926  0.1725
   65loPI    C2 1026  14.479   2.279   9.672 -0.1206 -0.2697  0.1109
   65loPI    C3 1027  14.725   2.292   9.987  0.0832 -0.1403 -0.0513
   65loPI   PO4 1028  14.190   2.619   9.895 -0.0848 -0.3590 -0.0834
   65loPI   GL1 1029  14.203   2.705   9.510  0.2189  0.1944 -0.1509
   65loPI   GL2 1030  14.019   2.874   9.492 -0.0657  0.0062 -0.3222
   65loPI   C1A 1031  14.429   2.757   9.142 -0.3380  0.1277  0.0225
   65loPI   C2A 1032  14.764   2.733   8.939  0.1734  0.2210 -0.0969
   65loPI   C3A 1033  14.901   2.529   8.537  0.1283 -0.0897 -0.6396
   65loPI   C4A 1034  15.055   2.458   8.096  0.1667 -0.4898  0.0434
   65loPI   C5A 1035  15.019   2.585   7.742 -0.3253  0.0922  0.0601
   65loPI   C6A 1036  14.669   2.449   7.481  0.0745 -0.2226 -0.0225
   65loPI   C1B 1037  13.939   3.050   9.126  0.2838  0.1618 -0.0993
   65loPI   C2B 1038  14.127   2.898   8.773 -0.1094  0.2916 -0.0755
   65loPI   C3B 1039  14.410   2.789   8.402 -0.0042  0.3187 -0.1082
   65loPI   C4B 1040  14.619   2.790   7.961  0.0025  0.0469 -0.3160
   66loPI    C1 1041   5.088   2.288   9.830 -0.0396  0.1903  0.1769
   66loPI    C2 1042   5.266   2.008  10.053  0.0170  0.0736 -0.0132
   66loPI    C3 1043   5.474   2.325   9.927 -0.0749  0.2604  0.2939
   66loPI   PO4 1044   4.981   2.152   9.573 -0.2182  0.0535  0.0732
   66loPI   GL1 1045   4.897   2.012   9.169  0.0327  0.0916  0.1745
   66loPI   GL2 1046   5.166   1.876   9.138 -0.0764  0.3127  0.0196
   66loPI   C1A 1047   4.807   2.199   8.716 -0.1928 -0.1501 -0.0887
   66loPI   C2A 1048   4.935   2.605   8.598  0.0538  0.1297  0.0685
   66loPI   C3A 1049   4.942   2.866   8.219 -0.3571  0.1223  0.2870
   66loPI   C4A 1050   5.057   2.863   7.858 -0.2665  0.0385 -0.0843
   66loPI   C5A 1051   5.052   2.936   7.317  0.1253 -0.0681 -0.0104
   66loPI   C6A 1052   4.731   3.146   7.068  0.0849 -0.4888 -0.2156
   66loPI   C1B 1053   5.140   1.840   8.721 -0.0152  0.0761 -0.1423
   66loPI   C2B 1054   4.922   1.877   8.421  0.0043  0.4624  0.1779
   66loPI   C3B 1055   4.837   2.268   8.216  0.1093  0.1863 -0.0329
   66loPI   C4B 1056   4.792   2.391   7.845 -0.0488  0.1153  0.0405
   67loPI    C1 1057  13.173   7.233  10.249 -0.0220  0.1801  0.0973
   67loPI    C2 1058  12.814   7.076  10.167  0.0334  0.0940  0.0174
   67loPI    C3 1059  12.842   7.449  10.309 -0.0935  0.0650  0.1201
   67loPI   PO4 1060  13.262   7.131  10.029 -0.2953 -0.2143  0.0440
   67loPI   GL1 1061  13.134   6.998   9.604  0.0078  0.0851 -0.2010
   67loPI   GL2 1062  12.826   7.002   9.681  0.0938  0.1815  0.0657
   67loPI   C1A 1063  13.016   6.973   9.123  0.1080 -0.2068  0.1013
   67loPI   C2A 1064  12.779   7.146   8.747 -0.1244  0.0969  0.2915
   67loPI   C3A 1065  12.827   7.445   8.440 -0.1342 -0.0412  0.1642
   67loPI   C4A 1066  13.160   7.441   8.176 -0.0353 -0.1610 -0.2239
   67loPI   C5A 1067  13.313   7.001   7.864  0.0519 -0.0233 -0.1739
   67loPI   C6A 1068  13.028   6.762   7.634  0.0890  0.0915  0.1107
   67loPI   C1B 1069  12.736   7.389   9.396  0.0446  0.1073  0.0379
   67loPI   C2B 1070  12.963   7.630   8.997 -0.0329  0.1497  0.1166
   67loPI   C3B 1071  13.112   7.796   8.553 -0.0875 -0.2347  0.0537
   67loPI   C4B 1072  13.129   8.096   8.370  0.2680  0.0680 -0.2613
   68loPI    C1 1073   6.873  15.205   9.880  0.0639  0.0030 -0.1436
   68loPI    C2 1074   6.770  15.564  10.024 -0.2339 -0.1500  0.0338
   68loPI    C3 1075   7.103  15.385  10.153 -0.1635 -0.0044  0.0562
   68loPI   PO4 1076   6.827  15.251   9.645 -0.1892  0.0263 -0.1298
   68loPI   GL1 1077   6.865  15.343   9.212  0.1241 -0.1665  0.1080
   68loPI   GL2 1078   6.934  15.592   9.161  0.0143 -0.0708 -0.1084
   68loPI   C1A 1079   6.777  15.217   8.789  0.1209  0.1511 -0.1968
   68loPI   C2A 1080   6.754  15.367   8.397 -0.0788  0.0652  0.2087
   68loPI   C3A 1081   6.864  15.275   7.995  0.2785 -0.0513 -0.0046
   68loPI   C4A 1082   7.115  15.058   7.781 -0.0664  0.1756 -0.0061
   68loPI   C5A 1083   7.217  14.574   7.527  0.3975 -0.2877 -0.2566
   68loPI   C6A 1084   7.556  14.392   7.391  0.2577  0.1415  0.0197
   68loPI   C1B 1085   6.756  15.688   8.829  0.4246 -0.4160  0.0624
   68loPI   C2B 1086   6.645  15.860   8.419 -0.0752 -0.0519 -0.0179
   68loPI   C3B 1087   6.759  16.071   8.016  0.0441  0.0666  0.2110
   68loPI   C4B 1088   6.579  16.011   7.648 -0.2349 -0.1082  0.3426
   69loPI    C1 1089   9.609   3.547   9.975 -0.1618  0.0160  0.0802
   69loPI    C2 1090   9.656   3.794  10.287  0.0348 -0.0115  0.0740
   69loPI    C3 1091   9.977   3.648  10.098 -0.0832  0.0678 -0.1919
   69loPI   PO4 1092   9.380   3.625   9.805  0.1085  0.1657 -0.0479
   69loPI   GL1 1093   9.336   3.743   9.457 -0.1744  0.1431 -0.0267
   69loPI   GL2 1094   9.485   4.101   9.244 -0.1474  0.0091 -0.0647
   69loPI   C1A 1095   9.158   3.705   8.990  0.0305 -0.0930  0.1213
   69loPI   C2A 1096   9.099   3.776   8.521 -0.0924  0.0118 -0.1524
   69loPI   C3A 1097   9.089   3.872   8.079 -0.1760 -0.0688 -0.2882
   69loPI   C4A 1098   9.293   3.997   7.659 -0.1547  0.2009  0.0642
   69loPI   C5A 1099   9.570   4.062   7.356 -0.1038 -0.2231  0.0315
   69loPI   C6A 1100   9.743   4.400   7.356  0.4712  0.0003 -0.2341
   69loPI   C1B 1101   9.356   4.123   8.862  0.0759  0.0197 -0.2788
   69loPI   C2B 1102   9.478   4.188   8.410 -0.0452 -0.0486 -0.1298
   69loPI   C3B 1103   9.695   4.189   8.009  0.1582  0.0643 -0.0883
   69loPI   C4B 1104  10.038   4.202   7.729 -0.1815 -0.1804 -0.2865
   70loPI    C1 1105   9.206  13.750   9.643 -0.5533  0.0438  0.0467
   70loPI    C2 1106   8.990  13.837   9.968 -0.2969 -0.2631  0.3058
   70loPI    C3 1107   9.277  13.559   9.987  0.0444  0.0522 -0.0621
   70loPI   PO4 1108   9.177  13.982   9.507 -0.0395  0.1862  0.2309
   70loPI   GL1 1109   9.297  14.227   9.206 -0.3395 -0.0189 -0.1625
   70loPI   GL2 1110   9.462  14.486   9.100 -0.0699  0.1149  0.5313
   70loPI   C1A 1111   9.036  14.347   8.947  0.0129 -0.0996 -0.0696
   70loPI   C2A 1112   9.167  14.150   8.673 -0.1984 -0.1741 -0.1631
   70loPI   C3A 1113   9.318  14.154   8.296  0.0401 -0.2239  0.1058
   70loPI   C4A 1114   9.412  13.849   7.999  0.0217 -0.0175  0.2616
   70loPI   C5A 1115   9.691  13.532   7.693 -0.2586  0.0769 -0.0204
   70loPI   C6A 1116   9.667  13.116   7.689  0.1151 -0.1901  0.2241
   70loPI   C1B 1117   9.489  14.530   8.589 -0.0273  0.0091  0.0341
   70loPI   C2B 1118   9.701  14.430   8.264  0.2955 -0.1576 -0.1405
   70loPI   C3B 1119   9.476  14.422   7.875 -0.1645  0.0983 -0.0431
   70loPI   C4B 1120   9.370  14.171   7.523  0.0402 -0.4176 -0.1218
   71loPI    C1 1121  11.345   1.561  10.174 -0.1202 -0.2170  0.0951
   71loPI    C2 1122  11.729   1.666  10.214 -0.0738 -0.2795 -0.1675
   71loPI    C3 1123  11.457   1.800  10.474  0.1057 -0.1334 -0.0526
   71loPI   PO4 1124  11.308   1.583   9.953  0.0802 -0.2471  0.0164
   71loPI   GL1 1125  11.372   1.760   9.514  0.1532 -0.3923 -0.1878
   71loPI   GL2 1126  11.214   1.548   9.285  0.2906 -0.0772 -0.4530
   71loPI   C1A 1127  11.683   1.773   9.122 -0.2140 -0.0330 -0.1212
   71loPI   C2A 1128  11.662   1.893   8.656  0.3022 -0.0130  0.0530
   71loPI   C3A 1129  11.662   2.123   8.232 -0.0871  0.1157  0.1477
   71loPI   C4A 1130  11.803   2.500   8.001 -0.3654  0.2623 -0.0478
   71loPI   C5A 1131  11.914   2.845   7.785 -0.0688  0.1317 -0.0643
   71loPI   C6A 1132  12.221   2.943   7.425  0.2151  0.0257 -0.1646
   71loPI   C1B 1133  11.377   1.467   8.889  0.1465  0.1828  0.2640
   71loPI   C2B 1134  11.551   1.409   8.494 -0.0761  0.3332 -0.0328
   71loPI   C3B 1135  11.633   1.593   8.034 -0.0733 -0.1850  0.0994
   71loPI   C4B 1136  11.842   1.576   7.627 -0.3036 -0.5116 -0.1565
   72loPI    C1 1137   3.946  17.268  10.161 -0.1141 -0.0628 -0.2561
   72loPI    C2 1138   3.657  17.524  10.058  0.0282  0.1703 -0.0842
   72loPI    C3 1139   3.802  17.524  10.431 -0.0903 -0.2818 -0.0322
   72loPI   PO4 1140   3.897  17.011  10.100  0.0814 -0.2490 -0.2742
   72loPI   GL1 1141   4.016  16.975   9.742  0.3323 -0.0978  0.1475
   72loPI   GL2 1142   4.347  17.062   9.705 -0.3269  0.2004  0.0302
   72loPI   C1A 1143   4.153  16.891   9.282 -0.1650  0.0060 -0.0801
   72loPI   C2A 1144   4.295  16.781   8.842  0.0765  0.0870 -0.0209
   72loPI   C3A 1145   4.235  16.577   8.485  0.0421  0.2367 -0.1111
   72loPI   C4A 1146   4.183  16.693   8.044  0.0166 -0.2614  0.0860
   72loPI   C5A 1147   3.978  16.599   7.658  0.3749 -0.3434 -0.2576
   72loPI   C6A 1148   3.891  16.182   7.428 -0.0037 -0.4465 -0.1066
   72loPI   C1B 1149   4.342  17.326   9.316 -0.1390 -0.1704  0.1599
   72loPI   C2B 1150   4.256  17.311   8.962  0.3753 -0.1510  0.1624
   72loPI   C3B 1151   4.544  17.512   8.688  0.1013  0.1938 -0.1019
   72loPI   C4B 1152   4.542  17.460   8.275 -0.3343  0.0966  0.2553
   73loPI    C1 1153   4.471  14.169  10.404 -0.0092  0.2702  0.0793
   73loPI    C2 1154   4.716  14.273  10.702 -0.0029  0.0976  0.1354
   73loPI    C3 1155   4.361  14.107  10.783  0.1088 -0.1928  0.0446
   73loPI   PO4 1156   4.674  14.318  10.188  0.1258 -0.0008 -0.0371
   73loPI   GL1 1157   4.947  14.453   9.827  0.0983 -0.1730 -0.0215
   73loPI   GL2 1158   5.198  14.418   9.601 -0.0776  0.2481  0.0415
   73loPI   C1A 1159   4.870  14.562   9.321  0.1954  0.0228  0.0271
   73loPI   C2A 1160   4.665  14.341   9.024 -0.1312 -0.0367  0.2162
   73loPI   C3A 1161   4.317  14.260   8.778  0.2721 -0.4118 -0.1512
   73loPI   C4A 1162   4.108  14.525   8.435 -0.1361  0.0005 -0.0446
   73loPI   C5A 1163   3.971  14.661   8.033 -0.2958  0.1022 -0.3540
   73loPI   C6A 1164   4.095  14.947   7.643  0.1259  0.0330  0.3903
   73loPI   C1B 1165   5.200  14.213   9.165 -0.0521  0.1146 -0.0558
   73loPI   C2B 1166   5.199  14.494   8.942  0.0273  0.0961 -0.2872
   73loPI   C3B 1167   5.056  14.629   8.626 -0.0459 -0.3181 -0.0856
   73loPI   C4B 1168   4.964  14.868   8.180 -0.3718 -0.1481  0.0414
   74loPI    C1 1169   4.350   7.185  10.198 -0.0601  0.0193  0.2510
   74loPI    C2 1170   4.117   6.897  10.348 -0.1266  0.0235  0.1564
   74loPI    C3 1171   4.500   6.922  10.460 -0.2297  0.1575  0.4904
   74loPI   PO4 1172   4.235   7.258  10.018 -0.1394 -0.0518 -0.1170
   74loPI   GL1 1173   4.235   7.243   9.553 -0.0962 -0.2355 -0.1578
   74loPI   GL2 1174   3.964   7.036   9.538 -0.0648 -0.0933 -0.2205
   74loPI   C1A 1175   4.401   7.391   9.115 -0.0554 -0.1077 -0.1093
   74loPI   C2A 1176   4.438   7.506   8.739  0.1702  0.0828 -0.1807
   74loPI   C3A 1177   4.271   7.456   8.428 -0.3501 -0.0582 -0.0864
   74loPI   C4A 1178   4.300   7.509   7.965 -0.2237  0.1136 -0.2748
   74loPI   C5A 1179   4.017   7.449   7.719  0.2441  0.2539 -0.0681
   74loPI   C6A 1180   3.830   7.153   7.519  0.0915  0.1913 -0.2302
   74loPI   C1B 1181   3.795   7.345   9.253 -0.0627 -0.2446 -0.1260
   74loPI   C2B 1182   3.859   7.601   8.890 -0.3872 -0.1498 -0.2963
   74loPI   C3B 1183   3.907   7.751   8.557  0.1115 -0.0704  0.0195
   74loPI   C4B 1184   3.552   7.974   8.317 -0.2410 -0.2182  0.0470
   75loPI    C1 1185   4.593   0.809   9.633  0.1830 -0.1809  0.0345
   75loPI    C2 1186   4.739   1.148   9.789  0.1386 -0.1196 -0.0564
   75loPI    C3 1187   4.780   0.802   9.987  0.2388 -0.0716  0.0075
   75loPI   PO4 1188   4.726   0.824   9.402 -0.0511 -0.3795 -0.0238
   75loPI   GL1 1189   4.790   0.921   9.001 -0.0663  0.1434  0.2786
   75loPI   GL2 1190   4.639   1.084   8.771  0.0590  0.0304 -0.1463
   75loPI   C1A 1191   4.547   0.615   8.649 -0.2074  0.1662 -0.1595
   75loPI   C2A 1192   4.416   0.461   8.208  0.0084  0.2343 -0.1214
   75loPI   C3A 1193   4.566   0.344   7.838 -0.1590 -0.0232 -0.2508
   75loPI   C4A 1194   4.833   0.515   7.595  0.2080 -0.2277 -0.1296
   75loPI   C5A 1195   5.316   0.776   7.477  0.1397 -0.2453 -0.2145
   75loPI   C6A 1196   5.837   0.663   7.349 -0.2780  0.0673  0.0083
   75loPI   C1B 1197   4.592   0.999   8.345 -0.1421 -0.1042 -0.1391
   75loPI   C2B 1198   4.897   0.853   7.979 -0.0193 -0.1877 -0.3303
   75loPI   C3B 1199   5.213   0.558   7.928 -0.0192  0.1542  0.0979
   75loPI   C4B 1200   5.517   0.337   7.661 -0.0778  0.1086 -0.3273
   76loPI    C1 1201   8.452  16.686   9.958  0.0044 -0.1715  0.0667
   76loPI    C2 1202   8.796  16.515  10.069  0.0437 -0.1575 -0.0318
   76loPI    C3 1203   8.485  16.523  10.321  0.1535 -0.0648  0.1022
   76loPI   PO4 1204   8.445  16.554   9.693  0.0408  0.2055 -0.1303
   76loPI   GL1 1205   8.082  16.364   9.436 -0.1626 -0.1514 -0.0116
   76loPI   GL2 1206   8.030  16.678   9.286  0.0759 -0.0953 -0.1214
   76loPI   C1A 1207   7.934  16.226   9.046 -0.0342  0.3327 -0.0857
   76loPI   C2A 1208   8.039  16.318   8.602  0.1403  0.0239 -0.1613
   76loPI   C3A 1209   7.857  16.250   8.243 -0.2613  0.1845 -0.0188
   76loPI   C4A 1210   7.826  16.364   7.868 -0.1592  0.0663  0.0770
   76loPI   C5A 1211   7.586  16.560   7.478  0.0319  0.1157 -0.1321
   76loPI   C6A 1212   7.788  17.010   7.343 -0.2411 -0.0648 -0.1695
   76loPI   C1B 1213   7.908  16.771   8.887 -0.2952  0.2502 -0.0271
   76loPI   C2B 1214   8.022  16.832   8.474  0.1541  0.0248  0.1456
   76loPI   C3B 1215   7.983  16.799   8.048  0.1602 -0.1233  0.2657
   76loPI   C4B 1216   8.108  16.694   7.679 -0.0431  0.0976 -0.0113
   77loPI    C1 1217   5.580   2.929   9.818 -0.1018  0.2080 -0.1937
   77loPI    C2 1218   5.213   2.773   9.850  0.0099 -0.0135  0.0487
   77loPI    C3 1219   5.432   2.840  10.179  0.1850  0.1242 -0.0934
   77loPI   PO4 1220   5.629   2.867   9.562  0.2554 -0.2656  0.1124
   77loPI   GL1 1221   5.633   2.691   9.064 -0.1049  0.1118  0.0265
   77loPI   GL2 1222   5.328   2.944   9.116  0.0989 -0.0879 -0.5479
   77loPI   C1A 1223   5.565   2.591   8.681 -0.0590  0.1961  0.1690
   77loPI   C2A 1224   5.741   2.685   8.314  0.3046  0.4263 -0.0135
   77loPI   C3A 1225   5.928   2.829   8.044 -0.0765 -0.1459 -0.2781
   77loPI   C4A 1226   6.139   2.755   7.632  0.0306 -0.2756 -0.1531
   77loPI   C5A 1227   5.958   2.901   7.267 -0.5015 -0.1716  0.1339
   77loPI   C6A 1228   5.727   3.088   6.991 -0.0139  0.0820  0.2000
   77loPI   C1B 1229   5.432   3.127   8.710 -0.0269  0.3555  0.0446
   77loPI   C2B 1230   5.393   2.995   8.314 -0.1213 -0.0038 -0.2150
   77loPI   C3B 1231   5.518   3.091   7.953 -0.1583 -0.0248 -0.1883
   77loPI   C4B 1232   5.590   3.056   7.521  0.2112  0.3107 -0.2989
   78loPI    C1 1233  10.443   4.531  10.246  0.2502 -0.0094 -0.1887
   78loPI    C2 1234  10.297   4.697  10.580 -0.1227 -0.1507 -0.2766
   78loPI    C3 1235  10.689   4.626  10.547 -0.0289  0.2212 -0.0272
   78loPI   PO4 1236  10.309   4.651  10.075 -0.0824 -0.0337  0.0193
   78loPI   GL1 1237  10.299   4.532   9.522  0.1170 -0.0886  0.3306
   78loPI   GL2 1238   9.964   4.402   9.457 -0.2066 -0.1695  0.4965
   78loPI   C1A 1239  10.399   4.484   9.109  0.1865 -0.0206  0.0166
   78loPI   C2A 1240  10.494   4.322   8.625  0.2382  0.1480  0.1551
   78loPI   C3A 1241  10.728   4.483   8.487  0.0236  0.2797  0.5576
   78loPI   C4A 1242  10.932   4.502   8.161  0.1769  0.1214  0.0636
   78loPI   C5A 1243  11.253   4.446   7.786 -0.1601 -0.1100  0.1559
   78loPI   C6A 1244  11.421   4.774   7.528 -0.2951  0.1101 -0.0118
   78loPI   C1B 1245   9.833   4.430   9.071 -0.0269  0.2328  0.2353
   78loPI   C2B 1246   9.895   4.263   8.691  0.0278 -0.1445 -0.1812
   78loPI   C3B 1247  10.106   4.256   8.294 -0.1881 -0.0256  0.1414
   78loPI   C4B 1248  10.423   4.263   8.112 -0.1192  0.0077  0.2078
   79loPI    C1 1249  15.759   8.154  10.155 -0.0366 -0.1569 -0.0467
   79loPI    C2 1250  15.763   8.554  10.153 -0.1417 -0.1555 -0.0536
   79loPI    C3 1251  15.470   8.358  10.342 -0.0758 -0.2295 -0.0274
   79loPI   PO4 1252  15.803   8.149   9.813  0.1329 -0.0478 -0.3511
   79loPI   GL1 1253  16.045   8.369   9.367 -0.2744 -0.1129 -0.0405
   79loPI   GL2 1254  16.089   8.065   9.414  0.0942 -0.0784  0.3515
   79loPI   C1A 1255  15.750   8.552   9.101 -0.1105  0.0491  0.0086
   79loPI   C2A 1256  15.635   8.844   8.992  0.2691 -0.1452  0.0044
   79loPI   C3A 1257  15.822   8.947   8.627  0.1410 -0.2271  0.2214
   79loPI   C4A 1258  15.700   9.064   8.338 -0.0961 -0.3069 -0.1236
   79loPI   C5A 1259  15.612   9.375   8.136 -0.2402 -0.2945  0.1807
   79loPI   C6A 1260  15.771   9.728   7.804  0.4039  0.0014  0.1842
   79loPI   C1B 1261  16.172   8.039   9.000 -0.0900 -0.0467  0.2297
   79loPI   C2B 1262  16.504   7.977   8.601 -0.0435  0.0075 -0.1709
   79loPI   C3B 1263  16.630   7.884   8.154  0.2113  0.3924  0.4977
   79loPI   C4B 1264  16.496   7.660   7.874 -0.0997  0.4480 -0.0469
   80loPI    C1 1265   6.127   7.610  10.144 -0.3173 -0.0403 -0.0672
   80loPI    C2 1266   6.209   7.320  10.407 -0.0978  0.0617 -0.0207
   80loPI    C3 1267   5.939   7.601  10.497  0.1325  0.2196  0.1882
   80loPI   PO4 1268   6.228   7.542   9.924 -0.1338 -0.0733  0.0381
   80loPI   GL1 1269   6.345   7.392   9.570  0.1080  0.0869  0.4037
   80loPI   GL2 1270   6.349   7.061   9.518 -0.1809  0.0784 -0.4160
   80loPI   C1A 1271   6.490   7.437   9.231 -0.0708 -0.1797  0.3026
   80loPI   C2A 1272   6.509   7.516   8.790 -0.1949 -0.0284 -0.1297
   80loPI   C3A 1273   6.569   7.525   8.387 -0.0389 -0.0142  0.1599
   80loPI   C4A 1274   6.823   7.687   8.203 -0.3107  0.0449 -0.3354
   80loPI   C5A 1275   7.077   7.603   8.036  0.3190 -0.2207  0.0484
   80loPI   C6A 1276   7.029   7.490   7.666  0.1059  0.4214 -0.0535
   80loPI   C1B 1277   6.420   6.934   9.104  0.0556  0.0669 -0.0923
   80loPI   C2B 1278   6.506   6.958   8.721  0.0350  0.3312 -0.3845
   80loPI   C3B 1279   6.448   6.980   8.364 -0.2092 -0.0110 -0.2244
   80loPI   C4B 1280   6.012   6.948   8.094 -0.2017  0.1317  0.1066
   81loPI    C1 1281  10.247  18.479  10.084  0.0517 -0.0521 -0.1412
   81loPI    C2 1282  10.634  18.375  10.090  0.0022 -0.2318  0.0923
   81loPI    C3 1283  10.352  18.101  10.163 -0.1707 -0.1013 -0.0738
   81loPI   PO4 1284  10.200  18.614   9.857 -0.0495  0.1243  0.2918
   81loPI   GL1 1285  10.447  18.823   9.508  0.0399  0.0433 -0.1578
   81loPI   GL2 1286  10.600  18.551   9.534  0.0171  0.1322  0.2793
   81loPI   C1A 1287  10.507  18.867   9.097  0.2045 -0.0764 -0.1281
   81loPI   C2A 1288  10.242  19.047   8.814 -0.1436 -0.2900 -0.1082
   81loPI   C3A 1289  10.307  19.395   8.420  0.0281  0.0932  0.0645
   81loPI   C4A 1290  10.311  19.285   7.931  0.0503  0.1683 -0.3114
   81loPI   C5A 1291  10.212  19.347   7.496 -0.0769 -0.0312 -0.4231
   81loPI   C6A 1292   9.872  19.665   7.460 -0.0267 -0.2629 -0.3537
   81loPI   C1B 1293  10.805  18.432   9.130 -0.0504  0.1832  0.1114
   81loPI   C2B 1294  11.106  18.541   8.787  0.5894 -0.1908  0.2156
   81loPI   C3B 1295  10.968  18.709   8.322  0.1573 -0.0578  0.3298
   81loPI   C4B 1296  10.717  18.590   7.918 -0.2925 -0.1626 -0.2011
   82loPI    C1 1297  17.363  16.769  10.091  0.0264  0.0212 -0.1271
   82loPI    C2 1298  17.111  16.477  10.197  0.0507  0.0155 -0.0842
   82loPI    C3 1299  17.226  16.750  10.467  0.2508 -0.1011 -0.0496
   82loPI   PO4 1300  17.476  16.599   9.840 -0.0049  0.3466  0.0323
   82loPI   GL1 1301  17.599  16.647   9.439 -0.0844 -0.0463 -0.1281
   82loPI   GL2 1302  17.446  16.854   9.214 -0.1750  0.1325  0.2718
   82loPI   C1A 1303  17.548  16.393   8.976  0.1830 -0.0183 -0.0935
   82loPI   C2A 1304  17.319  16.405   8.573 -0.0508  0.2060  0.1492
   82loPI   C3A 1305  17.159  16.406   8.225 -0.3554 -0.5220 -0.0282
   82loPI   C4A 1306  16.955  16.050   7.929  0.2058  0.0896  0.3087
   82loPI   C5A 1307  16.841  15.536   7.787 -0.2957 -0.1985 -0.3498
   82loPI   C6A 1308  16.951  15.243   7.446 -0.2003 -0.2646  0.2440
   82loPI   C1B 1309  17.521  16.864   8.811  0.1775 -0.3854 -0.0411
   82loPI   C2B 1310  17.325  16.865   8.424  0.0677  0.0953  0.1603
   82loPI   C3B 1311  17.030  16.894   8.096 -0.2885 -0.1937  0.2392
   82loPI   C4B 1312  16.821  16.565   7.764 -0.1012  0.0499  0.2564
   83loPI    C1 1313  10.496   1.256  10.113 -0.0944  0.2790 -0.3875
   83loPI    C2 1314  10.391   0.885  10.218  0.4345  0.1880 -0.1507
   83loPI    C3 1315  10.184   1.198  10.356  0.0013 -0.0120 -0.3302
   83loPI   PO4 1316  10.502   1.194   9.809  0.0838 -0.1297  0.2947
   83loPI   GL1 1317  10.270   1.026   9.460  0.1580 -0.1744 -0.2174
   83loPI   GL2 1318  10.495   1.188   9.313  0.0501 -0.1365 -0.0375
   83loPI   C1A 1319  10.261   0.829   9.046 -0.1085  0.0212 -0.1715
   83loPI   C2A 1320  10.138   0.829   8.662 -0.0642 -0.3289 -0.0912
   83loPI   C3A 1321   9.811   0.714   8.384  0.1172 -0.2216 -0.0299
   83loPI   C4A 1322   9.509   0.735   8.031 -0.2692  0.0359 -0.2878
   83loPI   C5A 1323   9.328   0.718   7.547 -0.2371 -0.2740  0.0049
   83loPI   C6A 1324   9.199   0.459   7.172  0.0144  0.2108  0.1380
   83loPI   C1B 1325  10.403   1.361   8.851  0.2130  0.3269  0.2866
   83loPI   C2B 1326  10.261   1.208   8.375  0.1005  0.0761  0.0501
   83loPI   C3B 1327  10.083   1.528   8.069 -0.1795 -0.1602 -0.1068
   83loPI   C4B 1328  10.384   1.737   7.738 -0.3175  0.0198 -0.0903
   84loPI    C1 1329   1.200   9.822  10.497 -0.0753 -0.1579 -0.0638
   84loPI    C2 1330   1.322   9.550  10.763  0.0608  0.0889  0.1309
   84loPI    C3 1331   1.168   9.897  10.888 -0.0372  0.1364 -0.1143
   84loPI   PO4 1332   1.026   9.710  10.275 -0.0841 -0.2772 -0.1887
   84loPI   GL1 1333   0.925   9.743   9.755  0.1047  0.2522  0.2487
   84loPI   GL2 1334   0.950  10.023   9.668  0.3381  0.1244 -0.2265
   84loPI   C1A 1335   1.000   9.706   9.330 -0.0505 -0.1260  0.0831
   84loPI   C2A 1336   0.977   9.858   8.865 -0.0495 -0.0585  0.2241
   84loPI   C3A 1337   0.922   9.867   8.473  0.1131 -0.1756  0.1678
   84loPI   C4A 1338   0.925  10.061   8.037  0.2732 -0.1947 -0.2251
   84loPI   C5A 1339   0.808  10.186   7.726 -0.1286 -0.0776  0.1475
   84loPI   C6A 1340   0.432  10.297   7.449 -0.0822 -0.0150  0.0718
   84loPI   C1B 1341   0.768  10.138   9.267 -0.0022 -0.0200 -0.1091
   84loPI   C2B 1342   0.664  10.248   8.823 -0.2724 -0.0303 -0.0765
   84loPI   C3B 1343   0.530  10.209   8.401  0.3507  0.1111  0.0330
   84loPI   C4B 1344   0.365  10.058   7.934 -0.0625 -0.0106  0.0117
   85loPI    C1 1345  10.990   4.756  10.137  0.0522 -0.1733  0.0550
   85loPI    C2 1346  11.202   5.076  10.028 -0.0245 -0.1168  0.0710
   85loPI    C3 1347  11.108   5.020  10.413 -0.2056 -0.0383  0.0388
   85loPI   PO4 1348  10.835   4.755   9.938 -0.2141 -0.0816  0.2309
   85loPI   GL1 1349  10.754   4.712   9.529 -0.0909  0.2565 -0.0157
   85loPI   GL2 1350  10.923   4.497   9.350  0.2149  0.0507  0.1635
   85loPI   C1A 1351  10.560   5.035   9.250 -0.0125 -0.0285 -0.3838
   85loPI   C2A 1352  10.664   5.045   8.884  0.5065  0.1467 -0.2315
   85loPI   C3A 1353  10.713   4.989   8.501  0.0398  0.3356 -0.0406
   85loPI   C4A 1354  10.805   4.954   7.991 -0.2323  0.0218 -0.2276
   85loPI   C5A 1355  10.850   4.760   7.659 -0.1615  0.0325  0.0747
   85loPI   C6A 1356  11.034   4.513   7.272 -0.0827  0.1888  0.1372
   85loPI   C1B 1357  11.140   4.613   9.003 -0.0927 -0.1386  0.3315
   85loPI   C2B 1358  11.154   4.861   8.730 -0.0339  0.1740  0.3390
   85loPI   C3B 1359  11.083   5.286   8.699 -0.3284 -0.0590  0.0721
   85loPI   C4B 1360  11.177   5.672   8.665 -0.0566 -0.0689 -0.0825
   86loPI    C1 1361   6.999   6.839  10.617 -0.1702 -0.4143  0.0985
   86loPI    C2 1362   7.028   6.549  10.891 -0.1071 -0.2447  0.2732
   86loPI    C3 1363   7.328   6.809  10.842 -0.2002 -0.1539  0.1806
   86loPI   PO4 1364   6.880   6.745  10.257 -0.3797 -0.1197 -0.1168
   86loPI   GL1 1365   6.941   6.749   9.842  0.0880 -0.0674 -0.1535
   86loPI   GL2 1366   7.205   6.815   9.627 -0.0155  0.1472  0.1178
   86loPI   C1A 1367   6.748   6.705   9.482  0.1855  0.0393 -0.4729
   86loPI   C2A 1368   6.862   6.622   9.015  0.2504  0.1224 -0.3731
   86loPI   C3A 1369   6.874   6.666   8.567 -0.0434 -0.0011  0.1487
   86loPI   C4A 1370   6.875   6.729   8.168  0.1436 -0.2895  0.2114
   86loPI   C5A 1371   6.924   6.758   7.778  0.0088 -0.4332  0.1302
   86loPI   C6A 1372   6.734   6.498   7.466 -0.0821  0.0106  0.3684
   86loPI   C1B 1373   7.350   6.767   9.183 -0.2318  0.0727  0.0697
   86loPI   C2B 1374   7.238   6.861   8.803  0.1150 -0.0084  0.1483
   86loPI   C3B 1375   7.323   6.692   8.374 -0.0241 -0.2739 -0.1551
   86loPI   C4B 1376   7.383   6.662   7.988  0.1456  0.2061  0.2429
   87loPI    C1 1377  15.462   2.063   9.866  0.2496  0.2776  0.1814
   87loPI    C2 1378  15.764   2.094   9.606  0.3383 -0.1799  0.2222
   87loPI    C3 1379  15.839   2.008   9.989  0.1722 -0.0289  0.2898
   87loPI   PO4 1380  15.368   1.773   9.820 -0.1010 -0.1611  0.1014
   87loPI   GL1 1381  15.222   1.694   9.425  0.1148 -0.0454  0.3689
   87loPI   GL2 1382  15.401   1.946   9.304 -0.0537  0.0835 -0.1137
   87loPI   C1A 1383  15.038   1.588   9.086  0.2090  0.0836  0.1625
   87loPI   C2A 1384  14.806   1.405   8.717 -0.3410 -0.0858 -0.0464
   87loPI   C3A 1385  14.607   1.369   8.320 -0.2790  0.2010  0.1957
   87loPI   C4A 1386  14.409   1.312   7.970 -0.0136 -0.3712 -0.3549
   87loPI   C5A 1387  14.082   1.509   7.746  0.1150 -0.1626 -0.1405
   87loPI   C6A 1388  13.772   1.373   7.384  0.0011 -0.0426  0.0805
   87loPI   C1B 1389  15.334   2.088   8.978  0.0335  0.1559  0.0322
   87loPI   C2B 1390  15.317   2.127   8.522 -0.3237  0.1860 -0.0022
   87loPI   C3B 1391  15.219   1.939   8.069  0.4680 -0.1085 -0.6014
   87loPI   C4B 1392  15.062   2.104   7.649 -0.0066 -0.3394  0.0289
   88loPI    C1 1393  11.878   6.832   9.980  0.1177  0.1615  0.0851
   88loPI    C2 1394  11.690   6.661  10.289  0.3732 -0.1894  0.0527
   88loPI    C3 1395  11.929   6.976  10.350 -0.1762  0.2346  0.1000
   88loPI   PO4 1396  11.991   6.641   9.779  0.3144  0.0083  0.0270
   88loPI   GL1 1397  12.003   6.739   9.313 -0.1824  0.0578  0.0862
   88loPI   GL2 1398  12.066   6.412   9.380  0.0177  0.0958  0.0683
   88loPI   C1A 1399  11.886   6.877   8.941  0.1132 -0.0089  0.2184
   88loPI   C2A 1400  11.920   6.952   8.564  0.1366 -0.1315  0.0002
   88loPI   C3A 1401  11.748   7.009   8.117 -0.4215  0.2102  0.2746
   88loPI   C4A 1402  11.774   7.069   7.656 -0.2061  0.2166 -0.2705
   88loPI   C5A 1403  11.827   6.777   7.237 -0.1496  0.0754 -0.0606
   88loPI   C6A 1404  11.778   6.508   6.871  0.0621  0.2580 -0.2446
   88loPI   C1B 1405  11.691   6.247   9.203 -0.0310  0.2330  0.0479
   88loPI   C2B 1406  11.490   5.842   9.248  0.3561  0.1760  0.1854
   88loPI   C3B 1407  11.164   5.529   9.147  0.4551 -0.1235 -0.2915
   88loPI   C4B 1408  11.102   5.138   9.184  0.0198 -0.2222 -0.0163
   89loPI    C1 1409  14.303   8.504  10.132  0.0509 -0.1849  0.0664
   89loPI    C2 1410  14.027   8.422  10.411 -0.0764  0.0042 -0.0022
   89loPI    C3 1411  14.391   8.256  10.434 -0.1252 -0.0760  0.2089
   89loPI   PO4 1412  14.220   8.806   9.958  0.3191 -0.3659 -0.1263
   89loPI   GL1 1413  14.267   9.004   9.615  0.3354  0.2453  0.0169
   89loPI   GL2 1414  14.108   9.234   9.636  0.1358 -0.0862 -0.0130
   89loPI   C1A 1415  14.248   9.102   9.075 -0.1932 -0.1590 -0.4791
   89loPI   C2A 1416  14.459   9.092   8.639  0.0162  0.1819 -0.1851
   89loPI   C3A 1417  14.588   9.133   8.219 -0.2013  0.0266 -0.0478
   89loPI   C4A 1418  14.715   8.761   7.825 -0.2110  0.1989  0.2069
   89loPI   C5A 1419  14.955   8.786   7.430 -0.0615  0.1503 -0.0666
   89loPI   C6A 1420  15.198   8.420   7.263  0.0272 -0.3634  0.0623
   89loPI   C1B 1421  14.058   9.495   9.313  0.0057 -0.1649  0.0413
   89loPI   C2B 1422  14.130   9.552   8.858  0.1814  0.0336  0.0623
   89loPI   C3B 1423  14.251   9.605   8.463  0.1960  0.0840  0.1545
   89loPI   C4B 1424  14.675   9.603   8.150  0.1436  0.3379  0.2883
   90loPI    C1 1425  18.022   1.923  10.217 -0.0825  0.1824 -0.0544
   90loPI    C2 1426  18.196   1.869  10.574  0.0851 -0.1068 -0.1762
   90loPI    C3 1427  17.912   1.616  10.449 -0.0482  0.0553 -0.2042
   90loPI   PO4 1428  18.270   2.015  10.052 -0.0201 -0.1936 -0.0666
   90loPI   GL1 1429  18.329   2.201   9.644 -0.1272 -0.0249  0.0643
   90loPI   GL2 1430  18.288   2.558   9.580  0.1932  0.3993  0.4169
   90loPI   C1A 1431  18.288   2.060   9.312 -0.0564 -0.1535  0.3006
   90loPI   C2A 1432  18.592   1.919   8.978 -0.0585 -0.1569 -0.1765
   90loPI   C3A 1433  18.582   1.919   8.590 -0.1411 -0.0524  0.2407
   90loPI   C4A 1434  18.510   1.871   8.165 -0.0937  0.0724  0.0561
   90loPI   C5A 1435  18.789   1.799   7.838  0.0761 -0.0944 -0.0799
   90loPI   C6A 1436  18.900   2.062   7.457  0.1718  0.0885  0.0279
   90loPI   C1B 1437  18.553   2.471   9.263 -0.4855  0.1042 -0.0668
   90loPI   C2B 1438  18.471   2.447   8.912 -0.3156 -0.0061 -0.0702
   90loPI   C3B 1439  18.490   2.460   8.475 -0.2619 -0.1426 -0.0450
   90loPI   C4B 1440  18.447   2.337   8.056 -0.0296 -0.3571  0.1232
   91loPI    C1 1441   3.491   3.960  10.318 -0.0067  0.0806 -0.1864
   91loPI    C2 1442   3.446   4.345  10.418 -0.1461 -0.0406  0.2411
   91loPI    C3 1443   3.774   4.145  10.531 -0.1018 -0.0657  0.0719
   91loPI   PO4 1444   3.453   3.978  10.085  0.0246  0.0514 -0.1495
   91loPI   GL1 1445   3.660   3.903   9.668 -0.1422  0.0268  0.0838
   91loPI   GL2 1446   3.699   3.705   9.447  0.2588  0.0244 -0.2301
   91loPI   C1A 1447   3.623   4.210   9.435 -0.2565 -0.0592  0.3517
   91loPI   C2A 1448   3.710   4.413   9.034 -0.3021 -0.0065  0.0086
   91loPI   C3A 1449   4.004   4.342   8.757  0.0065 -0.1503 -0.2257
   91loPI   C4A 1450   4.124   4.400   8.325  0.0508  0.1047 -0.4631
   91loPI   C5A 1451   3.902   4.337   8.019 -0.0758 -0.2857  0.0219
   91loPI   C6A 1452   3.573   4.258   7.812  0.0364  0.0331  0.3544
   91loPI   C1B 1453   3.594   3.844   9.083  0.3435  0.2737  0.0907
   91loPI   C2B 1454   3.628   3.928   8.620  0.0302  0.0055 -0.0670
   91loPI   C3B 1455   3.710   3.924   8.195  0.1377 -0.2611  0.1391
   91loPI   C4B 1456   3.453   3.767   7.839 -0.1051  0.1733  0.0194
   92loPI    C1 1457   3.446   4.852  10.281  0.2454 -0.3970 -0.0514
   92loPI    C2 1458   3.136   4.748  10.511  0.0242  0.0925 -0.1159
   92loPI    C3 1459   3.470   4.892  10.678 -0.0601  0.2552 -0.0851
   92loPI   PO4 1460   3.305   4.931  10.092  0.1342  0.1292 -0.1781
   92loPI   GL1 1461   3.320   4.939   9.616  0.0718 -0.0938  0.1928
   92loPI   GL2 1462   3.276   4.544   9.588 -0.0217 -0.0078 -0.0945
   92loPI   C1A 1463   2.998   4.966   9.386 -0.0752 -0.3735  0.2267
   92loPI   C2A 1464   2.947   5.129   9.076  0.1239 -0.0550 -0.0955
   92loPI   C3A 1465   2.983   5.145   8.622 -0.1083 -0.2041  0.0589
   92loPI   C4A 1466   3.243   4.986   8.403  0.1857  0.0140  0.0811
   92loPI   C5A 1467   3.457   4.704   8.074 -0.1667 -0.0734 -0.0296
   92loPI   C6A 1468   3.301   4.653   7.624 -0.4328  0.0134  0.1899
   92loPI   C1B 1469   3.254   4.583   9.212  0.0604  0.0473 -0.2527
   92loPI   C2B 1470   3.093   4.684   8.822  0.0967 -0.3806 -0.1399
   92loPI   C3B 1471   3.032   4.514   8.363 -0.2079 -0.3555  0.1087
   92loPI   C4B 1472   3.122   4.293   7.951 -0.0771  0.2640 -0.3684
   93loPI    C1 1473  12.288   3.012   9.931  0.0780 -0.0607  0.0171
   93loPI    C2 1474  12.362   2.969  10.321  0.0397 -0.0772  0.0225
   93loPI    C3 1475  12.014   2.844  10.168  0.1839 -0.3710 -0.0747
   93loPI   PO4 1476  12.457   2.960   9.845 -0.0782 -0.0759 -0.0467
   93loPI   GL1 1477  12.557   2.791   9.345 -0.1372  0.1482 -0.0921
   93loPI   GL2 1478  12.524   3.001   9.328  0.1034  0.1403 -0.1832
   93loPI   C1A 1479  12.863   2.810   8.957  0.2095 -0.0722  0.3924
   93loPI   C2A 1480  12.848   2.791   8.582  0.1247 -0.1916  0.0812
   93loPI   C3A 1481  12.881   2.743   8.152  0.0462 -0.3005  0.2091
   93loPI   C4A 1482  12.983   2.699   7.756 -0.1277 -0.3303  0.3462
   93loPI   C5A 1483  13.350   2.801   7.509 -0.1909  0.1790  0.0733
   93loPI   C6A 1484  13.799   2.764   7.279 -0.2550  0.1111  0.2828
   93loPI   C1B 1485  12.519   3.199   9.006  0.0653  0.1197 -0.2058
   93loPI   C2B 1486  12.562   3.189   8.612  0.0455 -0.1227  0.1264
   93loPI   C3B 1487  12.492   2.995   8.273 -0.2085  0.2847  0.0322
   93loPI   C4B 1488  12.459   3.027   7.854 -0.0901 -0.2101 -0.3925
   94loPI    C1 1489   1.822   2.704  10.240  0.2027  0.1557 -0.2413
   94loPI    C2 1490   1.623   3.015  10.393  0.2972  0.1327 -0.0696
   94loPI    C3 1491   1.794   2.748  10.637  0.2309 -0.0448 -0.2160
   94loPI   PO4 1492   1.673   2.636  10.018  0.0025  0.1502  0.1469
   94loPI   GL1 1493   1.706   2.805   9.598 -0.2743 -0.2425  0.0297
   94loPI   GL2 1494   1.719   3.078   9.481  0.2430 -0.1409  0.2395
   94loPI   C1A 1495   2.131   2.796   9.268 -0.2426 -0.0424 -0.1636
   94loPI   C2A 1496   2.209   2.755   8.826  0.2046 -0.0393 -0.3566
   94loPI   C3A 1497   2.523   2.902   8.435  0.0405 -0.0853  0.0889
   94loPI   C4A 1498   2.631   3.185   8.053  0.2391 -0.0164  0.3281
   94loPI   C5A 1499   2.815   3.357   7.747  0.0132 -0.2176  0.0531
   94loPI   C6A 1500   2.744   3.588   7.334 -0.0643 -0.2486 -0.0754
   94loPI   C1B 1501   1.620   3.049   9.047 -0.0775  0.1366  0.0369
   94loPI   C2B 1502   1.742   2.915   8.528  0.1675  0.2026 -0.0536
   94loPI   C3B 1503   1.866   2.542   8.379  0.3300 -0.0789 -0.0041
   94loPI   C4B 1504   2.010   2.066   8.308 -0.1031 -0.0610  0.0677
   95loPI    C1 1505   5.040  19.138   9.882  0.0924 -0.1406  0.2026
   95loPI    C2 1506   4.835  18.965  10.178  0.0672 -0.1983  0.1515
   95loPI    C3 1507   4.867  19.363  10.163 -0.0923 -0.1860  0.1266
   95loPI   PO4 1508   4.909  19.058   9.561  0.1545  0.1074 -0.0933
   95loPI   GL1 1509   5.146  18.979   9.159  0.1275 -0.2132 -0.1879
   95loPI   GL2 1510   4.847  19.054   9.051 -0.0556 -0.1334  0.0399
   95loPI   C1A 1511   5.474  19.127   8.797 -0.0651  0.0172 -0.1244
   95loPI   C2A 1512   5.855  19.323   8.637  0.1498 -0.0415 -0.0378
   95loPI   C3A 1513   6.004  19.695   8.387 -0.0322 -0.0922 -0.0247
   95loPI   C4A 1514   5.837  20.011   8.099  0.0150  0.1035 -0.0993
   95loPI   C5A 1515   5.688  19.992   7.784  0.0686  0.0459 -0.0910
   95loPI   C6A 1516   5.638  20.345   7.578  0.0819 -0.1979  0.0367
   95loPI   C1B 1517   5.080  19.354   8.835 -0.1851  0.1740 -0.2719
   95loPI   C2B 1518   5.340  19.485   8.480  0.2134  0.0527 -0.2586
   95loPI   C3B 1519   5.619  19.506   8.145  0.0288 -0.0786 -0.0073
   95loPI   C4B 1520   5.986  19.615   7.874 -0.0090 -0.0894 -0.4005
   96loPI    C1 1521  13.446   9.408  10.420 -0.0127  0.2154  0.1071
   96loPI    C2 1522  13.810   9.289  10.535 -0.0167  0.0130 -0.0837
   96loPI    C3 1523  13.500   9.257  10.786  0.0411 -0.0934 -0.0252
   96loPI   PO4 1524  13.538   9.515  10.204 -0.2057  0.2412  0.0019
   96loPI   GL1 1525  13.738   9.568   9.832 -0.2893  0.2030 -0.1077
   96loPI   GL2 1526  13.861   9.864   9.623  0.2458 -0.1430 -0.5640
   96loPI   C1A 1527  13.539   9.608   9.372 -0.3590 -0.1820  0.1353
   96loPI   C2A 1528  13.500   9.901   8.958  0.0313 -0.1148 -0.0408
   96loPI   C3A 1529  13.526  10.212   8.585 -0.3120 -0.0025  0.0294
   96loPI   C4A 1530  13.784  10.496   8.326 -0.1936 -0.1694 -0.0259
   96loPI   C5A 1531  13.926  10.784   7.954 -0.2179  0.1652  0.0783
   96loPI   C6A 1532  14.079  10.563   7.525 -0.0482  0.0168 -0.4262
   96loPI   C1B 1533  13.829  10.037   9.342  0.1997 -0.0005  0.0818
   96loPI   C2B 1534  13.949  10.120   8.900  0.0097 -0.1065 -0.0543
   96loPI   C3B 1535  14.130  10.115   8.442 -0.3953 -0.1290 -0.2198
   96loPI   C4B 1536  14.075   9.777   7.982  0.0083 -0.0347  0.0148
   97loPI    C1 1537  13.633   6.565  10.312 -0.1881 -0.0637 -0.2543
   97loPI    C2 1538  13.376   6.831  10.465  0.0750 -0.0609  0.1994
   97loPI    C3 1539  13.281   6.442  10.458 -0.0306 -0.0349  0.1611
   97loPI   PO4 1540  13.693   6.627  10.122 -0.1876  0.1630  0.0275
   97loPI   GL1 1541  13.835   6.678   9.795 -0.2204  0.0646 -0.1220
   97loPI   GL2 1542  13.598   6.846   9.679  0.0817 -0.0721 -0.2830
   97loPI   C1A 1543  13.921   6.702   9.263 -0.1092 -0.1798 -0.0539
   97loPI   C2A 1544  13.844   6.775   8.963  0.0148 -0.3709 -0.0225
   97loPI   C3A 1545  13.938   6.760   8.570  0.0426  0.1407  0.1423
   97loPI   C4A 1546  14.072   6.532   8.213  0.0841 -0.0197 -0.0634
   97loPI   C5A 1547  13.998   6.253   7.854 -0.4472  0.0247 -0.0711
   97loPI   C6A 1548  13.879   5.767   7.809 -0.0889 -0.2569 -0.1505
   97loPI   C1B 1549  13.455   6.845   9.268  0.0373  0.1017  0.0220
   97loPI   C2B 1550  13.319   6.598   8.907  0.3589  0.3338 -0.2458
   97loPI   C3B 1551  13.436   6.418   8.477  0.0162 -0.3380  0.0667
   97loPI   C4B 1552  13.675   6.266   8.231  0.0416 -0.0459 -0.2288
   98loPI    C1 1553  16.615  16.416   9.914 -0.0013  0.0277 -0.2657
   98loPI    C2 1554  16.243  16.481   9.781 -0.0328  0.0135 -0.1855
   98loPI    C3 1555  16.311  16.446  10.173  0.0528  0.0117 -0.2003
   98loPI   PO4 1556  16.755  16.416   9.709 -0.1987  0.0237 -0.0752
   98loPI   GL1 1557  17.124  16.415   9.403 -0.0409 -0.2083 -0.1067
   98loPI   GL2 1558  16.898  16.094   9.380  0.0311 -0.0228 -0.2283
   98loPI   C1A 1559  17.108  16.636   8.938  0.0983  0.2716  0.1187
   98loPI   C2A 1560  16.811  16.603   8.607 -0.0272  0.0809  0.0813
   98loPI   C3A 1561  16.639  16.663   8.256  0.1775 -0.4813 -0.1701
   98loPI   C4A 1562  16.481  16.897   7.950  0.2308  0.0754 -0.1140
   98loPI   C5A 1563  16.183  17.000   7.697  0.1762  0.0463 -0.0700
   98loPI   C6A 1564  15.923  17.288   7.547  0.1351  0.0806  0.1602
   98loPI   C1B 1565  17.002  16.094   8.894 -0.2161  0.0054 -0.2559
   98loPI   C2B 1566  16.948  16.074   8.488  0.3228  0.0916  0.2717
   98loPI   C3B 1567  16.776  15.748   8.273 -0.0505  0.0097  0.2266
   98loPI   C4B 1568  16.790  15.217   8.197  0.2380  0.0682  0.0214
   99loPI    C1 1569  18.522   9.169   9.723  0.0866 -0.0351  0.0438
   99loPI    C2 1570  18.788   9.308   9.987  0.2646 -0.0225 -0.1395
   99loPI    C3 1571  18.410   9.439   9.996  0.3331  0.1740 -0.0579
   99loPI   PO4 1572  18.640   9.164   9.489  0.0587 -0.1094 -0.0087
   99loPI   GL1 1573  18.969   8.878   9.354  0.0223 -0.0763  0.0621
   99loPI   GL2 1574  18.691   8.851   9.141  0.1890  0.1613 -0.2308
   99loPI   C1A 1575  19.296   8.639   9.061  0.0401 -0.0420 -0.0441
   99loPI   C2A 1576  19.508   8.588   8.663 -0.0172  0.0324 -0.0067
   99loPI   C3A 1577  19.389   8.510   8.322  0.2165 -0.1230  0.0829
   99loPI   C4A 1578  19.169   8.046   8.226  0.0838 -0.0742  0.4351
   99loPI   C5A 1579  18.821   7.818   8.275  0.1184  0.1827 -0.1688
   99loPI   C6A 1580  18.427   7.942   8.373  0.3848 -0.3163 -0.2439
   99loPI   C1B 1581  18.906   8.901   8.792 -0.2740 -0.2780  0.2322
   99loPI   C2B 1582  18.917   8.783   8.330 -0.2091 -0.4221 -0.0879
   99loPI   C3B 1583  19.141   8.788   7.909  0.2663  0.1282 -0.1306
   99loPI   C4B 1584  18.900   9.050   7.465 -0.1680 -0.0619  0.2304
  100loPI    C1 1585  10.883  13.764   9.915  0.0109  0.1193 -0.2417
  100loPI    C2 1586  10.512  13.774  10.065  0.1314  0.3082  0.0546
  100loPI    C3 1587  10.821  13.684  10.302  0.2604 -0.0174 -0.2280
  100loPI   PO4 1588  10.787  13.802   9.592  0.0681  0.0186  0.0996
  100loPI   GL1 1589  10.795  13.536   9.306  0.0458 -0.2963 -0.0044
  100loPI   GL2 1590  10.904  13.803   9.129 -0.1841 -0.2075  0.2516
  100loPI   C1A 1591  10.651  13.562   8.788  0.1546 -0.0807 -0.1826
  100loPI   C2A 1592  10.526  13.413   8.335  0.0785 -0.1286  0.2789
  100loPI   C3A 1593  10.242  13.477   7.981  0.0547 -0.4109 -0.1545
  100loPI   C4A 1594  10.128  13.437   7.467  0.0495  0.0617 -0.2030
  100loPI   C5A 1595  10.005  13.457   7.028  0.1733  0.3462 -0.3579
  100loPI   C6A 1596   9.624  13.555   6.742  0.1670  0.0581  0.1480
  100loPI   C1B 1597  11.150  13.838   8.784 -0.0326  0.1209 -0.0037
  100loPI   C2B 1598  11.424  13.856   8.398  0.1817  0.1535 -0.0695
  100loPI   C3B 1599  11.467  14.128   8.073  0.2347 -0.0315 -0.0544
  100loPI   C4B 1600  11.467  14.234   7.690  0.2755  0.0798 -0.0479
  101loPI    C1 1601   8.381   1.348   9.918  0.1284  0.0968 -0.0068
  101loPI    C2 1602   8.183   1.161  10.212 -0.1934  0.0403 -0.2546
  101loPI    C3 1603   8.558   1.054  10.124 -0.1358 -0.0212  0.0565
  101loPI   PO4 1604   8.146   1.396   9.769 -0.0282 -0.0234  0.0859
  101loPI   GL1 1605   7.867   1.442   9.354  0.0021  0.1760  0.1667
  101loPI   GL2 1606   8.131   1.265   9.232 -0.1439 -0.0022  0.0599
  101loPI   C1A 1607   7.990   1.519   8.843  0.2410 -0.0842  0.0448
  101loPI   C2A 1608   7.767   1.496   8.377  0.0883 -0.3312  0.1720
  101loPI   C3A 1609   7.560   1.564   7.979  0.1523 -0.3840  0.0900
  101loPI   C4A 1610   7.454   1.611   7.556 -0.2748  0.4025 -0.0884
  101loPI   C5A 1611   7.329   1.738   7.154  0.2164  0.1188  0.0092
  101loPI   C6A 1612   7.015   1.552   6.901 -0.0328  0.1236  0.2251
  101loPI   C1B 1613   7.913   1.077   8.981 -0.0878 -0.0538 -0.1836
  101loPI   C2B 1614   7.815   0.730   8.771 -0.1095  0.1046  0.2945
  101loPI   C3B 1615   7.534   0.462   8.445  0.1321  0.1534  0.1250
  101loPI   C4B 1616   7.401   0.006   8.379 -0.2511  0.0461  0.1540
  102loPI    C1 1617  15.038  18.357   9.878 -0.2179 -0.0134 -0.1695
  102loPI    C2 1618  15.052  18.006  10.069  0.1830  0.1269  0.0706
  102loPI    C3 1619  14.785  18.283  10.179 -0.0608 -0.0571 -0.0472
  102loPI   PO4 1620  15.123  18.235   9.609  0.1802  0.1726  0.1686
  102loPI   GL1 1621  15.111  18.216   9.197 -0.1679 -0.1574 -0.0634
  102loPI   GL2 1622  15.425  17.977   9.181  0.1035 -0.0296 -0.1386
  102loPI   C1A 1623  14.705  18.192   8.994  0.1449  0.0961  0.1649
  102loPI   C2A 1624  14.472  17.944   8.759 -0.0576  0.1598  0.0375
  102loPI   C3A 1625  14.379  17.978   8.314 -0.1989  0.0772  0.2258
  102loPI   C4A 1626  14.319  17.982   7.886  0.0548  0.1255  0.2703
  102loPI   C5A 1627  14.325  18.034   7.440 -0.1286  0.0417 -0.2332
  102loPI   C6A 1628  14.489  17.612   7.288 -0.0915 -0.2923  0.1679
  102loPI   C1B 1629  15.749  18.050   8.855 -0.1408 -0.0537  0.0741
  102loPI   C2B 1630  15.936  17.988   8.474 -0.2055  0.3880 -0.0368
  102loPI   C3B 1631  15.965  18.083   8.088  0.2393  0.0317 -0.1590
  102loPI   C4B 1632  16.029  18.439   7.694  0.3075 -0.0626  0.2807
  103loPI    C1 1633   7.640   4.529  10.032  0.0497 -0.0534 -0.2136
  103loPI    C2 1634   7.806   4.856  10.192 -0.0667 -0.0968 -0.0007
  103loPI    C3 1635   7.924   4.492  10.311  0.0199 -0.1329 -0.1934
  103loPI   PO4 1636   7.638   4.690   9.753 -0.0365  0.3090 -0.0031
  103loPI   GL1 1637   7.688   4.739   9.347  0.1830  0.0512  0.2014
  103loPI   GL2 1638   7.951   4.630   9.375  0.0903  0.1058  0.1484
  103loPI   C1A 1639   7.756   4.935   9.000 -0.0008 -0.0890 -0.2359
  103loPI   C2A 1640   8.028   5.053   8.696 -0.0179 -0.0753  0.2613
  103loPI   C3A 1641   8.264   5.093   8.334 -0.2248  0.2493 -0.0940
  103loPI   C4A 1642   8.202   4.931   7.923 -0.0744  0.0073 -0.1190
  103loPI   C5A 1643   8.399   4.880   7.478 -0.0605 -0.2725 -0.4584
  103loPI   C6A 1644   8.113   4.528   7.296  0.1236  0.3640 -0.0978
  103loPI   C1B 1645   8.150   4.661   9.011  0.0308 -0.1085  0.0974
  103loPI   C2B 1646   8.461   4.777   8.640 -0.0486 -0.2493 -0.2690
  103loPI   C3B 1647   8.614   4.619   8.375  0.1012 -0.2537  0.0454
  103loPI   C4B 1648   8.512   4.606   8.082 -0.1065 -0.4170  0.2490
  104loPI    C1 1649   0.178   6.988  10.427 -0.1479 -0.0392 -0.0004
  104loPI    C2 1650   0.362   6.940  10.779 -0.1606  0.0887  0.0240
  104loPI    C3 1651  -0.028   7.029  10.767 -0.1116  0.3041 -0.0168
  104loPI   PO4 1652   0.353   7.039  10.242  0.3641 -0.0137  0.1440
  104loPI   GL1 1653   0.404   7.240   9.774  0.2613 -0.0721  0.1958
  104loPI   GL2 1654   0.542   6.989   9.571 -0.0555 -0.0671 -0.0410
  104loPI   C1A 1655   0.412   7.464   9.439  0.3283 -0.0033  0.0855
  104loPI   C2A 1656   0.310   7.524   9.036  0.2904  0.1020 -0.1719
  104loPI   C3A 1657   0.602   7.546   8.749 -0.3656  0.2426 -0.3525
  104loPI   C4A 1658   0.749   7.526   8.221 -0.0058  0.2005  0.0658
  104loPI   C5A 1659   0.577   7.504   7.901 -0.1298 -0.1022 -0.0648
  104loPI   C6A 1660   0.289   7.449   7.571  0.1254 -0.2275 -0.1218
  104loPI   C1B 1661   0.253   7.038   9.171 -0.0175 -0.3478 -0.0891
  104loPI   C2B 1662   0.265   7.155   8.775 -0.0784 -0.0334  0.0425
  104loPI   C3B 1663  -0.087   7.055   8.597  0.1076  0.2179  0.0758
  104loPI   C4B 1664  -0.305   7.265   8.275 -0.3558 -0.0083 -0.0291
  105loPI    C1 1665  11.696   5.094  10.184 -0.1097 -0.1008 -0.0474
  105loPI    C2 1666  11.559   5.443  10.044  0.0767  0.0732  0.1919
  105loPI    C3 1667  11.483   5.336  10.422 -0.2129 -0.2767  0.0406
  105loPI   PO4 1668  11.725   4.932   9.924 -0.0095  0.2369 -0.0285
  105loPI   GL1 1669  11.717   4.690   9.630  0.0268 -0.0788  0.0796
  105loPI   GL2 1670  11.862   4.956   9.380 -0.0783  0.1971 -0.0409
  105loPI   C1A 1671  11.600   4.467   9.180 -0.0410 -0.2284 -0.0873
  105loPI   C2A 1672  11.661   4.495   8.660  0.0615  0.0546 -0.4332
  105loPI   C3A 1673  11.419   4.617   8.353  0.1127 -0.4892 -0.1835
  105loPI   C4A 1674  11.360   4.854   7.980  0.2383  0.3166  0.0863
  105loPI   C5A 1675  11.228   5.203   7.704 -0.1317 -0.1393 -0.1219
  105loPI   C6A 1676  11.392   5.602   7.748  0.0302 -0.2324  0.0036
  105loPI   C1B 1677  11.591   4.972   8.994 -0.0647  0.1086 -0.1803
  105loPI   C2B 1678  11.640   5.027   8.508 -0.1088  0.0143  0.0107
  105loPI   C3B 1679  11.666   5.199   8.094  0.0041  0.3590  0.0566
  105loPI   C4B 1680  11.862   5.263   7.683  0.2749 -0.1073  0.1191
  106loPI    C1 1681   9.742   9.786  10.323 -0.0903 -0.1199 -0.0260
  106loPI    C2 1682   9.934   9.825  10.672  0.0860 -0.0519 -0.1288
  106loPI    C3 1683   9.545   9.730  10.666  0.0698 -0.0039  0.0865
  106loPI   PO4 1684   9.778   9.927  10.160 -0.1183  0.2601 -0.0632
  106loPI   GL1 1685   9.615   9.848   9.738 -0.0057  0.2479  0.0944
  106loPI   GL2 1686   9.649   9.567   9.774 -0.0038 -0.1534 -0.0187
  106loPI   C1A 1687   9.852  10.186   9.443 -0.0361 -0.0222 -0.0430
  106loPI   C2A 1688   9.929  10.321   9.054 -0.3736  0.2873 -0.1110
  106loPI   C3A 1689  10.081  10.377   8.600  0.0189 -0.0698 -0.2064
  106loPI   C4A 1690  10.192  10.009   8.215 -0.2233 -0.1041 -0.2738
  106loPI   C5A 1691  10.220  10.143   7.698 -0.0793 -0.1118  0.3194
  106loPI   C6A 1692  10.046  10.314   7.205  0.4674 -0.2071 -0.1680
  106loPI   C1B 1693   9.525   9.373   9.406  0.0189  0.0084  0.4313
  106loPI   C2B 1694   9.287   9.440   9.064  0.2424 -0.0899 -0.0279
  106loPI   C3B 1695   8.911   9.733   8.978 -0.1048 -0.1589  0.0026
  106loPI   C4B 1696   8.801   9.978   8.590  0.1220  0.0910 -0.0053
  107loPI    C1 1697  18.730   4.848   9.998 -0.3043  0.0328 -0.0311
  107loPI    C2 1698  18.822   4.699  10.358  0.1581  0.2373 -0.0580
  107loPI    C3 1699  18.492   4.920  10.312  0.0005  0.0616  0.1980
  107loPI   PO4 1700  18.814   4.693   9.891  0.0192  0.0192  0.2318
  107loPI   GL1 1701  18.876   4.731   9.479  0.1188 -0.0404  0.2238
  107loPI   GL2 1702  18.615   4.998   9.492  0.2788  0.0685 -0.2368
  107loPI   C1A 1703  18.975   4.691   9.082  0.1486  0.2578  0.5806
  107loPI   C2A 1704  19.221   4.838   8.666 -0.1967  0.0609 -0.1646
  107loPI   C3A 1705  19.316   4.691   8.246  0.1764 -0.0135 -0.0447
  107loPI   C4A 1706  19.120   4.923   7.871  0.0166 -0.2301 -0.1206
  107loPI   C5A 1707  19.445   5.101   7.629  0.3390  0.3892  0.0862
  107loPI   C6A 1708  19.716   4.926   7.290 -0.0197 -0.1844  0.1963
  107loPI   C1B 1709  18.534   4.861   9.094 -0.1875  0.2050  0.0495
  107loPI   C2B 1710  18.719   4.915   8.703 -0.0008 -0.1904 -0.3212
  107loPI   C3B 1711  18.853   5.055   8.361 -0.1622  0.1276 -0.0923
  107loPI   C4B 1712  18.662   5.137   8.047  0.1427  0.1824  0.3416
  108loPI    C1 1713   1.815  12.285  10.222  0.0386  0.0052 -0.0508
  108loPI    C2 1714   1.484  12.367  10.431  0.1414  0.0637  0.0909
  108loPI    C3 1715   1.812  12.237  10.619  0.1495 -0.1524 -0.0682
  108loPI   PO4 1716   1.622  12.271   9.976  0.1836 -0.1837 -0.1201
  108loPI   GL1 1717   1.404  12.173   9.608  0.0468 -0.1289  0.0069
  108loPI   GL2 1718   1.677  11.950   9.574  0.1565 -0.1510 -0.1051
  108loPI   C1A 1719   1.312  12.214   9.250 -0.0574 -0.2178  0.0228
  108loPI   C2A 1720   1.395  12.455   8.890 -0.1241  0.0285 -0.0906
  108loPI   C3A 1721   1.260  12.388   8.439 -0.0734 -0.0797  0.0058
  108loPI   C4A 1722   1.069  12.508   8.039 -0.0020  0.2135 -0.0720
  108loPI   C5A 1723   1.456  12.401   7.807 -0.0370  0.0876 -0.0580
  108loPI   C6A 1724   1.812  12.388   7.458 -0.2243  0.0851  0.1025
  108loPI   C1B 1725   1.831  12.046   9.210 -0.1778  0.0999  0.0532
  108loPI   C2B 1726   1.656  12.063   8.724 -0.1630  0.0598 -0.2160
  108loPI   C3B 1727   1.676  12.205   8.219 -0.2915  0.0613  0.1917
  108loPI   C4B 1728   1.889  12.627   7.972 -0.0380 -0.1028  0.1539
  109loPI    C1 1729  16.782  12.728  10.261 -0.0492 -0.0389  0.0355
  109loPI    C2 1730  16.673  12.344  10.240  0.2371 -0.1269  0.1198
  109loPI    C3 1731  16.735  12.515  10.596 -0.2624  0.1086  0.1019
  109loPI   PO4 1732  16.996  12.717   9.983  0.0013  0.0012  0.2476
  109loPI   GL1 1733  16.845  12.900   9.527  0.4360  0.0214  0.0115
  109loPI   GL2 1734  16.848  12.573   9.491 -0.1285 -0.0471 -0.1034
  109loPI   C1A 1735  16.846  13.051   9.106  0.1773 -0.0934  0.3183
  109loPI   C2A 1736  16.708  13.088   8.657  0.1435 -0.0239 -0.2263
  109loPI   C3A 1737  16.879  13.321   8.271  0.1547 -0.0655  0.0676
  109loPI   C4A 1738  17.048  13.270   7.921 -0.1060 -0.3230 -0.0084
  109loPI   C5A 1739  17.368  13.085   7.680  0.0189 -0.1330 -0.0469
  109loPI   C6A 1740  17.346  13.058   7.233  0.0176  0.1636 -0.0388
  109loPI   C1B 1741  16.595  12.459   9.098  0.0742  0.0964  0.1547
  109loPI   C2B 1742  16.357  12.365   8.701 -0.4856  0.0401 -0.1116
  109loPI   C3B 1743  16.358  12.458   8.250  0.1238  0.3033  0.2387
  109loPI   C4B 1744  16.428  12.659   7.795  0.1958 -0.1717  0.0786
  110loPI    C1 1745   2.457  10.877  10.252 -0.0831  0.3558  0.0255
  110loPI    C2 1746   2.644  11.152  10.475  0.4352  0.0000  0.0466
  110loPI    C3 1747   2.382  10.902  10.645  0.3230  0.1655  0.1201
  110loPI   PO4 1748   2.416  10.916  10.034  0.1954 -0.1916 -0.5719
  110loPI   GL1 1749   2.023  10.926   9.848 -0.4702 -0.1018 -0.1615
  110loPI   GL2 1750   1.946  11.251   9.882  0.2856 -0.0816  0.1546
  110loPI   C1A 1751   2.060  10.982   9.415  0.1673 -0.1361  0.0101
  110loPI   C2A 1752   2.148  11.007   9.055 -0.3504 -0.0205 -0.0777
  110loPI   C3A 1753   2.016  11.109   8.678  0.2304  0.0568 -0.0181
  110loPI   C4A 1754   2.171  11.390   8.292 -0.1768 -0.0424  0.0549
  110loPI   C5A 1755   2.238  11.444   7.933 -0.0548  0.0482  0.2863
  110loPI   C6A 1756   2.569  11.423   7.697 -0.2104  0.2408 -0.3364
  110loPI   C1B 1757   1.676  11.355   9.483  0.2205 -0.1534  0.0367
  110loPI   C2B 1758   1.419  11.273   9.128  0.0389  0.1034 -0.1190
  110loPI   C3B 1759   1.394  11.212   8.656 -0.0506  0.0260 -0.0212
  110loPI   C4B 1760   1.214  11.341   8.244 -0.0405  0.0592  0.0168
  111loPI    C1 1761   7.782   9.304  10.376  0.0706 -0.0389  0.0440
  111loPI    C2 1762   7.922   9.325  10.750 -0.0404  0.2584  0.0716
  111loPI    C3 1763   7.573   9.145  10.677  0.0363  0.0987  0.0934
  111loPI   PO4 1764   7.754   9.578  10.182 -0.1701 -0.5000  0.0302
  111loPI   GL1 1765   7.726   9.518   9.723  0.1230  0.1892 -0.5587
  111loPI   GL2 1766   7.879   9.754   9.542  0.1625  0.1358 -0.0436
  111loPI   C1A 1767   7.395   9.416   9.365  0.1934 -0.0870 -0.0615
  111loPI   C2A 1768   7.105   9.362   8.906  0.0528  0.0908  0.1719
  111loPI   C3A 1769   7.102   9.376   8.583  0.2093 -0.3118  0.0989
  111loPI   C4A 1770   7.142   9.585   8.092 -0.0780  0.1358 -0.1940
  111loPI   C5A 1771   7.450   9.897   7.951 -0.1980 -0.0867  0.1386
  111loPI   C6A 1772   7.611  10.163   7.661  0.1883  0.0418  0.1136
  111loPI   C1B 1773   8.104   9.820   9.188  0.1827  0.2678  0.0909
  111loPI   C2B 1774   8.233   9.794   8.795  0.0912 -0.0796  0.1519
  111loPI   C3B 1775   8.387   9.834   8.268 -0.1382 -0.0231  0.1756
  111loPI   C4B 1776   8.457   9.703   7.840 -0.0088 -0.3619  0.2928
  112loPI    C1 1777  15.134   4.318  10.099 -0.2468 -0.0363 -0.0614
  112loPI    C2 1778  15.083   4.374  10.491  0.3046 -0.0555  0.0208
  112loPI    C3 1779  15.125   4.004  10.346  0.2110 -0.0412 -0.0439
  112loPI   PO4 1780  14.973   4.355   9.969  0.0526 -0.0459  0.1398
  112loPI   GL1 1781  15.005   4.305   9.554 -0.0916  0.1324 -0.2542
  112loPI   GL2 1782  15.321   4.329   9.615 -0.0514  0.0887 -0.0722
  112loPI   C1A 1783  15.164   4.326   9.139 -0.1715  0.1109  0.0272
  112loPI   C2A 1784  15.149   4.401   8.782 -0.1243 -0.2331 -0.1504
  112loPI   C3A 1785  15.099   4.604   8.302  0.0203  0.1840 -0.0879
  112loPI   C4A 1786  15.068   4.954   8.027  0.4469 -0.1853 -0.0688
  112loPI   C5A 1787  14.844   5.390   7.980  0.0899  0.1165  0.0699
  112loPI   C6A 1788  14.549   5.492   7.721  0.0867  0.5195 -0.2888
  112loPI   C1B 1789  15.471   4.753   9.342 -0.0537  0.0249 -0.0727
  112loPI   C2B 1790  15.629   4.740   8.863 -0.1410 -0.0798  0.0753
  112loPI   C3B 1791  15.519   4.874   8.426  0.2014 -0.1755 -0.1297
  112loPI   C4B 1792  15.730   4.998   8.069 -0.5493  0.2651  0.0400
  113loPI    C1 1793  10.301  12.856   9.625 -0.0457  0.0183 -0.1522
  113loPI    C2 1794  10.054  13.162   9.550 -0.1706 -0.0590 -0.0597
  113loPI    C3 1795  10.090  13.021   9.923  0.1930  0.1056 -0.0284
  113loPI   PO4 1796  10.500  12.989   9.509 -0.1694  0.2094 -0.1219
  113loPI   GL1 1797  10.694  13.070   9.157  0.0421 -0.1351  0.2694
  113loPI   GL2 1798  10.466  12.660   9.101 -0.0720 -0.2288  0.1189
  113loPI   C1A 1799  10.636  13.081   8.704  0.0377  0.0708  0.0366
  113loPI   C2A 1800  10.239  13.008   8.462 -0.0949 -0.1720 -0.0320
  113loPI   C3A 1801  10.017  12.656   8.335  0.1992  0.2646  0.0339
  113loPI   C4A 1802   9.736  12.589   7.958  0.0121  0.0792 -0.2364
  113loPI   C5A 1803   9.624  12.590   7.563  0.1123 -0.0073 -0.1690
  113loPI   C6A 1804   9.591  12.562   7.202  0.3090 -0.1015  0.1414
  113loPI   C1B 1805  10.423  12.476   8.678 -0.2235 -0.1624  0.0722
  113loPI   C2B 1806  10.497  12.579   8.269  0.2079  0.0254 -0.4101
  113loPI   C3B 1807  10.323  12.614   7.902 -0.0560 -0.2596 -0.0216
  113loPI   C4B 1808  10.099  12.907   7.550 -0.0067  0.0370  0.0806
  114loPI    C1 1809   6.904   9.510  10.208  0.2390 -0.1676 -0.3712
  114loPI    C2 1810   7.142   9.827  10.256 -0.1251  0.0621 -0.0198
  114loPI    C3 1811   7.191   9.504  10.486  0.0241 -0.0027 -0.1411
  114loPI   PO4 1812   6.887   9.542   9.905  0.0019 -0.4118  0.1344
  114loPI   GL1 1813   6.571   9.502   9.646 -0.3293 -0.1215  0.1835
  114loPI   GL2 1814   6.368   9.696   9.444 -0.2022 -0.3059 -0.1456
  114loPI   C1A 1815   6.768   9.199   9.311 -0.2606  0.0958 -0.1731
  114loPI   C2A 1816   6.728   9.046   8.962  0.2121 -0.0876 -0.1956
  114loPI   C3A 1817   6.735   9.055   8.551  0.0775  0.1422 -0.3296
  114loPI   C4A 1818   6.946   9.003   8.164 -0.1467 -0.1006  0.1414
  114loPI   C5A 1819   7.202   9.054   7.740 -0.0469 -0.1799 -0.1037
  114loPI   C6A 1820   7.037   9.027   7.226 -0.2316 -0.0629  0.1383
  114loPI   C1B 1821   6.719   9.723   9.209  0.0846 -0.3268 -0.2338
  114loPI   C2B 1822   6.686   9.656   8.758 -0.2199 -0.1084 -0.2091
  114loPI   C3B 1823   6.704   9.689   8.301  0.2213 -0.0857  0.1849
  114loPI   C4B 1824   6.715  10.041   8.105 -0.1182  0.1990  0.1360
  115loPI    C1 1825  10.721   0.171   9.840  0.0334  0.1887 -0.1076
  115loPI    C2 1826  10.854   0.118  10.213  0.0138 -0.1937 -0.1516
  115loPI    C3 1827  10.508   0.308  10.149  0.1512  0.1159  0.0065
  115loPI   PO4 1828  10.917   0.354   9.759 -0.0592  0.1150  0.1020
  115loPI   GL1 1829  11.016   0.208   9.295 -0.0366  0.0426 -0.0038
  115loPI   GL2 1830  10.931  -0.069   9.439  0.0172  0.1673  0.2508
  115loPI   C1A 1831  11.105   0.385   8.818  0.1523  0.3687  0.0162
  115loPI   C2A 1832  11.219   0.650   8.458  0.0451  0.0075 -0.0016
  115loPI   C3A 1833  11.070   0.760   8.080  0.3432 -0.0034 -0.0110
  115loPI   C4A 1834  10.724   1.051   8.001 -0.1027  0.1033 -0.1082
  115loPI   C5A 1835  10.565   1.465   8.092 -0.1178 -0.1910 -0.0675
  115loPI   C6A 1836  10.585   1.839   8.206  0.1477 -0.1375  0.0753
  115loPI   C1B 1837  10.989  -0.165   8.975 -0.2320 -0.0639  0.3473
  115loPI   C2B 1838  10.774  -0.007   8.619  0.2155 -0.0522  0.0797
  115loPI   C3B 1839  10.834   0.345   8.342  0.1046  0.1633  0.0532
  115loPI   C4B 1840  10.776   0.308   7.883 -0.0966 -0.1356  0.2928
  116loPI    C1 1841  14.294  13.007  10.089 -0.0443 -0.0661 -0.0492
  116loPI    C2 1842  14.677  13.076  10.181 -0.0739  0.0425 -0.0052
  116loPI    C3 1843  14.388  13.286  10.360 -0.1678 -0.2033  0.1372
  116loPI   PO4 1844  14.304  12.992   9.846 -0.1915 -0.0694  0.0574
  116loPI   GL1 1845  14.574  12.747   9.574 -0.0515 -0.2280 -0.1865
  116loPI   GL2 1846  14.962  12.755   9.635  0.0370 -0.1138 -0.3227
  116loPI   C1A 1847  14.402  12.514   9.265  0.1564  0.0383  0.0202
  116loPI   C2A 1848  14.418  12.615   8.776 -0.2547  0.2321  0.1832
  116loPI   C3A 1849  14.690  12.768   8.419  0.0763 -0.3303  0.1266
  116loPI   C4A 1850  14.536  12.769   8.038  0.1659 -0.0713 -0.0652
  116loPI   C5A 1851  14.495  12.817   7.692 -0.1400  0.1925 -0.1730
  116loPI   C6A 1852  14.673  12.680   7.352 -0.1027  0.3100  0.0161
  116loPI   C1B 1853  14.928  12.548   9.252 -0.0781  0.3036 -0.0510
  116loPI   C2B 1854  14.881  12.387   8.899 -0.0423 -0.0023  0.1565
  116loPI   C3B 1855  15.033  12.389   8.442  0.0763  0.4341  0.0447
  116loPI   C4B 1856  15.055  12.675   8.113 -0.0713 -0.0567  0.2944
  117loPI    C1 1857  18.079   0.205   9.957 -0.2048 -0.0443  0.1635
  117loPI    C2 1858  18.307   0.417  10.208 -0.0191 -0.0505  0.0028
  117loPI    C3 1859  17.908   0.433  10.238  0.0005 -0.0628  0.3057
  117loPI   PO4 1860  18.159   0.245   9.717  0.1304 -0.0135  0.2823
  117loPI   GL1 1861  18.080   0.132   9.331  0.1732 -0.1198  0.0306
  117loPI   GL2 1862  18.073  -0.108   9.095 -0.1127 -0.0284 -0.2830
  117loPI   C1A 1863  18.273   0.567   9.142  0.0314  0.2165 -0.3632
  117loPI   C2A 1864  18.296   0.943   8.849 -0.1525  0.0221  0.0974
  117loPI   C3A 1865  18.588   0.987   8.645 -0.0722  0.0533  0.2101
  117loPI   C4A 1866  18.593   1.199   8.238 -0.2196 -0.0664  0.0694
  117loPI   C5A 1867  18.785   1.297   7.781 -0.0968 -0.1841  0.0949
  117loPI   C6A 1868  18.547   1.501   7.427 -0.2204 -0.0792 -0.0064
  117loPI   C1B 1869  18.052  -0.071   8.709  0.0862  0.0165 -0.0848
  117loPI   C2B 1870  17.953  -0.208   8.341  0.2050  0.0305  0.0516
  117loPI   C3B 1871  17.855  -0.652   8.166  0.0274  0.0737 -0.0590
  117loPI   C4B 1872  17.954  -0.833   7.845  0.2365  0.0966 -0.4078
  118loPI    C1 1873   9.477   4.639   9.908 -0.0053 -0.1562 -0.2867
  118loPI    C2 1874   9.532   4.280  10.076  0.0841 -0.0338 -0.0511
  118loPI    C3 1875   9.842   4.475   9.914  0.0307 -0.0739 -0.2024
  118loPI   PO4 1876   9.232   4.659   9.788 -0.0637 -0.0819  0.0184
  118loPI   GL1 1877   8.962   4.530   9.571 -0.0240 -0.1216  0.1065
  118loPI   GL2 1878   8.932   4.570   9.338 -0.0914  0.2164  0.1544
  118loPI   C1A 1879   9.360   4.561   9.160 -0.0873  0.0027  0.1192
  118loPI   C2A 1880   9.484   4.552   8.726  0.2174 -0.1783 -0.1918
  118loPI   C3A 1881   9.705   4.657   8.302 -0.2439  0.0027 -0.0682
  118loPI   C4A 1882   9.747   4.697   7.885 -0.1080 -0.4057  0.1319
  118loPI   C5A 1883   9.981   4.820   7.470 -0.2042 -0.1673 -0.0175
  118loPI   C6A 1884  10.043   5.046   7.179 -0.0668  0.0319  0.1014
  118loPI   C1B 1885   8.875   4.320   9.009  0.3695  0.0509  0.2438
  118loPI   C2B 1886   8.927   4.249   8.520  0.1720 -0.1987  0.1181
  118loPI   C3B 1887   8.740   4.192   8.113 -0.4751  0.3030  0.1679
  118loPI   C4B 1888   8.840   4.245   7.678 -0.0243  0.0953 -0.4229
  119loPI    C1 1889   9.708   0.742   9.772 -0.0208 -0.1708  0.0068
  119loPI    C2 1890   9.675   1.040  10.036 -0.3162 -0.0922 -0.1144
  119loPI    C3 1891  10.036   0.928   9.904 -0.1846  0.0331  0.1322
  119loPI   PO4 1892   9.590   0.789   9.523 -0.0577  0.2203  0.0587
  119loPI   GL1 1893   9.751   0.967   9.115 -0.0176  0.0909 -0.1660
  119loPI   GL2 1894   9.895   1.246   9.089  0.4271 -0.1328  0.1986
  119loPI   C1A 1895   9.593   0.612   8.865 -0.0029 -0.0781  0.2670
  119loPI   C2A 1896   9.343   0.498   8.473 -0.2443  0.1179 -0.1595
  119loPI   C3A 1897   9.361   0.265   8.037  0.2212  0.0869 -0.2543
  119loPI   C4A 1898   9.377   0.227   7.632  0.1036 -0.1213  0.3669
  119loPI   C5A 1899   9.355  -0.003   7.217  0.3701  0.3840  0.0238
  119loPI   C6A 1900   9.598  -0.298   7.045 -0.0904 -0.1975 -0.2795
  119loPI   C1B 1901   9.900   1.386   8.653 -0.0241  0.1444 -0.0129
  119loPI   C2B 1902   9.747   1.234   8.308 -0.1365  0.4539  0.3051
  119loPI   C3B 1903   9.824   1.126   7.940  0.1126  0.0009 -0.0703
  119loPI   C4B 1904  10.300   1.178   7.754  0.1133  0.0713 -0.2184
  120loPI    C1 1905   1.815   1.189  10.211  0.0145  0.0178  0.1939
  120loPI    C2 1906   1.427   1.096  10.182  0.0901 -0.2757  0.0849
  120loPI    C3 1907   1.660   0.905  10.445  0.1930 -0.2060  0.0454
  120loPI   PO4 1908   1.856   1.200   9.872 -0.3617  0.4342 -0.2273
  120loPI   GL1 1909   1.758   1.392   9.352  0.0706 -0.2969 -0.0015
  120loPI   GL2 1910   1.438   1.256   9.280 -0.1568 -0.1225  0.2386
  120loPI   C1A 1911   1.911   1.450   9.011 -0.0998  0.0054  0.1465
  120loPI   C2A 1912   2.089   1.185   8.741  0.1616 -0.0213 -0.0298
  120loPI   C3A 1913   2.395   1.089   8.455  0.0638  0.1387  0.0377
  120loPI   C4A 1914   2.495   1.265   8.093  0.0080  0.0284 -0.1184
  120loPI   C5A 1915   2.338   1.578   7.750 -0.1165  0.0968  0.4183
  120loPI   C6A 1916   2.506   1.664   7.374 -0.3563  0.0468  0.0172
  120loPI   C1B 1917   1.383   1.557   8.952 -0.0402 -0.2508  0.0541
  120loPI   C2B 1918   1.358   1.666   8.534 -0.1039  0.3409  0.2764
  120loPI   C3B 1919   1.570   1.775   8.140 -0.1873  0.4847  0.3700
  120loPI   C4B 1920   1.950   1.835   7.875  0.4634 -0.0340 -0.0494
  121loPI    C1 1921   2.688  17.851  10.149 -0.1213  0.2785 -0.0120
  121loPI    C2 1922   2.794  17.550  10.389 -0.2369  0.3727  0.1595
  121loPI    C3 1923   2.416  17.681  10.387 -0.2678  0.2887 -0.1699
  121loPI   PO4 1924   2.748  17.834   9.949  0.0503 -0.0695  0.1903
  121loPI   GL1 1925   2.996  17.853   9.542  0.0393 -0.0432  0.2049
  121loPI   GL2 1926   2.917  17.543   9.518 -0.2007 -0.1986 -0.1173
  121loPI   C1A 1927   3.119  18.004   9.162  0.2405 -0.1027  0.1070
  121loPI   C2A 1928   3.282  18.019   8.780 -0.0801  0.0389  0.0820
  121loPI   C3A 1929   3.448  17.787   8.449  0.0004  0.0955 -0.1343
  121loPI   C4A 1930   3.498  17.629   8.035 -0.2832 -0.4568  0.1789
  121loPI   C5A 1931   3.903  17.624   7.773 -0.0545  0.0410 -0.1657
  121loPI   C6A 1932   4.124  17.528   7.493 -0.1815  0.2785  0.0155
  121loPI   C1B 1933   2.991  17.538   9.027  0.0725 -0.0259 -0.1625
  121loPI   C2B 1934   2.917  17.523   8.651 -0.2446 -0.1655  0.1145
  121loPI   C3B 1935   2.958  17.479   8.214  0.1923 -0.1350 -0.0931
  121loPI   C4B 1936   2.854  17.277   7.806  0.2213 -0.2870 -0.1028
  122loPI    C1 1937  16.183   7.885  10.292 -0.0724 -0.0574  0.2048
  122loPI    C2 1938  16.487   7.626  10.316 -0.0287 -0.0466 -0.1657
  122loPI    C3 1939  16.430   7.897  10.606  0.1379 -0.2371  0.0487
  122loPI   PO4 1940  16.201   7.890   9.972 -0.0650 -0.0007 -0.1560
  122loPI   GL1 1941  16.452   7.767   9.641  0.0923 -0.0113 -0.1926
  122loPI   GL2 1942  16.695   7.993   9.511  0.1296  0.0916  0.2812
  122loPI   C1A 1943  16.288   7.595   9.199  0.0379  0.0403  0.1003
  122loPI   C2A 1944  16.325   7.568   8.763 -0.0467  0.0686 -0.1750
  122loPI   C3A 1945  16.162   7.661   8.365  0.0065 -0.0073  0.0225
  122loPI   C4A 1946  16.019   7.480   7.951 -0.0844  0.0452  0.2060
  122loPI   C5A 1947  16.308   7.272   7.633  0.0259  0.2293 -0.0279
  122loPI   C6A 1948  16.547   6.892   7.488 -0.2386 -0.0865  0.0204
  122loPI   C1B 1949  16.668   8.062   9.077 -0.0893 -0.3573 -0.1157
  122loPI   C2B 1950  16.992   8.104   8.808  0.1406  0.0588  0.1489
  122loPI   C3B 1951  17.064   7.884   8.382 -0.1933 -0.1210 -0.0563
  122loPI   C4B 1952  17.057   7.685   8.061  0.0867 -0.0330  0.2497
  123loPI    C1 1953   3.456  14.828  10.242  0.0535  0.0731  0.0903
  123loPI    C2 1954   3.400  15.210  10.138  0.0006  0.0009 -0.1531
  123loPI    C3 1955   3.642  15.119  10.443 -0.3557  0.2555  0.2156
  123loPI   PO4 1956   3.260  14.722  10.007 -0.0573 -0.1329 -0.1257
  123loPI   GL1 1957   3.221  15.054   9.686  0.1462  0.1714  0.0904
  123loPI   GL2 1958   3.499  14.939   9.635 -0.2179  0.2663 -0.3076
  123loPI   C1A 1959   3.320  15.351   9.396  0.0667 -0.1273  0.2644
  123loPI   C2A 1960   3.214  15.431   8.981  0.4060 -0.2041  0.1042
  123loPI   C3A 1961   3.313  15.440   8.522  0.0496  0.0705 -0.0411
  123loPI   C4A 1962   3.397  15.436   8.131  0.0695  0.0780 -0.0257
  123loPI   C5A 1963   3.808  15.474   7.843  0.0438  0.0090  0.0261
  123loPI   C6A 1964   3.982  15.833   7.775  0.2296 -0.1981  0.0570
  123loPI   C1B 1965   3.636  14.950   9.290 -0.0864 -0.1843 -0.0338
  123loPI   C2B 1966   3.637  15.199   8.983  0.1997  0.0838  0.2546
  123loPI   C3B 1967   3.691  15.168   8.533  0.1965 -0.0579  0.0179
  123loPI   C4B 1968   3.773  15.073   8.145  0.0874  0.0840 -0.4561
  124loPI    C1 1969   5.292  14.820  10.015 -0.1134  0.1333  0.0064
  124loPI    C2 1970   5.573  15.053  10.180 -0.0470  0.2028 -0.2014
  124loPI    C3 1971   5.543  14.669  10.287  0.0553  0.2236 -0.0971
  124loPI   PO4 1972   5.305  14.931   9.733 -0.2081 -0.0792 -0.1035
  124loPI   GL1 1973   5.461  14.736   9.332 -0.3072 -0.1406  0.2024
  124loPI   GL2 1974   5.805  14.565   9.324 -0.1692  0.0032 -0.2275
  124loPI   C1A 1975   5.142  14.997   9.082 -0.2841 -0.0678 -0.2636
  124loPI   C2A 1976   4.799  14.952   8.909  0.2755 -0.2550  0.2357
  124loPI   C3A 1977   4.551  14.773   8.576 -0.2988 -0.1226  0.1985
  124loPI   C4A 1978   4.494  14.652   8.147  0.0792 -0.1223 -0.1747
  124loPI   C5A 1979   4.496  14.609   7.718  0.1605  0.0818  0.2458
  124loPI   C6A 1980   4.285  14.539   7.324 -0.0699 -0.2777  0.0021
  124loPI   C1B 1981   5.931  14.593   8.946  0.3831  0.0334  0.2727
  124loPI   C2B 1982   5.898  14.750   8.565 -0.2865 -0.0060  0.1290
  124loPI   C3B 1983   5.925  14.782   8.184 -0.3664 -0.3917 -0.0599
  124loPI   C4B 1984   5.878  14.496   7.888  0.1729  0.0164  0.0127
  125loPI    C1 1985   0.563   5.314   9.989  0.1647 -0.0146 -0.2435
  125loPI    C2 1986   0.640   5.428  10.365 -0.1846 -0.0675 -0.1524
  125loPI    C3 1987   0.830   5.603  10.060 -0.1874  0.2544  0.0266
  125loPI   PO4 1988   0.583   5.048   9.967 -0.1657 -0.2990  0.0871
  125loPI   GL1 1989   0.937   4.853   9.709 -0.2084 -0.0928  0.1943
  125loPI   GL2 1990   1.249   4.781   9.948 -0.4316 -0.0209  0.0243
  125loPI   C1A 1991   0.749   5.040   9.392  0.4249  0.2209  0.1189
  125loPI   C2A 1992   0.509   5.364   9.241  0.3033  0.1191 -0.1109
  125loPI   C3A 1993   0.276   5.290   8.883 -0.0098 -0.0705 -0.1286
  125loPI   C4A 1994   0.179   5.278   8.449  0.0434  0.3100  0.0126
  125loPI   C5A 1995   0.027   5.372   8.020  0.0878  0.1275 -0.0557
  125loPI   C6A 1996  -0.024   5.530   7.578  0.2514 -0.2292 -0.0519
  125loPI   C1B 1997   1.369   5.111   9.738  0.1223  0.2491 -0.1042
  125loPI   C2B 1998   1.326   5.120   9.290  0.0960  0.0961  0.1775
  125loPI   C3B 1999   1.456   5.069   8.809  0.0794 -0.0523 -0.2296
  125loPI   C4B 2000   1.787   5.214   8.526  0.2019 -0.0239  0.0323
  126loPI    C1 2001  18.820   8.046  10.342  0.1026  0.0270 -0.0988
  126loPI    C2 2002  19.056   8.342  10.471 -0.0820  0.0332  0.2385
  126loPI    C3 2003  19.125   7.966  10.588 -0.0238 -0.0176  0.0451
  126loPI   PO4 2004  18.822   8.140  10.062 -0.0870 -0.0942 -0.0255
  126loPI   GL1 2005  18.565   7.957   9.662  0.2191 -0.5185 -0.2590
  126loPI   GL2 2006  18.176   8.018   9.584 -0.2195 -0.1979 -0.0057
  126loPI   C1A 2007  18.702   7.946   9.176  0.1180 -0.3248  0.2117
  126loPI   C2A 2008  18.487   8.167   8.822  0.0157 -0.1055 -0.2108
  126loPI   C3A 2009  18.514   8.598   8.663 -0.0311 -0.1115  0.0661
  126loPI   C4A 2010  18.459   8.938   8.446 -0.0098 -0.2282 -0.0778
  126loPI   C5A 2011  18.372   9.283   8.250  0.1515 -0.0909  0.1121
  126loPI   C6A 2012  18.239   9.084   7.855  0.2851 -0.1978  0.1036
  126loPI   C1B 2013  18.160   7.958   9.096 -0.1333  0.0751 -0.1758
  126loPI   C2B 2014  18.047   7.823   8.683 -0.0097 -0.1462 -0.1296
  126loPI   C3B 2015  17.915   7.947   8.191 -0.0682  0.1009 -0.2022
  126loPI   C4B 2016  18.044   8.030   7.724  0.5210 -0.1108 -0.0434
  127loPI    C1 2017  12.703   8.767  10.318  0.0387  0.4147 -0.0350
  127loPI    C2 2018  12.321   8.789  10.436 -0.0292 -0.2363 -0.1002
  127loPI    C3 2019  12.611   8.733  10.706 -0.0277 -0.2032 -0.0949
  127loPI   PO4 2020  12.752   8.946  10.161  0.1199 -0.1503 -0.1210
  127loPI   GL1 2021  12.728   9.231   9.819 -0.1587 -0.0880 -0.0869
  127loPI   GL2 2022  12.831   9.394   9.699 -0.1373 -0.1005  0.1368
  127loPI   C1A 2023  12.685   9.106   9.306 -0.2589  0.0276  0.1577
  127loPI   C2A 2024  12.653   9.361   8.969  0.0362 -0.5509  0.4814
  127loPI   C3A 2025  12.632   9.374   8.500  0.1068 -0.3852  0.1622
  127loPI   C4A 2026  12.639   9.351   8.116 -0.2182  0.3919 -0.1897
  127loPI   C5A 2027  12.628   9.333   7.614  0.0025  0.1218 -0.2547
  127loPI   C6A 2028  12.826   9.413   7.213  0.1770 -0.2035 -0.1060
  127loPI   C1B 2029  12.973   9.565   9.312  0.1443  0.0275  0.1162
  127loPI   C2B 2030  13.133   9.537   8.947  0.1245 -0.1475  0.0773
  127loPI   C3B 2031  13.176   9.249   8.649 -0.4962  0.0251 -0.1347
  127loPI   C4B 2032  13.522   9.074   8.408  0.2161 -0.2143  0.1647
  128loPI    C1 2033  12.482   1.030   9.975 -0.2010 -0.2300  0.1019
  128loPI    C2 2034  12.528   1.154  10.353 -0.0488 -0.1170  0.0474
  128loPI    C3 2035  12.535   0.763  10.268  0.2391 -0.1302  0.1208
  128loPI   PO4 2036  12.491   1.213   9.784  0.3923  0.2940  0.1763
  128loPI   GL1 2037  12.728   1.280   9.384 -0.1521  0.0923 -0.0612
  128loPI   GL2 2038  12.454   1.001   9.291 -0.0264  0.0276  0.0681
  128loPI   C1A 2039  12.965   1.299   8.952  0.3565  0.2268 -0.2402
  128loPI   C2A 2040  13.107   1.359   8.528 -0.1188  0.0875 -0.0529
  128loPI   C3A 2041  13.132   1.121   8.094  0.0373  0.0376  0.1058
  128loPI   C4A 2042  12.821   1.063   7.659  0.0333 -0.1371 -0.0469
  128loPI   C5A 2043  12.938   0.896   7.242  0.2446  0.2853  0.1370
  128loPI   C6A 2044  12.802   1.152   6.818  0.4550  0.2006  0.0347
  128loPI   C1B 2045  12.524   0.774   8.909  0.1845  0.1582 -0.0118
  128loPI   C2B 2046  12.519   0.867   8.417 -0.0714  0.2915  0.0586
  128loPI   C3B 2047  12.424   0.876   7.898 -0.0554 -0.0264 -0.1236
  128loPI   C4B 2048  12.484   0.835   7.428  0.1274 -0.0276 -0.0461
  129loPI    C1 2049   3.732  12.323   9.951  0.0539  0.1617  0.1878
  129loPI    C2 2050   3.495  12.191  10.245  0.0579  0.0801  0.1547
  129loPI    C3 2051   3.891  12.203  10.298  0.0722 -0.0950  0.0927
  129loPI   PO4 2052   3.635  12.510   9.877 -0.2139  0.0743 -0.0320
  129loPI   GL1 2053   3.479  12.571   9.587  0.1349  0.0740 -0.0217
  129loPI   GL2 2054   3.646  12.546   9.288 -0.1236  0.4296  0.0013
  129loPI   C1A 2055   3.177  12.613   9.193  0.2560  0.1035 -0.0379
  129loPI   C2A 2056   3.183  12.368   8.749 -0.1342  0.3943  0.0241
  129loPI   C3A 2057   3.142  12.147   8.349 -0.2880 -0.0250  0.2822
  129loPI   C4A 2058   3.017  12.123   7.860 -0.4265 -0.1357 -0.0391
  129loPI   C5A 2059   3.125  12.075   7.482 -0.1730  0.1715  0.2525
  129loPI   C6A 2060   3.083  11.738   7.246  0.1324 -0.3236 -0.2339
  129loPI   C1B 2061   3.858  12.617   8.876  0.4586  0.0530  0.1197
  129loPI   C2B 2062   3.995  12.680   8.382  0.0529  0.1265  0.3020
  129loPI   C3B 2063   4.281  12.596   7.969  0.0473  0.0887  0.2206
  129loPI   C4B 2064   4.269  12.502   7.602  0.0173 -0.1503 -0.0914
  130loPI    C1 2065   1.100  13.727  10.206  0.0437 -0.0107 -0.0684
  130loPI    C2 2066   1.047  13.397  10.426 -0.0760  0.0943  0.0624
  130loPI    C3 2067   1.323  13.667  10.532  0.0889 -0.0089 -0.0990
  130loPI   PO4 2068   0.796  13.856  10.097  0.2886  0.2907 -0.1691
  130loPI   GL1 2069   0.598  13.792   9.669  0.2087  0.2730 -0.0400
  130loPI   GL2 2070   0.778  13.961   9.618 -0.2728  0.3133  0.2555
  130loPI   C1A 2071   0.747  13.422   9.390 -0.0343  0.0549  0.1409
  130loPI   C2A 2072   0.607  13.005   9.277 -0.0330  0.0194  0.1748
  130loPI   C3A 2073   0.504  12.874   8.974  0.0894  0.2573  0.1486
  130loPI   C4A 2074   0.413  12.881   8.664 -0.1666 -0.0514  0.0479
  130loPI   C5A 2075   0.380  13.016   8.208 -0.0448  0.0302  0.0153
  130loPI   C6A 2076   0.689  13.181   7.858 -0.2171  0.1700 -0.0062
  130loPI   C1B 2077   0.981  13.799   9.209 -0.1888 -0.4631 -0.1472
  130loPI   C2B 2078   0.954  13.723   8.756 -0.1065 -0.0304  0.0828
  130loPI   C3B 2079   1.008  13.644   8.307  0.0001 -0.1886 -0.2554
  130loPI   C4B 2080   1.004  13.882   7.891 -0.1121 -0.0837 -0.1932
  131loPI    C1 2081   2.894   0.977  10.010 -0.0462 -0.1208 -0.1811
  131loPI    C2 2082   2.623   1.115  10.270  0.0193 -0.1404 -0.1017
  131loPI    C3 2083   2.949   1.332  10.187 -0.0014 -0.1342 -0.1680
  131loPI   PO4 2084   2.813   0.816   9.783  0.2706  0.1437 -0.1302
  131loPI   GL1 2085   2.673   1.080   9.469 -0.0239 -0.1795  0.0320
  131loPI   GL2 2086   2.317   1.261   9.432 -0.0411 -0.0622  0.2952
  131loPI   C1A 2087   2.566   0.872   9.078  0.2380 -0.2751 -0.2624
  131loPI   C2A 2088   2.380   0.674   8.748 -0.1048 -0.0310  0.2846
  131loPI   C3A 2089   2.281   0.618   8.294  0.0675  0.1791 -0.0209
  131loPI   C4A 2090   2.144   0.825   7.942  0.0530  0.1871 -0.0722
  131loPI   C5A 2091   1.992   0.552   7.564 -0.1515  0.1731 -0.1745
  131loPI   C6A 2092   2.087   0.282   7.281 -0.1539 -0.2849 -0.3275
  131loPI   C1B 2093   2.440   1.440   9.088  0.2884  0.0088  0.0735
  131loPI   C2B 2094   2.478   1.517   8.641 -0.0310 -0.2905 -0.2156
  131loPI   C3B 2095   2.430   1.763   8.248  0.0815 -0.3609 -0.0575
  131loPI   C4B 2096   2.643   2.018   7.989 -0.0901 -0.0441  0.2877
  132loPI    C1 2097  11.972   5.869   9.955 -0.0868 -0.0916 -0.2890
  132loPI    C2 2098  11.852   6.143   9.690 -0.1045  0.0916 -0.0945
  132loPI    C3 2099  11.865   6.233  10.079 -0.0203 -0.1554 -0.0377
  132loPI   PO4 2100  12.236   5.810   9.833  0.4947  0.0692  0.3601
  132loPI   GL1 2101  12.235   5.705   9.384 -0.2125  0.0470  0.3004
  132loPI   GL2 2102  12.465   5.633   9.402  0.2306 -0.0445 -0.0883
  132loPI   C1A 2103  11.943   5.834   9.023 -0.0539 -0.2407 -0.1653
  132loPI   C2A 2104  11.741   5.976   8.725 -0.0012  0.1815  0.1959
  132loPI   C3A 2105  11.814   6.094   8.258 -0.1190  0.1745 -0.0474
  132loPI   C4A 2106  11.604   6.010   7.922 -0.1290 -0.1117 -0.1228
  132loPI   C5A 2107  11.594   6.001   7.517  0.0538  0.0354  0.2925
  132loPI   C6A 2108  11.471   6.303   7.329 -0.0390 -0.0594 -0.1880
  132loPI   C1B 2109  12.404   5.544   8.931 -0.2887  0.3757  0.0396
  132loPI   C2B 2110  12.541   5.418   8.617  0.0980 -0.0619 -0.3589
  132loPI   C3B 2111  12.743   5.214   8.449 -0.3507  0.0290 -0.0213
  132loPI   C4B 2112  12.803   5.461   8.010 -0.1561 -0.1623  0.1113
  133loPI    C1 2113  13.416   1.794  10.073 -0.1446  0.0909  0.0150
  133loPI    C2 2114  13.381   1.556  10.392 -0.1381  0.0873  0.0130
  133loPI    C3 2115  13.720   1.758  10.331 -0.1373  0.0837  0.0053
  133loPI   PO4 2116  13.378   1.564   9.826  0.0794  0.1514 -0.0376
  133loPI   GL1 2117  13.574   1.560   9.411  0.0924 -0.0702  0.1801
  133loPI   GL2 2118  13.483   1.419   9.148 -0.0047  0.3060 -0.0789
  133loPI   C1A 2119  13.593   1.927   9.125 -0.1367  0.1172 -0.0515
  133loPI   C2A 2120  13.534   2.153   8.732 -0.1465 -0.1352  0.1789
  133loPI   C3A 2121  13.607   2.181   8.347  0.0509 -0.0657  0.1221
  133loPI   C4A 2122  13.795   2.126   7.924  0.0220  0.0412 -0.0758
  133loPI   C5A 2123  13.855   2.333   7.517 -0.0003  0.0556  0.0273
  133loPI   C6A 2124  14.185   2.445   7.167  0.2760 -0.0895 -0.0288
  133loPI   C1B 2125  13.523   1.642   8.763  0.2183 -0.0264  0.2793
  133loPI   C2B 2126  13.323   1.759   8.337 -0.0130 -0.6782 -0.2110
  133loPI   C3B 2127  12.956   1.588   8.136 -0.1508 -0.1783  0.0494
  133loPI   C4B 2128  12.820   1.618   7.687 -0.0122  0.1572 -0.3566
  134loPI    C1 2129   4.910  16.625  10.273  0.4159 -0.0278  0.1132
  134loPI    C2 2130   5.031  16.310  10.487 -0.0186 -0.1570  0.1779
  134loPI    C3 2131   4.668  16.466  10.549  0.0503  0.1275 -0.1102
  134loPI   PO4 2132   4.958  16.544  10.011  0.0452 -0.0374  0.2920
  134loPI   GL1 2133   4.985  16.677   9.554 -0.2795  0.0491 -0.2859
  134loPI   GL2 2134   4.678  16.733   9.493 -0.0014 -0.0741  0.0237
  134loPI   C1A 2135   5.119  16.823   9.152  0.0934  0.0200  0.1300
  134loPI   C2A 2136   5.138  16.672   8.766 -0.1804 -0.0293  0.1114
  134loPI   C3A 2137   5.174  16.488   8.411  0.0625 -0.1408  0.2758
  134loPI   C4A 2138   5.286  16.200   8.076  0.0978  0.1919  0.1502
  134loPI   C5A 2139   5.306  16.344   7.675  0.1923 -0.1223 -0.1914
  134loPI   C6A 2140   5.330  16.325   7.213  0.0315 -0.2735 -0.0272
  134loPI   C1B 2141   4.652  16.933   9.162 -0.0886  0.2422  0.3394
  134loPI   C2B 2142   4.706  17.051   8.796  0.2625 -0.0161 -0.1509
  134loPI   C3B 2143   4.832  17.039   8.381  0.1543  0.0098  0.0278
  134loPI   C4B 2144   4.660  17.017   7.996 -0.1509 -0.0663 -0.2576
  135loPI    C1 2145   5.872  10.876   9.860 -0.2643 -0.0360 -0.0985
  135loPI    C2 2146   6.095  10.561   9.967  0.1563  0.2527 -0.1016
  135loPI    C3 2147   5.784  10.671  10.192  0.1353 -0.0346  0.0141
  135loPI   PO4 2148   6.103  11.024   9.755  0.1561  0.2552 -0.0210
  135loPI   GL1 2149   6.223  10.995   9.396 -0.1645 -0.0610  0.1541
  135loPI   GL2 2150   5.974  11.084   9.123 -0.2979 -0.1522  0.0238
  135loPI   C1A 2151   6.511  10.970   9.003 -0.0741 -0.1243  0.2203
  135loPI   C2A 2152   6.735  10.868   8.536 -0.0018 -0.0983  0.1185
  135loPI   C3A 2153   6.597  10.965   8.120 -0.0776 -0.1434  0.0925
  135loPI   C4A 2154   6.250  10.736   7.970  0.1017  0.4363  0.0363
  135loPI   C5A 2155   6.339  10.399   7.781  0.0173  0.3138  0.0403
  135loPI   C6A 2156   6.395  10.038   7.653 -0.0380 -0.1445 -0.1516
  135loPI   C1B 2157   6.087  11.261   8.688 -0.1917 -0.4110  0.0815
  135loPI   C2B 2158   6.188  11.294   8.217  0.0117  0.0104  0.1263
  135loPI   C3B 2159   6.392  11.328   7.842 -0.0666  0.1282  0.0770
  135loPI   C4B 2160   6.480  11.449   7.411  0.1690 -0.1614 -0.1147
  136loPI    C1 2161  13.708   4.787  10.221  0.0478  0.2404 -0.0915
  136loPI    C2 2162  13.537   5.147  10.194 -0.0749  0.2126  0.2578
  136loPI    C3 2163  13.519   4.943  10.537 -0.1771 -0.2134  0.0067
  136loPI   PO4 2164  13.808   4.789   9.884 -0.0648  0.1626  0.1639
  136loPI   GL1 2165  13.710   4.762   9.430  0.2165 -0.0620 -0.1157
  136loPI   GL2 2166  13.643   4.471   9.480  0.0756 -0.1865 -0.2892
  136loPI   C1A 2167  13.846   4.853   9.071 -0.0869  0.3449 -0.0879
  136loPI   C2A 2168  13.638   5.118   8.721 -0.2389  0.0622  0.1799
  136loPI   C3A 2169  13.433   5.268   8.551  0.3843  0.1204  0.0173
  136loPI   C4A 2170  13.250   5.435   8.238 -0.0499 -0.1835 -0.1415
  136loPI   C5A 2171  13.225   5.709   7.817  0.2246 -0.2275 -0.0895
  136loPI   C6A 2172  13.458   6.013   7.665  0.1024 -0.0554 -0.0040
  136loPI   C1B 2173  13.511   4.443   9.090 -0.1112  0.1269  0.0917
  136loPI   C2B 2174  13.545   4.630   8.673 -0.0940 -0.0838 -0.0955
  136loPI   C3B 2175  13.558   4.855   8.272  0.1424  0.0484  0.0245
  136loPI   C4B 2176  13.758   4.953   8.049 -0.3590 -0.1832  0.0789
  137loPI    C1 2177  11.251  16.058   9.806  0.3239  0.0566  0.0413
  137loPI    C2 2178  11.285  15.815  10.122 -0.1372  0.1413  0.1634
  137loPI    C3 2179  11.201  16.202  10.175 -0.0269  0.1971 -0.0563
  137loPI   PO4 2180  11.376  15.942   9.626 -0.1990 -0.1130  0.1300
  137loPI   GL1 2181  11.384  15.731   9.298  0.2574 -0.2531 -0.1233
  137loPI   GL2 2182  11.156  15.568   9.159  0.1631  0.3167 -0.2375
  137loPI   C1A 2183  11.240  16.044   8.875  0.1838 -0.0857 -0.1407
  137loPI   C2A 2184  11.282  15.953   8.437  0.0713 -0.2489 -0.0619
  137loPI   C3A 2185  11.426  15.947   8.039  0.1904  0.0180 -0.0395
  137loPI   C4A 2186  11.391  15.981   7.648 -0.1540  0.0699 -0.0829
  137loPI   C5A 2187  11.364  16.303   7.348  0.0780  0.1008  0.1160
  137loPI   C6A 2188  11.500  16.216   6.968 -0.2562 -0.2607  0.1865
  137loPI   C1B 2189  11.313  15.540   8.699  0.1032 -0.1244  0.0004
  137loPI   C2B 2190  11.204  15.411   8.278  0.2311  0.1678  0.1223
  137loPI   C3B 2191  11.277  15.495   7.826 -0.0292 -0.0331  0.1530
  137loPI   C4B 2192  11.540  15.494   7.488  0.4414 -0.2105  0.4930
  138loPI    C1 2193   0.060   5.975  10.613 -0.0969 -0.1411 -0.2555
  138loPI    C2 2194   0.403   5.800  10.722 -0.1373 -0.0805 -0.0259
  138loPI    C3 2195   0.055   5.671  10.872 -0.1714  0.1638  0.1091
  138loPI   PO4 2196   0.017   5.988  10.364  0.0740  0.0304  0.1481
  138loPI   GL1 2197   0.229   6.089  10.016  0.2083  0.3535 -0.2995
  138loPI   GL2 2198   0.303   5.749   9.997  0.0454  0.0296 -0.0280
  138loPI   C1A 2199   0.165   6.111   9.568  0.0790 -0.0656 -0.0353
  138loPI   C2A 2200   0.466   6.210   9.333  0.3524 -0.1462  0.0668
  138loPI   C3A 2201   0.635   6.151   8.854  0.2446  0.0205  0.0683
  138loPI   C4A 2202   0.570   6.035   8.418 -0.1899 -0.1529 -0.2084
  138loPI   C5A 2203   0.590   6.089   7.991  0.0820 -0.2120  0.1420
  138loPI   C6A 2204   0.513   6.021   7.626  0.0087  0.0705 -0.0275
  138loPI   C1B 2205   0.548   5.640   9.631  0.1304  0.0268  0.1505
  138loPI   C2B 2206   0.922   5.453   9.579 -0.0391  0.1608 -0.1217
  138loPI   C3B 2207   1.169   5.566   9.493  0.1538  0.2513  0.0807
  138loPI   C4B 2208   1.430   5.593   9.442 -0.1577  0.1403 -0.1425
  139loPI    C1 2209   5.066   5.156  10.172  0.3021  0.0687 -0.2046
  139loPI    C2 2210   5.351   5.365  10.360  0.0413  0.1236  0.1404
  139loPI    C3 2211   5.237   5.009  10.502 -0.1115  0.1338  0.0458
  139loPI   PO4 2212   4.946   5.419   9.988 -0.0109 -0.0439 -0.1041
  139loPI   GL1 2213   5.111   5.589   9.500  0.0275  0.2406 -0.2236
  139loPI   GL2 2214   5.439   5.664   9.400 -0.3079  0.1411  0.3771
  139loPI   C1A 2215   4.860   5.727   9.177  0.0629 -0.1859  0.1710
  139loPI   C2A 2216   4.532   6.043   8.790  0.0272  0.1306 -0.1225
  139loPI   C3A 2217   4.444   6.323   8.576  0.0004 -0.0840 -0.1116
  139loPI   C4A 2218   4.673   6.654   8.262  0.1153  0.1101  0.2997
  139loPI   C5A 2219   4.802   6.679   7.801 -0.1129  0.1617 -0.1416
  139loPI   C6A 2220   4.968   6.634   7.425 -0.1959 -0.5427  0.0631
  139loPI   C1B 2221   5.346   5.850   8.993  0.1367  0.0867 -0.1868
  139loPI   C2B 2222   5.261   6.065   8.576 -0.2940 -0.1341 -0.0705
  139loPI   C3B 2223   5.498   6.183   8.266  0.1708 -0.0248 -0.0586
  139loPI   C4B 2224   5.968   6.097   8.212 -0.0261  0.1785  0.0033
  140loPI    C1 2225   8.122  18.892  10.196 -0.0184  0.0646  0.0235
  140loPI    C2 2226   8.020  18.699  10.531  0.1347  0.1032  0.0933
  140loPI    C3 2227   8.365  18.615  10.349  0.0561  0.0886 -0.0507
  140loPI   PO4 2228   7.827  18.960   9.955 -0.1406 -0.0918  0.3618
  140loPI   GL1 2229   7.750  18.939   9.454  0.2065  0.0538  0.2437
  140loPI   GL2 2230   7.500  19.243   9.542  0.0962 -0.0781  0.0282
  140loPI   C1A 2231   7.773  18.646   9.038  0.3310 -0.2529  0.0214
  140loPI   C2A 2232   7.737  18.595   8.577 -0.2500  0.0053  0.0366
  140loPI   C3A 2233   7.719  18.759   8.118  0.2031  0.1320  0.0049
  140loPI   C4A 2234   7.384  19.093   7.883  0.0520  0.2109  0.1310
  140loPI   C5A 2235   7.226  19.515   8.003  0.0975 -0.0610  0.1654
  140loPI   C6A 2236   7.108  19.954   8.057 -0.0422  0.0216  0.0824
  140loPI   C1B 2237   7.552  19.099   9.042  0.0005  0.0985 -0.0055
  140loPI   C2B 2238   7.860  19.063   8.659 -0.0154 -0.1644  0.0512
  140loPI   C3B 2239   7.873  19.213   8.199 -0.1335  0.1038 -0.0921
  140loPI   C4B 2240   7.798  19.262   7.833  0.0175  0.0177  0.0214
  141loPI    C1 2241  13.357   2.843   9.956 -0.2475  0.1703 -0.3331
  141loPI    C2 2242  13.632   2.610   9.783 -0.1742  0.0299 -0.0331
  141loPI    C3 2243  13.243   2.530   9.734 -0.1486 -0.2085  0.1355
  141loPI   PO4 2244  13.382   3.077   9.799 -0.4112  0.1823  0.0630
  141loPI   GL1 2245  13.465   2.911   9.489  0.1340  0.1860  0.5062
  141loPI   GL2 2246  13.428   3.223   9.259  0.2180  0.3310  0.0445
  141loPI   C1A 2247  13.534   2.733   9.110  0.1963 -0.1353 -0.0880
  141loPI   C2A 2248  13.548   2.916   8.760  0.0794  0.2041 -0.2245
  141loPI   C3A 2249  13.797   3.214   8.507  0.0496  0.0553 -0.0984
  141loPI   C4A 2250  14.166   3.157   8.165  0.1801 -0.2938  0.1589
  141loPI   C5A 2251  14.613   3.298   8.139  0.2417  0.0766  0.0085
  141loPI   C6A 2252  14.878   3.624   7.968 -0.0034 -0.2503  0.4429
  141loPI   C1B 2253  13.435   3.499   8.746 -0.0641  0.2224 -0.0165
  141loPI   C2B 2254  13.385   3.501   8.279  0.1256 -0.0742 -0.0121
  141loPI   C3B 2255  13.608   3.403   8.011  0.0272 -0.2279 -0.3225
  141loPI   C4B 2256  14.028   3.603   7.830  0.1418  0.2149  0.1396
  142loPI    C1 2257   1.793  13.513  10.042  0.2124  0.1424 -0.0489
  142loPI    C2 2258   1.665  13.361  10.390  0.0018  0.0307 -0.1729
  142loPI    C3 2259   1.972  13.190  10.197  0.0532  0.0318 -0.0925
  142loPI   PO4 2260   1.560  13.677   9.923 -0.0179  0.1900 -0.2554
  142loPI   GL1 2261   1.500  13.862   9.543 -0.1705  0.1248 -0.1444
  142loPI   GL2 2262   1.628  14.047   9.629  0.0252 -0.0200 -0.1198
  142loPI   C1A 2263   1.444  13.594   9.201 -0.0424 -0.0226 -0.0444
  142loPI   C2A 2264   1.408  13.684   8.801  0.0805 -0.3022 -0.3870
  142loPI   C3A 2265   1.544  13.690   8.379  0.2701  0.0041  0.1871
  142loPI   C4A 2266   1.605  13.784   7.949 -0.1236 -0.0623 -0.3701
  142loPI   C5A 2267   1.673  13.455   7.703  0.0158  0.0458 -0.1201
  142loPI   C6A 2268   1.874  13.399   7.365  0.0343 -0.1784 -0.2668
  142loPI   C1B 2269   1.799  14.047   9.184 -0.0918  0.0372 -0.4951
  142loPI   C2B 2270   1.911  13.809   8.917 -0.3582  0.2435 -0.1575
  142loPI   C3B 2271   2.025  13.689   8.566 -0.0901 -0.0292 -0.0076
  142loPI   C4B 2272   2.066  13.581   8.165  0.2272  0.0900  0.0270
  143loPI    C1 2273  17.455   9.231   9.994  0.1782  0.2394 -0.0198
  143loPI    C2 2274  17.338   9.004  10.302  0.3581 -0.0887 -0.1878
  143loPI    C3 2275  17.667   9.230  10.333  0.0577  0.3295  0.0568
  143loPI   PO4 2276  17.557   9.036   9.715  0.1529  0.0886  0.0956
  143loPI   GL1 2277  17.734   8.984   9.371  0.2059  0.0912 -0.1205
  143loPI   GL2 2278  17.851   8.795   9.187 -0.1216 -0.2250  0.3790
  143loPI   C1A 2279  17.485   9.097   8.963  0.1066 -0.0417 -0.1978
  143loPI   C2A 2280  17.227   9.065   8.567  0.2361  0.0438 -0.3195
  143loPI   C3A 2281  17.334   9.173   8.278  0.0918  0.0242  0.1780
  143loPI   C4A 2282  17.404   9.368   7.919 -0.2694 -0.1953  0.2931
  143loPI   C5A 2283  17.559   9.435   7.535  0.2306 -0.0688 -0.2192
  143loPI   C6A 2284  17.413   9.835   7.383  0.0981  0.2180 -0.0716
  143loPI   C1B 2285  17.943   8.923   8.749  0.1159  0.1403  0.0013
  143loPI   C2B 2286  17.981   9.020   8.330  0.0604 -0.1912 -0.0437
  143loPI   C3B 2287  17.787   9.013   8.045  0.2076 -0.1242  0.3348
  143loPI   C4B 2288  17.568   8.964   7.686 -0.0078 -0.1402  0.2919
  144loPI    C1 2289  15.871  10.009  10.422  0.0537  0.0405  0.1782
  144loPI    C2 2290  16.139   9.758  10.581  0.0975  0.0159  0.0663
  144loPI    C3 2291  15.812   9.859  10.788  0.0459 -0.1868  0.0855
  144loPI   PO4 2292  15.680   9.966  10.181 -0.3844 -0.3068  0.1892
  144loPI   GL1 2293  15.689   9.925   9.705  0.0271  0.3064 -0.0840
  144loPI   GL2 2294  15.999   9.856   9.715  0.0233 -0.0883  0.1382
  144loPI   C1A 2295  15.553   9.909   9.331  0.0741 -0.0768 -0.1699
  144loPI   C2A 2296  15.624  10.012   8.943  0.0616  0.1087 -0.1044
  144loPI   C3A 2297  15.555  10.156   8.442  0.0729 -0.3039  0.1486
  144loPI   C4A 2298  15.475  10.060   8.020  0.1307 -0.0746  0.1588
  144loPI   C5A 2299  15.327   9.939   7.570 -0.0641  0.0744 -0.0127
  144loPI   C6A 2300  15.095  10.012   7.185 -0.0817 -0.4168 -0.3442
  144loPI   C1B 2301  16.064   9.904   9.285  0.0712  0.0177 -0.0051
  144loPI   C2B 2302  16.068   9.855   8.908  0.0072  0.1670  0.1862
  144loPI   C3B 2303  16.256   9.970   8.587  0.0713 -0.1149 -0.0016
  144loPI   C4B 2304  16.540   9.737   8.354 -0.1979  0.3024  0.1226
  145loPI    C1 2305  17.787   3.349   9.996 -0.1501  0.0274  0.0594
  145loPI    C2 2306  18.179   3.386  10.065 -0.1055 -0.0501 -0.1476
  145loPI    C3 2307  17.917   3.598  10.280  0.0622  0.1960 -0.1818
  145loPI   PO4 2308  17.708   3.417   9.791  0.0240  0.0119  0.0804
  145loPI   GL1 2309  17.691   3.378   9.402 -0.0046  0.3778  0.0252
  145loPI   GL2 2310  17.851   3.644   9.304 -0.1691  0.1019 -0.4317
  145loPI   C1A 2311  17.820   3.159   9.014 -0.1542  0.4256 -0.2781
  145loPI   C2A 2312  17.672   3.054   8.553  0.1450  0.2957  0.0085
  145loPI   C3A 2313  17.773   3.067   8.128 -0.0364  0.1831 -0.1594
  145loPI   C4A 2314  17.951   3.139   7.743 -0.2317  0.0935 -0.1102
  145loPI   C5A 2315  18.184   2.936   7.423 -0.0318 -0.1303 -0.1526
  145loPI   C6A 2316  18.588   2.813   7.214 -0.2791 -0.1720 -0.0078
  145loPI   C1B 2317  17.667   3.735   8.913  0.0797 -0.0758  0.2105
  145loPI   C2B 2318  17.678   4.019   8.591 -0.1810 -0.0013 -0.1520
  145loPI   C3B 2319  17.879   4.376   8.473  0.0700 -0.0596 -0.3358
  145loPI   C4B 2320  17.813   4.757   8.355 -0.0384 -0.2190 -0.3671
  146loPI    C1 2321   5.998   6.454  10.289 -0.1317 -0.0381  0.0330
  146loPI    C2 2322   6.090   6.066  10.256 -0.0928 -0.0413  0.1726
  146loPI    C3 2323   6.236   6.281  10.560  0.0294  0.1256 -0.0020
  146loPI   PO4 2324   6.015   6.616  10.049  0.0308 -0.4873 -0.1122
  146loPI   GL1 2325   5.874   6.813   9.547 -0.1015  0.0570  0.0265
  146loPI   GL2 2326   5.661   7.032   9.484  0.0302 -0.5039  0.2133
  146loPI   C1A 2327   5.908   6.660   9.168 -0.0297 -0.1421  0.2885
  146loPI   C2A 2328   5.924   6.738   8.740 -0.0959 -0.0759 -0.1559
  146loPI   C3A 2329   5.958   6.561   8.381 -0.2626 -0.2271 -0.1571
  146loPI   C4A 2330   5.768   6.472   7.941  0.0713 -0.1660 -0.0056
  146loPI   C5A 2331   6.013   6.651   7.673 -0.3390  0.0064 -0.0161
  146loPI   C6A 2332   6.293   6.759   7.392 -0.1060 -0.2095 -0.2149
  146loPI   C1B 2333   5.987   7.204   9.245 -0.0604 -0.0303 -0.2970
  146loPI   C2B 2334   6.049   7.256   8.896  0.0100  0.4484  0.0528
  146loPI   C3B 2335   6.060   7.286   8.578  0.0741 -0.1952 -0.0880
  146loPI   C4B 2336   6.167   7.464   8.153 -0.3216  0.0401  0.0303
  147loPI    C1 2337  18.815  13.603  10.162  0.2131 -0.0212  0.0463
  147loPI    C2 2338  18.730  13.968  10.300  0.0805 -0.0817  0.1264
  147loPI    C3 2339  18.792  13.667  10.556 -0.0220 -0.1620  0.0572
  147loPI   PO4 2340  18.792  13.723   9.878 -0.0481 -0.0458  0.0226
  147loPI   GL1 2341  18.676  13.969   9.577 -0.0100 -0.0708 -0.4117
  147loPI   GL2 2342  18.454  13.785   9.453 -0.0953 -0.0919 -0.0318
  147loPI   C1A 2343  18.893  14.370   9.333 -0.0076 -0.1127  0.0677
  147loPI   C2A 2344  18.942  14.668   9.024  0.0724  0.2147 -0.0113
  147loPI   C3A 2345  19.031  14.830   8.547 -0.0258 -0.0727  0.1522
  147loPI   C4A 2346  19.184  15.084   8.259  0.0245  0.0182 -0.0796
  147loPI   C5A 2347  19.301  15.398   7.832 -0.0398  0.2194  0.0602
  147loPI   C6A 2348  19.402  15.455   7.397 -0.0436  0.0783 -0.0816
  147loPI   C1B 2349  18.474  13.709   9.033 -0.0587  0.0105 -0.0173
  147loPI   C2B 2350  18.640  13.986   8.675 -0.0250  0.0703 -0.0934
  147loPI   C3B 2351  18.869  13.970   8.317 -0.0491 -0.0134  0.1293
  147loPI   C4B 2352  18.946  14.145   7.878 -0.0101  0.0900  0.0165
  148loPI    C1 2353   3.828  11.358  10.374 -0.1882 -0.1358 -0.1858
  148loPI    C2 2354   3.582  11.662  10.458 -0.1096 -0.1480  0.1002
  148loPI    C3 2355   3.546  11.316  10.655  0.0320 -0.2045  0.0279
  148loPI   PO4 2356   3.829  11.353  10.115  0.0304 -0.3038 -0.0550
  148loPI   GL1 2357   3.797  11.389   9.647 -0.1994 -0.3394  0.1127
  148loPI   GL2 2358   3.673  11.049   9.640 -0.1895  0.1953 -0.3388
  148loPI   C1A 2359   3.911  11.310   9.199 -0.1483 -0.1338 -0.1751
  148loPI   C2A 2360   3.927  11.201   8.730  0.0212 -0.1400  0.4724
  148loPI   C3A 2361   3.895  11.337   8.249 -0.1691  0.0225 -0.3779
  148loPI   C4A 2362   3.910  11.212   7.826  0.1025 -0.0283 -0.3628
  148loPI   C5A 2363   4.031  11.413   7.551 -0.2938  0.3185 -0.0287
  148loPI   C6A 2364   4.447  11.526   7.579  0.0633  0.4545 -0.0247
  148loPI   C1B 2365   3.548  10.892   9.317  0.2202  0.0901  0.0972
  148loPI   C2B 2366   3.488  10.868   8.909  0.0617 -0.1484 -0.0794
  148loPI   C3B 2367   3.576  10.937   8.447 -0.0567  0.1324  0.1090
  148loPI   C4B 2368   3.556  11.030   8.115  0.1627 -0.3220 -0.3524
  149loPI    C1 2369   2.874   2.943  10.103  0.0768  0.0724  0.1123
  149loPI    C2 2370   2.485   3.035  10.113  0.0878  0.1557 -0.1655
  149loPI    C3 2371   2.669   2.912  10.445 -0.1971  0.0248 -0.0527
  149loPI   PO4 2372   2.985   3.224   9.899 -0.1244  0.1944  0.0684
  149loPI   GL1 2373   3.408   3.234   9.643  0.0512  0.3614 -0.1739
  149loPI   GL2 2374   3.217   2.857   9.652  0.0433 -0.0087 -0.0346
  149loPI   C1A 2375   3.600   3.311   9.188 -0.0079  0.2813  0.0776
  149loPI   C2A 2376   3.660   3.304   8.745  0.2014  0.1449 -0.3995
  149loPI   C3A 2377   3.416   3.285   8.393 -0.0453  0.1089  0.0304
  149loPI   C4A 2378   3.114   3.529   8.174 -0.2746  0.0861  0.0468
  149loPI   C5A 2379   2.910   3.799   7.960  0.1770  0.1905  0.1022
  149loPI   C6A 2380   2.690   4.050   7.679 -0.2115  0.1018 -0.2632
  149loPI   C1B 2381   3.113   2.982   9.233  0.1308 -0.0240  0.1238
  149loPI   C2B 2382   3.202   2.847   8.727  0.2339  0.3975  0.0994
  149loPI   C3B 2383   3.337   2.599   8.301 -0.0081 -0.0897 -0.1469
  149loPI   C4B 2384   3.158   2.545   7.872 -0.2682 -0.1955 -0.1692
  150loPI    C1 2385   8.617  18.384   9.968 -0.0718 -0.2901 -0.1005
  150loPI    C2 2386   8.983  18.242  10.049  0.0061 -0.1171 -0.1437
  150loPI    C3 2387   8.860  18.586  10.213 -0.1874 -0.2397 -0.0266
  150loPI   PO4 2388   8.598  18.367   9.732 -0.1721  0.1235 -0.1648
  150loPI   GL1 2389   8.631  18.662   9.500 -0.1600 -0.0584 -0.0661
  150loPI   GL2 2390   8.495  18.906   9.356 -0.0082 -0.0500  0.1934
  150loPI   C1A 2391   8.983  18.416   9.090 -0.1944 -0.2907  0.0239
  150loPI   C2A 2392   8.991  18.239   8.702  0.1467 -0.0371  0.3812
  150loPI   C3A 2393   8.814  18.103   8.309 -0.1632 -0.2945 -0.2779
  150loPI   C4A 2394   9.067  18.050   7.945  0.2606  0.2031 -0.0071
  150loPI   C5A 2395   9.412  17.976   7.677 -0.1284  0.0781  0.1674
  150loPI   C6A 2396   9.819  17.813   7.628  0.2588  0.0876  0.0936
  150loPI   C1B 2397   8.738  18.795   8.884  0.1701 -0.1151 -0.3142
  150loPI   C2B 2398   8.915  19.063   8.472  0.1799  0.2148 -0.1814
  150loPI   C3B 2399   8.957  19.080   8.010 -0.1188 -0.1327 -0.4061
  150loPI   C4B 2400   9.143  18.893   7.675  0.0338 -0.2155  0.0077
  151loPI    C1 2401   7.267  16.119   9.925 -0.1375  0.0081 -0.0706
  151loPI    C2 2402   7.044  15.892  10.169  0.1487 -0.3363 -0.1204
  151loPI    C3 2403   7.433  15.813  10.122  0.2059  0.0333 -0.3132
  151loPI   PO4 2404   7.060  16.202   9.720 -0.2030  0.0885  0.1332
  151loPI   GL1 2405   6.905  16.113   9.276  0.1359 -0.2096 -0.1207
  151loPI   GL2 2406   6.980  16.418   9.238 -0.0578 -0.1480 -0.0705
  151loPI   C1A 2407   7.133  16.037   8.907 -0.1746 -0.0684  0.3985
  151loPI   C2A 2408   7.168  16.147   8.485 -0.0035 -0.0312 -0.1073
  151loPI   C3A 2409   7.414  16.065   7.997 -0.1476  0.0904  0.2921
  151loPI   C4A 2410   7.482  15.731   7.745  0.0280  0.3100  0.3842
  151loPI   C5A 2411   7.483  15.310   7.492 -0.0067  0.0929  0.1232
  151loPI   C6A 2412   7.605  14.948   7.154 -0.0927  0.3135  0.2156
  151loPI   C1B 2413   7.023  16.627   8.797  0.0301  0.2825 -0.2384
  151loPI   C2B 2414   7.053  16.641   8.315  0.3012  0.0867  0.3531
  151loPI   C3B 2415   7.171  16.475   7.888  0.0166  0.0878 -0.1042
  151loPI   C4B 2416   7.210  16.156   7.514 -0.3401  0.0333 -0.0340
  152loPI    C1 2417  16.596  10.875  10.512 -0.1487  0.1067 -0.1117
  152loPI    C2 2418  16.820  11.174  10.657 -0.1162  0.1106 -0.1696
  152loPI    C3 2419  16.780  10.835  10.866  0.0500  0.0599 -0.2187
  152loPI   PO4 2420  16.669  10.925  10.187 -0.1685 -0.0070  0.0438
  152loPI   GL1 2421  16.861  10.904   9.760 -0.0966 -0.4254  0.0518
  152loPI   GL2 2422  16.735  11.173   9.732  0.0717  0.0575  0.0769
  152loPI   C1A 2423  16.805  10.552   9.430  0.0931  0.1035 -0.1582
  152loPI   C2A 2424  16.893  10.501   8.975 -0.7973  0.1715  0.0001
  152loPI   C3A 2425  17.040  10.604   8.555  0.0402  0.2509 -0.1315
  152loPI   C4A 2426  17.308  10.383   8.256  0.0559  0.1478 -0.3279
  152loPI   C5A 2427  17.386  10.486   7.771  0.0710  0.1679 -0.1351
  152loPI   C6A 2428  17.718  10.315   7.490  0.3674  0.1875 -0.0562
  152loPI   C1B 2429  16.515  11.084   9.272 -0.1512  0.2689  0.1430
  152loPI   C2B 2430  16.313  11.227   8.903  0.0488 -0.1438  0.1509
  152loPI   C3B 2431  16.214  11.281   8.539  0.1465 -0.0416  0.4613
  152loPI   C4B 2432  16.063  11.340   8.082  0.1942  0.1039 -0.0588
  153loPI    C1 2433   5.884   9.684  10.413  0.1011  0.0526  0.2230
  153loPI    C2 2434   5.952   9.299  10.497 -0.0972 -0.0144  0.0846
  153loPI    C3 2435   6.113   9.585  10.726 -0.1323 -0.1824  0.3234
  153loPI   PO4 2436   5.824   9.718  10.119  0.0327 -0.2164 -0.1506
  153loPI   GL1 2437   5.839   9.780   9.678  0.2987  0.0001 -0.2277
  153loPI   GL2 2438   5.835   9.534   9.552 -0.1247 -0.0511 -0.1594
  153loPI   C1A 2439   5.597   9.940   9.322 -0.3222 -0.0802 -0.0747
  153loPI   C2A 2440   5.311   9.924   8.946  0.0024  0.1998 -0.0937
  153loPI   C3A 2441   5.179  10.113   8.576  0.0784 -0.0987  0.0815
  153loPI   C4A 2442   5.428  10.331   8.090  0.2142 -0.1782  0.1146
  153loPI   C5A 2443   5.340  10.202   7.730  0.0936  0.1318  0.0987
  153loPI   C6A 2444   5.551  10.290   7.254  0.1332 -0.0242 -0.1712
  153loPI   C1B 2445   5.876   9.570   9.196  0.1289  0.1814 -0.2730
  153loPI   C2B 2446   5.757   9.824   8.813 -0.2693  0.1378 -0.0972
  153loPI   C3B 2447   5.696   9.863   8.424  0.4404 -0.2954 -0.0398
  153loPI   C4B 2448   5.499   9.807   8.089  0.0419  0.0705  0.1944
  154loPI    C1 2449  10.763  16.918   9.430  0.1061  0.1334  0.0771
  154loPI    C2 2450  10.636  16.745   9.767  0.0997 -0.0268 -0.0067
  154loPI    C3 2451  10.563  17.132   9.702 -0.2000 -0.0763  0.0223
  154loPI   PO4 2452  11.028  16.918   9.433  0.1137  0.2057 -0.1525
  154loPI   GL1 2453  11.218  17.276   9.265 -0.2734 -0.0314 -0.0111
  154loPI   GL2 2454  10.903  17.282   9.033  0.1312  0.1917 -0.2043
  154loPI   C1A 2455  11.333  17.207   8.774 -0.0964  0.1403  0.0218
  154loPI   C2A 2456  11.244  17.199   8.418  0.0329 -0.1338  0.1500
  154loPI   C3A 2457  11.306  17.116   8.022 -0.1439 -0.1594 -0.2111
  154loPI   C4A 2458  11.235  17.293   7.688  0.3684 -0.0326  0.0539
  154loPI   C5A 2459  11.216  17.233   7.316 -0.1343 -0.3846 -0.0112
  154loPI   C6A 2460  10.889  16.995   7.065  0.1634 -0.2318 -0.1839
  154loPI   C1B 2461  10.671  17.478   8.761 -0.2495 -0.4513  0.0280
  154loPI   C2B 2462  10.722  17.591   8.433  0.0047 -0.2991  0.0225
  154loPI   C3B 2463  10.708  17.539   7.979  0.0088  0.1877 -0.0567
  154loPI   C4B 2464  10.953  17.657   7.561  0.0860  0.1109 -0.1898
  155loPI    C1 2465   5.441   7.959   9.582  0.4507 -0.0923  0.4447
  155loPI    C2 2466   5.224   8.223   9.791  0.0343  0.0528 -0.1451
  155loPI    C3 2467   5.330   7.875   9.957 -0.2385  0.1826  0.3177
  155loPI   PO4 2468   5.646   8.056   9.484 -0.1074  0.0481  0.0110
  155loPI   GL1 2469   5.751   8.419   9.278  0.0763  0.4455  0.0141
  155loPI   GL2 2470   5.994   8.602   9.361  0.0146 -0.0251 -0.0762
  155loPI   C1A 2471   5.746   8.583   8.869 -0.0056  0.2563 -0.0878
  155loPI   C2A 2472   5.647   8.525   8.435 -0.3052 -0.1376  0.1022
  155loPI   C3A 2473   5.358   8.533   8.079  0.0211  0.3077  0.3534
  155loPI   C4A 2474   5.154   8.387   7.695 -0.0119  0.1272 -0.1878
  155loPI   C5A 2475   5.326   8.154   7.388 -0.0350  0.1893  0.2654
  155loPI   C6A 2476   5.698   8.163   7.222 -0.0310 -0.0605 -0.2215
  155loPI   C1B 2477   6.201   8.765   9.010 -0.2258  0.0161  0.0872
  155loPI   C2B 2478   6.090   8.882   8.663  0.0807  0.1960  0.0868
  155loPI   C3B 2479   5.937   8.890   8.260  0.0111 -0.0200 -0.0619
  155loPI   C4B 2480   5.976   9.031   7.826 -0.0377 -0.2014 -0.0983
  156loPI    C1 2481  13.537  10.639  10.523  0.2879 -0.0877 -0.2090
  156loPI    C2 2482  13.525  10.984  10.725  0.0475 -0.0668 -0.2562
  156loPI    C3 2483  13.264  10.693  10.810  0.3058 -0.2731 -0.1556
  156loPI   PO4 2484  13.617  10.637  10.258  0.0133 -0.1489  0.2632
  156loPI   GL1 2485  13.797  10.378   9.892 -0.2816  0.2259 -0.0450
  156loPI   GL2 2486  14.140  10.217   9.954 -0.0242  0.0186 -0.0388
  156loPI   C1A 2487  13.678  10.534   9.494  0.1845  0.1509 -0.2241
  156loPI   C2A 2488  13.240  10.849   9.295 -0.2055 -0.1906  0.2302
  156loPI   C3A 2489  13.122  10.962   8.913 -0.2403  0.2992  0.2244
  156loPI   C4A 2490  13.162  11.057   8.422  0.1052  0.0135 -0.2205
  156loPI   C5A 2491  13.156  11.165   8.004  0.0123  0.0606 -0.0777
  156loPI   C6A 2492  12.911  11.370   7.637  0.2323 -0.0780  0.3865
  156loPI   C1B 2493  14.133  10.313   9.562  0.0150  0.3415  0.3040
  156loPI   C2B 2494  14.401  10.440   9.175  0.1299 -0.1909 -0.0702
  156loPI   C3B 2495  14.611  10.340   8.833 -0.0446 -0.0146  0.0688
  156loPI   C4B 2496  14.591  10.394   8.383 -0.5211  0.0351 -0.0247
  157loPI    C1 2497   4.753   3.407   9.889  0.3347 -0.0200 -0.1214
  157loPI    C2 2498   4.987   3.157  10.096  0.1618 -0.2660 -0.2186
  157loPI    C3 2499   4.684   3.013   9.878 -0.2091  0.0613  0.0663
  157loPI   PO4 2500   4.860   3.524   9.758 -0.3182 -0.0586 -0.2672
  157loPI   GL1 2501   4.913   3.929   9.400 -0.1035  0.2575 -0.2284
  157loPI   GL2 2502   4.623   3.742   9.336 -0.1815  0.0266  0.0756
  157loPI   C1A 2503   4.885   4.124   8.997  0.0989 -0.0219 -0.1530
  157loPI   C2A 2504   4.876   3.968   8.540  0.1337 -0.0971 -0.2454
  157loPI   C3A 2505   5.057   3.754   8.110 -0.2852  0.3447  0.0945
  157loPI   C4A 2506   5.193   3.535   7.768 -0.0587  0.1609 -0.0836
  157loPI   C5A 2507   5.421   3.539   7.428 -0.2047 -0.1894 -0.1999
  157loPI   C6A 2508   5.670   3.897   7.298  0.1210 -0.1228  0.0353
  157loPI   C1B 2509   4.606   3.610   8.857  0.0568 -0.0442 -0.0464
  157loPI   C2B 2510   4.561   3.601   8.436 -0.0205 -0.0782  0.3774
  157loPI   C3B 2511   4.804   3.308   8.035 -0.0957  0.0476  0.2712
  157loPI   C4B 2512   4.741   3.203   7.662 -0.0155  0.0907  0.3598
  158loPI    C1 2513  15.726   9.130  10.324 -0.0298 -0.0508  0.0873
  158loPI    C2 2514  15.953   9.166  10.651  0.1965 -0.1489 -0.0566
  158loPI    C3 2515  15.697   9.457  10.553  0.2172 -0.0632  0.1387
  158loPI   PO4 2516  15.866   9.105  10.097 -0.2437  0.2070 -0.0200
  158loPI   GL1 2517  15.800   9.234   9.713 -0.0764 -0.2119  0.0156
  158loPI   GL2 2518  16.173   9.318   9.619  0.0423 -0.2782  0.1269
  158loPI   C1A 2519  15.749   9.372   9.227 -0.0077  0.1691 -0.1511
  158loPI   C2A 2520  15.805   9.445   8.810  0.1495 -0.0243 -0.0801
  158loPI   C3A 2521  15.739   9.728   8.542 -0.1479 -0.0510 -0.1758
  158loPI   C4A 2522  15.944   9.935   8.166  0.1185  0.0074  0.1245
  158loPI   C5A 2523  15.875  10.196   7.725  0.0411 -0.1975  0.3812
  158loPI   C6A 2524  15.856  10.593   7.534 -0.1520 -0.0433  0.2133
  158loPI   C1B 2525  16.220   9.420   9.150  0.0973  0.1635  0.1030
  158loPI   C2B 2526  16.543   9.566   8.883  0.0980  0.0772  0.1520
  158loPI   C3B 2527  16.777   9.375   8.574 -0.0465 -0.1868  0.0768
  158loPI   C4B 2528  16.646   9.257   8.164  0.0745 -0.2781  0.1205
  159loPI    C1 2529  18.080   2.851  10.123  0.0028 -0.0618 -0.0635
  159loPI    C2 2530  17.987   3.061  10.451 -0.1153 -0.1382 -0.0476
  159loPI    C3 2531  18.368   2.963  10.378 -0.0873 -0.1126  0.0616
  159loPI   PO4 2532  17.942   2.860   9.947  0.0661  0.1976  0.1810
  159loPI   GL1 2533  17.975   2.927   9.497 -0.2887 -0.2167 -0.0255
  159loPI   GL2 2534  18.124   3.240   9.596  0.0712  0.3471 -0.0205
  159loPI   C1A 2535  18.006   2.643   9.170 -0.3617 -0.4100 -0.1041
  159loPI   C2A 2536  17.973   2.612   8.690  0.1763 -0.1793  0.3478
  159loPI   C3A 2537  17.660   2.584   8.343  0.0632  0.0220  0.1251
  159loPI   C4A 2538  17.343   2.702   8.092  0.0758  0.0683  0.2499
  159loPI   C5A 2539  17.089   2.566   7.727  0.0228  0.0126  0.0747
  159loPI   C6A 2540  16.971   2.211   7.537 -0.1401 -0.0893 -0.3860
  159loPI   C1B 2541  18.327   3.489   9.284 -0.0124 -0.0988 -0.2932
  159loPI   C2B 2542  18.102   3.545   8.921  0.0904  0.2184 -0.1897
  159loPI   C3B 2543  18.001   3.433   8.600  0.5778  0.1331  0.1878
  159loPI   C4B 2544  18.105   3.427   8.137 -0.1243  0.0024 -0.0487
  160loPI    C1 2545   6.937  11.367  10.277 -0.1773  0.1359 -0.0600
  160loPI    C2 2546   7.283  11.513  10.414 -0.0412 -0.1889 -0.0489
  160loPI    C3 2547   6.959  11.513  10.648  0.0180 -0.1232  0.0334
  160loPI   PO4 2548   6.870  11.296  10.011 -0.0089  0.3484  0.0971
  160loPI   GL1 2549   7.178  11.148   9.665 -0.0838 -0.0270 -0.1486
  160loPI   GL2 2550   7.501  11.003   9.558  0.0624  0.1852 -0.3164
  160loPI   C1A 2551   7.150  11.004   9.219  0.1506 -0.2166 -0.2971
  160loPI   C2A 2552   7.012  10.755   8.951  0.2548  0.1341  0.2930
  160loPI   C3A 2553   7.100  10.535   8.584 -0.2436 -0.0207 -0.0884
  160loPI   C4A 2554   6.959  10.603   8.205  0.0364  0.0975 -0.4120
  160loPI   C5A 2555   6.915  10.679   7.809 -0.2007 -0.1342 -0.1897
  160loPI   C6A 2556   6.612  10.809   7.615  0.1396  0.0505  0.1554
  160loPI   C1B 2557   7.621  11.224   9.303  0.2499 -0.5080 -0.0267
  160loPI   C2B 2558   7.864  11.198   8.946  0.0167  0.1264 -0.3351
  160loPI   C3B 2559   8.246  10.937   9.061 -0.0095 -0.2025 -0.0102
  160loPI   C4B 2560   8.477  10.586   9.011 -0.0767 -0.2174  0.1846
  161loPI    C1 2561   1.987  17.171  10.085  0.0066  0.0293 -0.0762
  161loPI    C2 2562   2.030  17.348  10.442 -0.0536  0.1824 -0.1437
  161loPI    C3 2563   1.746  17.071  10.388  0.1882 -0.1046  0.0259
  161loPI   PO4 2564   2.008  17.380   9.909 -0.2836  0.1287  0.0566
  161loPI   GL1 2565   2.051  17.275   9.526  0.2297  0.0011  0.0894
  161loPI   GL2 2566   1.710  17.263   9.412 -0.0010  0.1786 -0.5253
  161loPI   C1A 2567   2.412  17.544   9.308 -0.0862  0.1332  0.3149
  161loPI   C2A 2568   2.460  17.449   8.948 -0.2125 -0.0010  0.0215
  161loPI   C3A 2569   2.329  17.197   8.617 -0.0597 -0.0489  0.1333
  161loPI   C4A 2570   2.438  17.103   8.219 -0.4234  0.1544  0.3134
  161loPI   C5A 2571   2.569  16.760   7.872 -0.2130  0.0913  0.0200
  161loPI   C6A 2572   2.802  16.832   7.462  0.1794 -0.3232  0.0325
  161loPI   C1B 2573   1.488  17.097   8.942  0.1619 -0.0250 -0.2919
  161loPI   C2B 2574   1.862  17.053   8.556 -0.3945  0.0534 -0.0631
  161loPI   C3B 2575   2.052  16.864   8.090  0.0424 -0.1509 -0.2454
  161loPI   C4B 2576   2.064  16.700   7.767  0.2648  0.0593  0.2383
  162loPI    C1 2577   8.101   0.257   9.934 -0.4000  0.0832 -0.3471
  162loPI    C2 2578   8.407   0.511   9.892 -0.2115 -0.1136 -0.1895
  162loPI    C3 2579   8.047   0.648  10.000 -0.0649  0.0647  0.0858
  162loPI   PO4 2580   8.216   0.106   9.679  0.0128 -0.0744 -0.1189
  162loPI   GL1 2581   8.433   0.254   9.359  0.0186  0.0297 -0.1347
  162loPI   GL2 2582   8.474   0.569   9.315  0.2548  0.3900 -0.2248
  162loPI   C1A 2583   8.311   0.196   8.857 -0.4729 -0.1469 -0.1688
  162loPI   C2A 2584   8.079   0.396   8.539  0.0431 -0.1910 -0.2391
  162loPI   C3A 2585   7.924   0.684   8.187 -0.0470  0.0470 -0.2726
  162loPI   C4A 2586   7.691   0.611   7.852  0.2550  0.4387 -0.1251
  162loPI   C5A 2587   7.399   0.603   7.556  0.0698  0.1285  0.1670
  162loPI   C6A 2588   7.040   0.406   7.346 -0.1975  0.1025 -0.0924
  162loPI   C1B 2589   8.256   0.689   8.981 -0.2263 -0.0904  0.1849
  162loPI   C2B 2590   8.460   0.715   8.540 -0.2117  0.1894 -0.0204
  162loPI   C3B 2591   8.432   0.757   8.085 -0.0458 -0.0410  0.1132
  162loPI   C4B 2592   8.202   0.859   7.779  0.2074  0.0199  0.1005
  163loPI    C1 2593  14.117  11.620  10.351  0.0488 -0.1508 -0.1097
  163loPI    C2 2594  13.798  11.735  10.564  0.0686  0.1034 -0.2133
  163loPI    C3 2595  14.148  11.923  10.611  0.3611 -0.5340  0.3141
  163loPI   PO4 2596  14.032  11.536  10.152  0.4018 -0.0639  0.0148
  163loPI   GL1 2597  13.924  11.692   9.704 -0.0718  0.0684 -0.0537
  163loPI   GL2 2598  13.811  11.379   9.700  0.0259 -0.1022 -0.0837
  163loPI   C1A 2599  13.950  11.580   9.208  0.0828  0.0741 -0.3016
  163loPI   C2A 2600  13.690  11.663   8.818 -0.2728  0.1169  0.0486
  163loPI   C3A 2601  13.882  11.713   8.435  0.3771 -0.3977 -0.2903
  163loPI   C4A 2602  13.871  11.753   7.994  0.1170  0.2596 -0.0646
  163loPI   C5A 2603  13.653  11.725   7.596 -0.2390  0.0628 -0.0497
  163loPI   C6A 2604  13.473  11.907   7.139 -0.0198 -0.1872 -0.0475
  163loPI   C1B 2605  13.665  11.017   9.392 -0.2832  0.1038  0.0848
  163loPI   C2B 2606  13.951  10.711   9.181 -0.1040  0.1797  0.0494
  163loPI   C3B 2607  14.105  10.558   8.764 -0.1506  0.0089  0.3987
  163loPI   C4B 2608  14.220  10.749   8.352 -0.1226 -0.2742  0.0700
  164loPI    C1 2609   7.589  14.755   9.631  0.2028 -0.3102 -0.1587
  164loPI    C2 2610   7.460  14.454   9.860  0.1751 -0.0121  0.2270
  164loPI    C3 2611   7.519  14.396   9.469 -0.3929 -0.3603  0.1812
  164loPI   PO4 2612   7.871  14.948   9.689  0.1243 -0.0966 -0.0320
  164loPI   GL1 2613   8.044  15.376   9.440  0.2413 -0.1241 -0.0563
  164loPI   GL2 2614   8.218  15.103   9.262  0.0264 -0.1133 -0.1448
  164loPI   C1A 2615   7.862  15.456   9.008 -0.0188  0.1568 -0.0357
  164loPI   C2A 2616   8.071  15.727   8.811  0.1512 -0.3304 -0.2863
  164loPI   C3A 2617   8.081  15.863   8.412 -0.0027 -0.3167 -0.1377
  164loPI   C4A 2618   8.184  15.733   8.028 -0.0556 -0.0576 -0.0067
  164loPI   C5A 2619   8.042  15.794   7.709  0.0405 -0.0137  0.2735
  164loPI   C6A 2620   7.758  16.043   7.492  0.5895 -0.1114  0.2036
  164loPI   C1B 2621   8.328  15.273   8.789 -0.0135  0.3773  0.2045
  164loPI   C2B 2622   8.351  14.937   8.549  0.0502  0.0266  0.0554
  164loPI   C3B 2623   8.169  14.882   8.042  0.0387 -0.1343 -0.2899
  164loPI   C4B 2624   8.156  14.963   7.547 -0.2413 -0.0846  0.0802
  165loPI    C1 2625   0.908   4.432   9.961  0.0699  0.0560 -0.0986
  165loPI    C2 2626   0.787   4.679  10.252  0.0508  0.0773 -0.1247
  165loPI    C3 2627   0.517   4.493  10.022  0.0612 -0.0874 -0.0058
  165loPI   PO4 2628   1.136   4.252   9.941  0.0639 -0.0143 -0.1235
  165loPI   GL1 2629   1.203   4.201   9.539 -0.0540 -0.0720 -0.1607
  165loPI   GL2 2630   1.150   4.455   9.454  0.0477 -0.0019  0.2277
  165loPI   C1A 2631   1.471   4.125   9.204  0.1629 -0.1092  0.2737
  165loPI   C2A 2632   1.466   3.959   8.792 -0.1506  0.0757 -0.0182
  165loPI   C3A 2633   1.592   3.862   8.389  0.0223  0.0182 -0.2540
  165loPI   C4A 2634   1.645   4.005   8.010  0.1579  0.1033 -0.2726
  165loPI   C5A 2635   1.693   4.208   7.688 -0.2211 -0.0553 -0.1239
  165loPI   C6A 2636   1.897   4.631   7.648  0.0313  0.0540  0.0350
  165loPI   C1B 2637   1.032   4.743   9.107 -0.0195  0.0732  0.1913
  165loPI   C2B 2638   0.878   5.042   8.842 -0.0837  0.1914 -0.1757
  165loPI   C3B 2639   0.961   5.112   8.480  0.0104 -0.0079 -0.0361
  165loPI   C4B 2640   1.060   5.211   8.036  0.0029  0.0780  0.3860
  166loPI    C1 2641  16.936   2.088   9.601 -0.1064  0.0125 -0.1008
  166loPI    C2 2642  17.141   1.848   9.356 -0.0481  0.1326 -0.1701
  166loPI    C3 2643  17.310   1.980   9.694 -0.0496  0.1446 -0.1740
  166loPI   PO4 2644  16.805   2.231   9.383 -0.0283  0.1664  0.0905
  166loPI   GL1 2645  16.720   2.217   8.928  0.2640 -0.0038 -0.2477
  166loPI   GL2 2646  16.558   2.552   8.973  0.1093 -0.0555 -0.1366
  166loPI   C1A 2647  16.589   2.184   8.458  0.0407  0.0561 -0.2292
  166loPI   C2A 2648  16.646   2.369   7.986 -0.1275 -0.1056  0.2208
  166loPI   C3A 2649  16.486   2.491   7.532 -0.0702  0.2490 -0.0525
  166loPI   C4A 2650  16.213   2.662   7.215 -0.0020  0.3146  0.2106
  166loPI   C5A 2651  15.780   2.603   7.003 -0.1344  0.2539  0.2211
  166loPI   C6A 2652  15.629   2.209   6.900 -0.0182  0.0177 -0.0519
  166loPI   C1B 2653  16.216   2.532   8.683 -0.1955  0.3344 -0.0369
  166loPI   C2B 2654  16.081   2.426   8.243  0.0690  0.1163 -0.0089
  166loPI   C3B 2655  16.107   2.556   7.810  0.0533  0.1809  0.0310
  166loPI   C4B 2656  15.849   2.738   7.485  0.4146 -0.0638  0.3380
  167loPI    C1 2657   2.153   5.570  10.349  0.1347  0.0851 -0.1159
  167loPI    C2 2658   2.181   5.967  10.389 -0.0020  0.0769  0.0708
  167loPI    C3 2659   2.205   5.731  10.711 -0.0660 -0.0575 -0.0217
  167loPI   PO4 2660   2.095   5.576   9.947  0.0243  0.5613 -0.1286
  167loPI   GL1 2661   1.838   5.353   9.697 -0.0728 -0.1791 -0.2138
  167loPI   GL2 2662   1.855   4.994   9.700  0.1804 -0.0368 -0.0589
  167loPI   C1A 2663   1.932   5.402   9.320 -0.2943  0.2649  0.4857
  167loPI   C2A 2664   2.285   5.381   9.016 -0.0438 -0.0650 -0.0427
  167loPI   C3A 2665   2.306   5.247   8.629 -0.2264  0.3107 -0.1700
  167loPI   C4A 2666   2.183   5.180   8.257  0.1525 -0.1217  0.3189
  167loPI   C5A 2667   2.092   5.345   7.967  0.0354 -0.4301  0.0832
  167loPI   C6A 2668   2.002   5.796   7.791  0.0555  0.3440  0.0536
  167loPI   C1B 2669   2.070   4.797   9.390  0.2258  0.0193  0.0481
  167loPI   C2B 2670   1.916   4.882   9.010 -0.1109  0.1666  0.2560
  167loPI   C3B 2671   1.953   4.753   8.590 -0.2152 -0.2334  0.1371
  167loPI   C4B 2672   1.840   4.729   8.140  0.1849 -0.0048 -0.1021
  168loPI    C1 2673  18.080   5.155  10.323  0.1657  0.0595  0.0866
  168loPI    C2 2674  17.712   5.079  10.462  0.0373  0.0652 -0.2434
  168loPI    C3 2675  18.031   5.003  10.690 -0.1678  0.0630  0.0471
  168loPI   PO4 2676  18.080   5.067  10.030 -0.3281 -0.0546  0.0957
  168loPI   GL1 2677  17.871   5.031   9.627  0.0577  0.1722 -0.1098
  168loPI   GL2 2678  18.151   5.189   9.577  0.2256  0.0104 -0.1590
  168loPI   C1A 2679  17.597   5.193   9.213 -0.1151 -0.1653 -0.4517
  168loPI   C2A 2680  17.654   5.240   8.713  0.5398  0.2051 -0.3801
  168loPI   C3A 2681  17.424   5.323   8.495  0.0315 -0.2329 -0.0409
  168loPI   C4A 2682  17.406   5.527   8.055 -0.2264  0.2123  0.0899
  168loPI   C5A 2683  17.500   5.314   7.696  0.0036 -0.2352 -0.0688
  168loPI   C6A 2684  17.852   5.087   7.395 -0.1481 -0.1878  0.0223
  168loPI   C1B 2685  18.084   5.113   9.146 -0.0591  0.0811  0.1273
  168loPI   C2B 2686  18.124   4.801   8.776  0.3666 -0.1940  0.1715
  168loPI   C3B 2687  18.337   4.838   8.382  0.4367 -0.0580 -0.1207
  168loPI   C4B 2688  18.550   4.569   8.162 -0.2550  0.0841 -0.1243
  169loPI    C1 2689  16.919   3.123   9.820  0.0274  0.1426  0.1452
  169loPI    C2 2690  16.538   3.025   9.891  0.0525 -0.0434  0.0317
  169loPI    C3 2691  16.638   3.407   9.827 -0.0896  0.0260  0.2160
  169loPI   PO4 2692  16.994   3.014   9.707  0.0229  0.1625 -0.3089
  169loPI   GL1 2693  17.201   3.098   9.303  0.0749  0.1007  0.3624
  169loPI   GL2 2694  17.471   2.758   9.223 -0.1830  0.1847  0.0494
  169loPI   C1A 2695  17.298   3.412   8.945 -0.0406  0.0054  0.0374
  169loPI   C2A 2696  17.436   3.493   8.574 -0.1183  0.0168 -0.3124
  169loPI   C3A 2697  17.698   3.670   8.275  0.0816  0.1252  0.0238
  169loPI   C4A 2698  17.686   3.963   8.012  0.0231  0.0432  0.3853
  169loPI   C5A 2699  17.825   4.086   7.570  0.2844 -0.2240  0.0211
  169loPI   C6A 2700  18.066   3.884   7.234 -0.2945 -0.2541  0.1439
  169loPI   C1B 2701  17.488   2.628   8.845  0.0129  0.1350 -0.1521
  169loPI   C2B 2702  17.173   2.437   8.596 -0.1522 -0.0434 -0.1262
  169loPI   C3B 2703  16.963   2.514   8.363  0.3320  0.2247  0.2486
  169loPI   C4B 2704  16.627   2.796   8.526 -0.0653 -0.1889  0.0649
  170loPI    C1 2705   1.429   8.904  10.186  0.1145  0.0745  0.0213
  170loPI    C2 2706   1.582   8.630  10.434  0.2161  0.0960 -0.0172
  170loPI    C3 2707   1.285   8.868  10.557  0.0676 -0.0895 -0.0118
  170loPI   PO4 2708   1.636   9.010  10.032  0.0671 -0.2303  0.2547
  170loPI   GL1 2709   1.844   8.765   9.685 -0.1397  0.0726 -0.0102
  170loPI   GL2 2710   1.835   8.324   9.582 -0.0607  0.0989 -0.2251
  170loPI   C1A 2711   1.704   8.818   9.174 -0.2980 -0.0048  0.1347
  170loPI   C2A 2712   1.669   8.816   8.794 -0.2005 -0.0636  0.1108
  170loPI   C3A 2713   1.773   9.190   8.574  0.0235 -0.0128 -0.0595
  170loPI   C4A 2714   1.767   9.335   8.165  0.2205 -0.0558  0.0635
  170loPI   C5A 2715   1.965   9.494   7.746  0.2890  0.0104  0.0094
  170loPI   C6A 2716   2.084   9.498   7.375 -0.3529  0.2199 -0.5418
  170loPI   C1B 2717   1.785   8.313   9.125 -0.1816 -0.1143  0.0027
  170loPI   C2B 2718   1.917   8.318   8.620  0.3113  0.1442  0.1045
  170loPI   C3B 2719   2.069   8.374   8.264 -0.0529 -0.2391 -0.0116
  170loPI   C4B 2720   2.045   8.498   7.818  0.0435  0.0496  0.2246
  171loPI    C1 2721   4.810  13.416   9.893 -0.0703 -0.2796  0.1140
  171loPI    C2 2722   5.142  13.452  10.113 -0.1853 -0.1331  0.2653
  171loPI    C3 2723   4.905  13.133  10.159  0.0414 -0.3423  0.0083
  171loPI   PO4 2724   4.830  13.446   9.644  0.0080  0.2443 -0.1028
  171loPI   GL1 2725   4.860  13.376   9.202 -0.1593 -0.2704 -0.0953
  171loPI   GL2 2726   4.977  13.182   9.043 -0.1500  0.0487  0.0497
  171loPI   C1A 2727   4.723  13.609   8.930 -0.2898 -0.1423 -0.0759
  171loPI   C2A 2728   4.594  13.701   8.544  0.1766  0.0380  0.0977
  171loPI   C3A 2729   4.498  13.712   8.059  0.2155  0.1450 -0.3068
  171loPI   C4A 2730   4.533  13.463   7.700 -0.0346  0.3380 -0.1278
  171loPI   C5A 2731   4.654  13.588   7.253  0.1062  0.0543  0.2569
  171loPI   C6A 2732   4.598  13.722   6.821  0.0035 -0.3346  0.0519
  171loPI   C1B 2733   4.787  13.194   8.579  0.2575  0.2823  0.0430
  171loPI   C2B 2734   4.656  13.231   8.242 -0.4563  0.2944  0.1181
  171loPI   C3B 2735   4.383  13.100   7.982 -0.0613  0.0289  0.1717
  171loPI   C4B 2736   4.217  12.999   7.679 -0.0656 -0.1259  0.1687
  172loPI    C1 2737  11.135   2.976  10.123 -0.3581  0.0064  0.1883
  172loPI    C2 2738  10.964   3.333  10.062  0.1882  0.2297 -0.1014
  172loPI    C3 2739  11.147   3.255  10.409 -0.1855  0.1170  0.0751
  172loPI   PO4 2740  11.152   2.923   9.827  0.3877  0.1018  0.0728
  172loPI   GL1 2741  11.461   2.601   9.474 -0.1618 -0.2119 -0.0694
  172loPI   GL2 2742  11.386   2.226   9.386  0.1023 -0.0783  0.0365
  172loPI   C1A 2743  11.489   2.889   9.171 -0.0877 -0.2510  0.1027
  172loPI   C2A 2744  11.654   2.867   8.839 -0.1452 -0.1303  0.0025
  172loPI   C3A 2745  11.702   2.773   8.456 -0.0759  0.1091  0.1036
  172loPI   C4A 2746  11.576   2.944   8.135  0.1632 -0.0121  0.1762
  172loPI   C5A 2747  11.593   3.294   7.774 -0.2299 -0.1626  0.0639
  172loPI   C6A 2748  11.716   3.148   7.454  0.0621 -0.3801  0.0760
  172loPI   C1B 2749  11.562   2.330   8.939 -0.2909  0.2041  0.1291
  172loPI   C2B 2750  11.864   2.392   8.687  0.1053  0.0844  0.0883
  172loPI   C3B 2751  12.132   2.120   8.415  0.1968 -0.1976 -0.2711
  172loPI   C4B 2752  12.130   2.017   7.950  0.0450 -0.2183 -0.2466
  173loPI    C1 2753   9.997   2.093   9.465 -0.0246 -0.1474 -0.0360
  173loPI    C2 2754  10.369   2.114   9.610 -0.1111  0.1697  0.1512
  173loPI    C3 2755  10.071   1.983   9.842 -0.1569  0.1457  0.0792
  173loPI   PO4 2756   9.946   2.346   9.319  0.1181  0.0545 -0.0165
  173loPI   GL1 2757   9.739   2.353   8.879 -0.2786 -0.2724  0.0473
  173loPI   GL2 2758   9.516   2.507   8.961  0.0693 -0.2636 -0.1582
  173loPI   C1A 2759   9.386   2.300   8.582  0.0287 -0.1269 -0.2368
  173loPI   C2A 2760   9.410   2.223   8.195 -0.0406  0.1668 -0.0767
  173loPI   C3A 2761   9.308   2.186   7.783  0.0831  0.0883 -0.0813
  173loPI   C4A 2762   8.997   2.211   7.426  0.3068  0.3633 -0.1256
  173loPI   C5A 2763   8.604   2.297   7.484  0.1419 -0.0096 -0.0587
  173loPI   C6A 2764   8.178   2.057   7.597 -0.0520  0.1579  0.0885
  173loPI   C1B 2765   9.478   2.774   8.609 -0.0664 -0.0790  0.0402
  173loPI   C2B 2766   9.443   2.934   8.238 -0.0580 -0.0782  0.1615
  173loPI   C3B 2767   9.218   2.664   7.903 -0.1743 -0.2888 -0.0780
  173loPI   C4B 2768   8.915   2.438   7.837 -0.1358 -0.0038  0.0272
  174loPI    C1 2769   9.599  14.693   9.552 -0.0772  0.2034  0.1891
  174loPI    C2 2770   9.360  14.407   9.699 -0.0333  0.0811  0.0257
  174loPI    C3 2771   9.541  14.664   9.947 -0.0642 -0.0394  0.1746
  174loPI   PO4 2772   9.837  14.531   9.422  0.2724  0.4870 -0.0036
  174loPI   GL1 2773  10.077  14.592   8.988  0.4262  0.0177 -0.2073
  174loPI   GL2 2774  10.406  14.458   9.041 -0.0866  0.1521  0.1368
  174loPI   C1A 2775  10.016  14.430   8.628 -0.1925 -0.2154  0.0425
  174loPI   C2A 2776  10.206  14.451   8.236 -0.1853  0.0929  0.2206
  174loPI   C3A 2777  10.610  14.381   7.983  0.2012  0.1252 -0.1219
  174loPI   C4A 2778  10.998  14.097   7.927  0.2659  0.3374 -0.2972
  174loPI   C5A 2779  11.255  13.709   7.808 -0.2325  0.1848 -0.0111
  174loPI   C6A 2780  11.467  13.653   7.458  0.1080 -0.1697  0.0366
  174loPI   C1B 2781  10.534  14.396   8.618 -0.1804  0.1084 -0.2016
  174loPI   C2B 2782  10.735  14.133   8.583 -0.0877 -0.0720  0.0657
  174loPI   C3B 2783  10.772  13.827   8.305  0.2147  0.1012  0.3559
  174loPI   C4B 2784  10.749  13.635   7.812  0.0226  0.0558 -0.0751
  175loPI    C1 2785   5.656  18.272  10.105  0.0268 -0.0062 -0.0972
  175loPI    C2 2786   5.545  18.469  10.435  0.3242  0.0095 -0.0031
  175loPI    C3 2787   5.788  18.153  10.463  0.1624 -0.1344 -0.1885
  175loPI   PO4 2788   5.782  18.436   9.945  0.2791 -0.0084  0.0708
  175loPI   GL1 2789   5.834  18.606   9.432  0.2376  0.2091  0.0160
  175loPI   GL2 2790   6.145  18.661   9.338  0.2777  0.1584 -0.0863
  175loPI   C1A 2791   5.710  18.670   9.016  0.3156 -0.0874 -0.3105
  175loPI   C2A 2792   5.749  18.667   8.620 -0.0632  0.2192 -0.0587
  175loPI   C3A 2793   5.656  18.881   8.269 -0.1819  0.1662  0.1147
  175loPI   C4A 2794   5.690  18.961   7.820 -0.0555 -0.3003 -0.1339
  175loPI   C5A 2795   5.861  19.217   7.469  0.3175  0.2920 -0.0336
  175loPI   C6A 2796   6.157  19.373   7.220  0.2118  0.0811  0.2889
  175loPI   C1B 2797   6.176  18.496   8.905  0.1793  0.0192  0.0541
  175loPI   C2B 2798   6.342  18.404   8.355  0.0113 -0.0291 -0.1721
  175loPI   C3B 2799   6.178  18.225   8.009  0.0156 -0.0848  0.2979
  175loPI   C4B 2800   5.888  17.982   7.786  0.3426  0.0162  0.0938
  176loPI    C1 2801  12.184   4.567  10.260  0.0802  0.0063 -0.1302
  176loPI    C2 2802  11.954   4.378  10.528  0.1443  0.0084 -0.0735
  176loPI    C3 2803  12.350   4.319  10.527  0.1643  0.1395 -0.0579
  176loPI   PO4 2804  12.017   4.499   9.967 -0.2302 -0.2218 -0.2320
  176loPI   GL1 2805  12.128   4.368   9.559 -0.0213  0.0304  0.1820
  176loPI   GL2 2806  12.125   4.075   9.643  0.0178  0.0696  0.3615
  176loPI   C1A 2807  12.066   4.487   9.172  0.0301 -0.2588 -0.2600
  176loPI   C2A 2808  12.110   4.681   8.749  0.0607 -0.0411 -0.0973
  176loPI   C3A 2809  12.234   5.030   8.549  0.1332  0.2286  0.2260
  176loPI   C4A 2810  12.019   5.417   8.452 -0.2418  0.0791  0.2666
  176loPI   C5A 2811  12.168   5.783   8.535 -0.3135 -0.1467  0.3357
  176loPI   C6A 2812  12.287   6.156   8.406  0.0541  0.0018  0.0327
  176loPI   C1B 2813  12.163   3.990   9.163  0.0409 -0.0296  0.1572
  176loPI   C2B 2814  12.136   4.112   8.769  0.0287  0.0634  0.0291
  176loPI   C3B 2815  12.120   4.283   8.278 -0.0037 -0.2712  0.0586
  176loPI   C4B 2816  12.152   4.214   7.878 -0.2322 -0.0080  0.3071
  177loPI    C1 2817   2.263  15.473  10.341 -0.1817  0.0104  0.0315
  177loPI    C2 2818   2.351  15.088  10.405  0.1827  0.0857  0.0104
  177loPI    C3 2819   2.397  15.356  10.699 -0.1356  0.1057  0.0460
  177loPI   PO4 2820   2.022  15.359  10.100 -0.0295  0.1587  0.1993
  177loPI   GL1 2821   1.966  14.979   9.688  0.2860 -0.2449  0.0997
  177loPI   GL2 2822   1.720  14.843   9.710  0.1143  0.0409  0.0799
  177loPI   C1A 2823   2.026  14.889   9.278 -0.3010 -0.2675  0.3839
  177loPI   C2A 2824   2.080  14.970   8.901  0.0400  0.0280  0.1391
  177loPI   C3A 2825   1.979  14.981   8.404 -0.1992 -0.2751  0.3036
  177loPI   C4A 2826   1.801  15.144   8.020  0.4337  0.2144 -0.2305
  177loPI   C5A 2827   1.556  15.219   7.614  0.0480  0.1944 -0.0632
  177loPI   C6A 2828   1.197  15.335   7.465  0.1450  0.1873  0.0041
  177loPI   C1B 2829   1.493  14.988   9.337 -0.2691  0.0372  0.0286
  177loPI   C2B 2830   1.446  15.070   8.874  0.1145 -0.0801  0.2331
  177loPI   C3B 2831   1.446  15.084   8.437  0.0673  0.0778 -0.2584
  177loPI   C4B 2832   1.263  15.027   7.999  0.1936  0.1118  0.1568
  178loPI    C1 2833   0.169   1.646   9.926 -0.1340 -0.0612 -0.1921
  178loPI    C2 2834  -0.093   1.639  10.229  0.0151 -0.2486 -0.0655
  178loPI    C3 2835   0.288   1.744  10.296 -0.0700  0.2275 -0.2863
  178loPI   PO4 2836   0.045   1.841   9.713 -0.1221 -0.0813  0.0444
  178loPI   GL1 2837   0.249   1.939   9.433 -0.3477 -0.0723  0.0541
  178loPI   GL2 2838   0.304   2.255   9.309 -0.0101 -0.1165 -0.2448
  178loPI   C1A 2839   0.565   1.724   9.172 -0.2365 -0.4243 -0.0003
  178loPI   C2A 2840   0.829   1.703   8.836  0.0746  0.0227 -0.0178
  178loPI   C3A 2841   0.772   1.747   8.397 -0.1144  0.0998 -0.0498
  178loPI   C4A 2842   0.683   2.014   7.996 -0.4364 -0.2093  0.3289
  178loPI   C5A 2843   0.668   2.292   7.739  0.0861  0.1247 -0.2570
  178loPI   C6A 2844   0.743   2.636   7.384 -0.2618  0.0076 -0.0435
  178loPI   C1B 2845   0.265   2.237   8.814 -0.1623 -0.0501  0.2502
  178loPI   C2B 2846   0.184   2.461   8.582 -0.0305 -0.2378 -0.1055
  178loPI   C3B 2847   0.354   2.518   8.121 -0.2738  0.1260  0.0074
  178loPI   C4B 2848   0.251   2.685   7.820 -0.1595 -0.0591  0.1540
  179loPI    C1 2849   6.914  14.676   9.936 -0.1861 -0.0891 -0.0043
  179loPI    C2 2850   7.041  14.393  10.188  0.1040  0.0149 -0.0295
  179loPI    C3 2851   6.799  14.683  10.319 -0.1225 -0.1916  0.0170
  179loPI   PO4 2852   6.981  14.455   9.686  0.2588  0.1391 -0.0511
  179loPI   GL1 2853   7.017  14.409   9.308 -0.0452  0.2464 -0.4227
  179loPI   GL2 2854   6.824  14.764   9.151 -0.1835 -0.0890 -0.3266
  179loPI   C1A 2855   6.846  14.346   8.934  0.2486  0.3699  0.1595
  179loPI   C2A 2856   6.817  14.312   8.385 -0.1302  0.2799 -0.0223
  179loPI   C3A 2857   6.928  14.180   8.002  0.0220 -0.1319  0.1280
  179loPI   C4A 2858   7.086  14.107   7.652 -0.1858 -0.3171  0.2042
  179loPI   C5A 2859   7.222  14.009   7.284 -0.0044  0.0335 -0.1279
  179loPI   C6A 2860   7.631  13.967   7.071  0.0465 -0.0250 -0.0024
  179loPI   C1B 2861   6.903  14.775   8.683  0.0369  0.3450 -0.1200
  179loPI   C2B 2862   6.774  14.775   8.237 -0.1287 -0.1463 -0.0121
  179loPI   C3B 2863   6.795  14.637   7.853 -0.0619  0.0111 -0.0137
  179loPI   C4B 2864   6.713  14.346   7.501 -0.1474  0.2386 -0.0733
  180loPI    C1 2865   9.289   6.578  10.398 -0.4470 -0.1453 -0.0970
  180loPI    C2 2866   9.337   6.844  10.103  0.0149 -0.1266 -0.0113
  180loPI    C3 2867   9.301   6.969  10.482 -0.1638 -0.1697 -0.0134
  180loPI   PO4 2868   9.108   6.400  10.266 -0.2678  0.1541 -0.0121
  180loPI   GL1 2869   9.009   6.437   9.833  0.0625  0.0059  0.0512
  180loPI   GL2 2870   9.350   6.474   9.792 -0.0438  0.2747 -0.0313
  180loPI   C1A 2871   8.777   6.235   9.509 -0.1925  0.1684 -0.1064
  180loPI   C2A 2872   8.498   6.285   9.199 -0.2636  0.1242  0.1964
  180loPI   C3A 2873   8.447   6.218   8.783  0.1301 -0.3466  0.1165
  180loPI   C4A 2874   8.451   6.370   8.328  0.1756 -0.2570 -0.4010
  180loPI   C5A 2875   8.328   6.452   7.866 -0.0636  0.1276 -0.1044
  180loPI   C6A 2876   8.167   6.392   7.488 -0.1694  0.0217  0.1122
  180loPI   C1B 2877   9.188   6.479   9.373 -0.0779  0.2842  0.1278
  180loPI   C2B 2878   9.010   6.310   9.022 -0.1691 -0.0309 -0.1456
  180loPI   C3B 2879   8.963   6.252   8.545  0.0755  0.0438 -0.1609
  180loPI   C4B 2880   8.986   6.419   8.140 -0.0314  0.1355 -0.1931
  181loPI    C1 2881  14.968  13.567  10.132 -0.1362  0.1389 -0.1589
  181loPI    C2 2882  15.123  13.766  10.443  0.1084 -0.1301 -0.1047
  181loPI    C3 2883  14.736  13.807  10.353  0.0220 -0.0903  0.2690
  181loPI   PO4 2884  15.127  13.639   9.970  0.0408 -0.1963  0.1147
  181loPI   GL1 2885  15.061  13.658   9.591  0.1751 -0.0816  0.2666
  181loPI   GL2 2886  15.452  13.654   9.503 -0.0784  0.2372 -0.1367
  181loPI   C1A 2887  14.985  13.788   9.158 -0.0878 -0.0931  0.0612
  181loPI   C2A 2888  14.842  13.855   8.777 -0.1362  0.1817  0.0274
  181loPI   C3A 2889  14.992  13.944   8.482 -0.1480 -0.0224 -0.3214
  181loPI   C4A 2890  15.125  13.981   8.090  0.1781 -0.1005  0.0336
  181loPI   C5A 2891  15.365  13.959   7.576 -0.0895 -0.0110 -0.1167
  181loPI   C6A 2892  15.401  14.305   7.288 -0.2449  0.0178 -0.0719
  181loPI   C1B 2893  15.344  13.488   9.130  0.0958 -0.0140  0.1238
  181loPI   C2B 2894  15.273  13.576   8.693  0.0407  0.3327 -0.0969
  181loPI   C3B 2895  15.362  13.575   8.264 -0.1023  0.0646  0.2043
  181loPI   C4B 2896  15.243  13.496   7.849  0.0229  0.1371 -0.1177
  182loPI    C1 2897   0.033   4.999  10.171  0.0220 -0.1170  0.1919
  182loPI    C2 2898   0.365   4.947  10.388  0.0441  0.1131  0.2156
  182loPI    C3 2899   0.019   5.035  10.569  0.0451  0.2235  0.1653
  182loPI   PO4 2900   0.099   5.196  10.006  0.1517 -0.0488  0.0214
  182loPI   GL1 2901  -0.087   5.199   9.655 -0.0029  0.0003 -0.1866
  182loPI   GL2 2902   0.059   5.553   9.491  0.0398 -0.1252 -0.3486
  182loPI   C1A 2903  -0.161   5.243   9.192 -0.1481 -0.3136 -0.1789
  182loPI   C2A 2904  -0.352   5.395   8.736  0.0790  0.0551  0.1389
  182loPI   C3A 2905  -0.298   5.617   8.307  0.0945 -0.1508  0.0497
  182loPI   C4A 2906  -0.455   5.622   7.860 -0.1687  0.1651 -0.3339
  182loPI   C5A 2907  -0.605   5.317   7.525  0.4160  0.0075 -0.2337
  182loPI   C6A 2908  -0.430   5.007   7.293 -0.6458  0.1427 -0.0213
  182loPI   C1B 2909   0.188   5.760   9.193 -0.0549  0.2637 -0.0237
  182loPI   C2B 2910   0.263   5.835   8.798  0.0499 -0.1005 -0.0057
  182loPI   C3B 2911   0.173   5.751   8.331 -0.0228 -0.1613 -0.0310
  182loPI   C4B 2912  -0.011   5.828   7.989  0.1442 -0.1781 -0.2009
  183loPI    C1 2913   5.177  11.762   9.750 -0.1229  0.1718  0.0580
  183loPI    C2 2914   5.163  11.362   9.762  0.0788  0.1544 -0.2086
  183loPI    C3 2915   5.159  11.573  10.102 -0.0728 -0.0717 -0.0684
  183loPI   PO4 2916   5.316  11.803   9.601  0.1226 -0.0777  0.1899
  183loPI   GL1 2917   5.292  12.148   9.291 -0.1639 -0.1255 -0.1258
  183loPI   GL2 2918   4.976  12.054   9.340 -0.1171  0.1194  0.0738
  183loPI   C1A 2919   5.481  12.027   8.955  0.1593 -0.0157 -0.2603
  183loPI   C2A 2920   5.575  12.089   8.535  0.1212 -0.0283  0.2452
  183loPI   C3A 2921   5.662  12.079   8.127  0.0793 -0.3193 -0.0086
  183loPI   C4A 2922   5.683  12.279   7.806 -0.1501 -0.3116 -0.0848
  183loPI   C5A 2923   5.875  12.605   7.619  0.1106  0.2289  0.0176
  183loPI   C6A 2924   6.286  12.835   7.472 -0.0049 -0.2543  0.0283
  183loPI   C1B 2925   4.611  11.830   9.108  0.2015  0.1676  0.0182
  183loPI   C2B 2926   4.516  11.908   8.736  0.0319 -0.0358  0.2042
  183loPI   C3B 2927   4.342  11.715   8.385  0.0623  0.2888  0.1509
  183loPI   C4B 2928   4.056  11.696   7.954 -0.0317 -0.0604  0.0686
  184loPI    C1 2929  14.252   3.318  10.309  0.1520  0.0735  0.0823
  184loPI    C2 2930  14.219   2.923  10.363  0.0288  0.0454 -0.1865
  184loPI    C3 2931  14.580   3.095  10.364  0.0915 -0.0845 -0.1805
  184loPI   PO4 2932  14.080   3.411  10.126  0.1853 -0.1178 -0.2171
  184loPI   GL1 2933  13.901   3.435   9.702 -0.2602 -0.0502 -0.0882
  184loPI   GL2 2934  14.262   3.572   9.663  0.1041  0.4014  0.0617
  184loPI   C1A 2935  13.877   3.562   9.265  0.3199 -0.0177 -0.0043
  184loPI   C2A 2936  14.018   3.795   8.933 -0.0934 -0.3766 -0.2489
  184loPI   C3A 2937  13.804   3.720   8.395 -0.2757  0.1990 -0.1174
  184loPI   C4A 2938  13.610   4.049   8.071  0.1495 -0.0483 -0.0876
  184loPI   C5A 2939  13.652   4.424   8.003  0.2477 -0.0934 -0.0081
  184loPI   C6A 2940  13.276   4.607   7.896  0.0844 -0.2535 -0.0764
  184loPI   C1B 2941  14.413   3.825   9.291  0.1622 -0.2590 -0.0623
  184loPI   C2B 2942  14.570   3.743   8.851 -0.1216  0.1472  0.0550
  184loPI   C3B 2943  14.758   3.572   8.539  0.2186  0.2817 -0.2189
  184loPI   C4B 2944  15.086   3.425   8.415 -0.1551  0.0252  0.1664
  185loPI    C1 2945  12.243   1.994  10.015 -0.1886 -0.1882  0.0942
  185loPI    C2 2946  12.123   1.628   9.907 -0.2393 -0.0605 -0.2952
  185loPI    C3 2947  11.954   1.951   9.743 -0.1062  0.1377 -0.0492
  185loPI   PO4 2948  12.552   2.036   9.943  0.3163 -0.1190  0.5288
  185loPI   GL1 2949  12.640   1.983   9.407  0.4022  0.1852 -0.3073
  185loPI   GL2 2950  12.381   1.766   9.482 -0.0391 -0.1671 -0.0309
  185loPI   C1A 2951  12.551   1.755   9.016  0.0756 -0.3285  0.0736
  185loPI   C2A 2952  12.248   1.730   8.709 -0.6218 -0.1516 -0.0996
  185loPI   C3A 2953  12.025   1.665   8.329  0.0011 -0.2192 -0.1745
  185loPI   C4A 2954  12.223   1.510   8.021  0.0197  0.1890 -0.0034
  185loPI   C5A 2955  12.376   1.337   7.645 -0.0743  0.0231 -0.3579
  185loPI   C6A 2956  12.551   1.348   7.282  0.1931 -0.2268  0.0354
  185loPI   C1B 2957  12.178   1.566   9.288  0.0116  0.0512  0.0219
  185loPI   C2B 2958  12.370   1.290   8.894 -0.1897  0.0159  0.0867
  185loPI   C3B 2959  12.553   1.369   8.503  0.1262 -0.0048  0.0535
  185loPI   C4B 2960  12.633   1.232   8.088 -0.2003 -0.2360 -0.1769
  186loPI    C1 2961   1.498   3.272   9.874 -0.0654  0.2361  0.2161
  186loPI    C2 2962   1.224   3.221  10.160 -0.1898 -0.0017  0.0579
  186loPI    C3 2963   1.253   2.957   9.861  0.0968  0.1160 -0.0223
  186loPI   PO4 2964   1.486   3.467   9.777  0.1213  0.5216  0.3797
  186loPI   GL1 2965   1.476   3.782   9.541  0.0066  0.0249  0.3428
  186loPI   GL2 2966   1.166   3.678   9.433  0.1847 -0.0836  0.1748
  186loPI   C1A 2967   1.584   3.553   9.084 -0.1323  0.0597  0.1821
  186loPI   C2A 2968   1.810   3.505   8.621 -0.1385  0.3168  0.0803
  186loPI   C3A 2969   1.658   3.415   8.117  0.0446  0.0177  0.1117
  186loPI   C4A 2970   1.351   3.147   7.920 -0.3579  0.2062  0.0117
  186loPI   C5A 2971   1.087   3.089   7.679 -0.0156  0.1141 -0.0102
  186loPI   C6A 2972   0.691   3.106   7.489 -0.2185  0.1235 -0.0507
  186loPI   C1B 2973   1.034   3.823   8.993  0.1317  0.1743 -0.0302
  186loPI   C2B 2974   0.965   3.853   8.474 -0.1624  0.0292  0.2750
  186loPI   C3B 2975   0.736   3.841   8.120  0.0754 -0.0296  0.0606
  186loPI   C4B 2976   0.358   3.925   7.924 -0.1891 -0.3257 -0.0413
  187loPI    C1 2977   8.758   5.057   9.681 -0.0937 -0.0270 -0.1854
  187loPI    C2 2978   8.630   5.136  10.052  0.0319 -0.0095 -0.1454
  187loPI    C3 2979   8.720   4.761   9.947  0.2565  0.0228 -0.0744
  187loPI   PO4 2980   8.918   5.341   9.698  0.0267 -0.0142 -0.0969
  187loPI   GL1 2981   8.865   5.517   9.335 -0.0328 -0.0148  0.0177
  187loPI   GL2 2982   8.826   5.767   9.540  0.0134 -0.2898 -0.0156
  187loPI   C1A 2983   8.988   5.384   9.031 -0.1345 -0.0151  0.0615
  187loPI   C2A 2984   9.247   5.421   8.692 -0.4091 -0.0957  0.2037
  187loPI   C3A 2985   9.246   5.397   8.293 -0.1028 -0.0048  0.1704
  187loPI   C4A 2986   9.412   5.133   7.994  0.0348  0.0454 -0.2083
  187loPI   C5A 2987   9.480   4.961   7.544 -0.0830 -0.4461 -0.1220
  187loPI   C6A 2988   9.581   4.875   7.097  0.1298  0.2946 -0.0237
  187loPI   C1B 2989   8.747   5.879   9.042  0.0960 -0.0790 -0.1661
  187loPI   C2B 2990   8.826   5.766   8.590  0.2846  0.0867  0.0813
  187loPI   C3B 2991   8.854   5.760   8.208 -0.0861  0.0608 -0.0279
  187loPI   C4B 2992   9.183   5.587   7.817  0.0563  0.1098 -0.2191
  188loPI    C1 2993   2.719   4.807  10.242 -0.1064  0.0020 -0.0279
  188loPI    C2 2994   2.430   4.894  10.504  0.0442 -0.0208  0.1473
  188loPI    C3 2995   2.639   4.555  10.541  0.2903  0.1332  0.1965
  188loPI   PO4 2996   2.570   4.782  10.062  0.4884  0.0352  0.1759
  188loPI   GL1 2997   2.678   4.699   9.647 -0.2987  0.1710 -0.2384
  188loPI   GL2 2998   2.760   4.358   9.646 -0.1729  0.2764  0.4518
  188loPI   C1A 2999   2.534   4.874   9.168 -0.4087  0.1485  0.0344
  188loPI   C2A 3000   2.603   4.822   8.745 -0.2346 -0.0435  0.0506
  188loPI   C3A 3001   2.662   4.961   8.336 -0.0189 -0.0648 -0.1389
  188loPI   C4A 3002   2.863   4.773   7.904 -0.1330  0.1796 -0.4620
  188loPI   C5A 3003   2.844   4.507   7.558 -0.1453  0.2504 -0.0021
  188loPI   C6A 3004   2.401   4.542   7.452 -0.1609  0.1319  0.2346
  188loPI   C1B 3005   2.787   4.470   9.173 -0.1948 -0.0042  0.0290
  188loPI   C2B 3006   2.869   4.246   8.696  0.0376 -0.2071 -0.0352
  188loPI   C3B 3007   3.152   3.943   8.462 -0.0688  0.0331 -0.2746
  188loPI   C4B 3008   3.253   3.669   8.785  0.1517  0.2893 -0.0181
  189loPI    C1 3009   5.908  11.845   9.706  0.0912  0.2665 -0.1991
  189loPI    C2 3010   5.646  12.148   9.722 -0.0633  0.1159  0.3565
  189loPI    C3 3011   5.618  11.846   9.982  0.1654 -0.3206 -0.1080
  189loPI   PO4 3012   6.135  11.974   9.615 -0.1088 -0.1809  0.2080
  189loPI   GL1 3013   6.493  11.897   9.467 -0.0693 -0.1982 -0.1544
  189loPI   GL2 3014   6.326  11.803   9.183  0.4065 -0.2159 -0.2035
  189loPI   C1A 3015   6.914  11.875   9.183  0.0596  0.0913 -0.4360
  189loPI   C2A 3016   6.998  11.874   8.773  0.2198  0.1762 -0.3526
  189loPI   C3A 3017   7.179  11.752   8.345  0.0682  0.2749  0.1762
  189loPI   C4A 3018   7.193  11.948   7.996  0.0730 -0.1325 -0.1104
  189loPI   C5A 3019   6.891  11.861   7.613 -0.0598 -0.2725 -0.0066
  189loPI   C6A 3020   6.666  11.934   7.245  0.0741  0.0617  0.0057
  189loPI   C1B 3021   6.022  11.782   8.831  0.1738 -0.0001  0.0834
  189loPI   C2B 3022   5.918  11.686   8.448  0.1715 -0.2153  0.1409
  189loPI   C3B 3023   5.900  11.635   8.007  0.4591  0.1219  0.2581
  189loPI   C4B 3024   5.408  11.720   7.790 -0.2461 -0.2570 -0.3235
  190loPI    C1 3025  11.856   8.770  10.369 -0.1189  0.0848  0.0952
  190loPI    C2 3026  11.599   9.006  10.565  0.1331  0.2490  0.2325
  190loPI    C3 3027  11.785   8.709  10.758 -0.0703  0.0290  0.0955
  190loPI   PO4 3028  11.752   8.906  10.057 -0.2363  0.1442  0.0177
  190loPI   GL1 3029  11.635   8.859   9.691 -0.0969  0.2651 -0.2377
  190loPI   GL2 3030  11.228   8.773   9.734  0.0559 -0.1624 -0.0663
  190loPI   C1A 3031  11.702   9.037   9.295  0.2687 -0.0882  0.2825
  190loPI   C2A 3032  11.888   9.088   8.821 -0.0676  0.1384 -0.0702
  190loPI   C3A 3033  12.212   9.051   8.516 -0.1227 -0.0504  0.1342
  190loPI   C4A 3034  12.192   9.019   8.049  0.0397 -0.1603  0.0084
  190loPI   C5A 3035  12.085   9.277   7.640 -0.1205 -0.2967 -0.0669
  190loPI   C6A 3036  11.798   9.158   7.357 -0.3212  0.2910 -0.0484
  190loPI   C1B 3037  11.180   8.826   9.274 -0.1576  0.1061  0.1529
  190loPI   C2B 3038  11.319   8.852   8.813  0.1372 -0.1448  0.1602
  190loPI   C3B 3039  11.338   8.710   8.374  0.2050  0.4085 -0.0101
  190loPI   C4B 3040  11.462   8.915   7.955 -0.0340  0.3491  0.1251
  191loPI    C1 3041   2.390  13.835  10.170  0.1255  0.0692 -0.0514
  191loPI    C2 3042   2.113  13.816  10.457  0.2604 -0.3331  0.0588
  191loPI    C3 3043   2.271  14.169  10.355 -0.3254 -0.0890 -0.0446
  191loPI   PO4 3044   2.304  13.621  10.018 -0.0229  0.0871  0.1320
  191loPI   GL1 3045   2.228  13.434   9.571 -0.1167  0.0055 -0.0643
  191loPI   GL2 3046   1.989  13.662   9.570  0.1430 -0.2554  0.1167
  191loPI   C1A 3047   2.334  13.443   9.137 -0.2918 -0.3725 -0.2586
  191loPI   C2A 3048   2.328  13.091   8.798 -0.1676 -0.2251  0.3952
  191loPI   C3A 3049   2.455  12.796   8.768  0.0976  0.1463 -0.0225
  191loPI   C4A 3050   2.677  12.540   8.511  0.1782 -0.2653 -0.1267
  191loPI   C5A 3051   2.678  12.176   8.212  0.1477  0.3782  0.1177
  191loPI   C6A 3052   2.525  11.914   7.796 -0.0765  0.1287 -0.0499
  191loPI   C1B 3053   2.278  13.911   9.325  0.1477  0.0311 -0.2969
  191loPI   C2B 3054   2.325  14.010   8.951 -0.0277 -0.0425 -0.0343
  191loPI   C3B 3055   2.427  14.096   8.581 -0.1212  0.1770  0.2992
  191loPI   C4B 3056   2.398  13.964   8.134 -0.2003  0.2117  0.0811
  192loPI    C1 3057   5.732  17.178  10.224  0.1116  0.2018 -0.0218
  192loPI    C2 3058   5.588  17.296  10.578  0.0559  0.1078 -0.0127
  192loPI    C3 3059   5.948  17.123  10.556 -0.0756 -0.1784  0.0422
  192loPI   PO4 3060   5.648  17.255  10.039 -0.3392  0.1271 -0.0654
  192loPI   GL1 3061   5.800  17.345   9.596 -0.0208 -0.1899  0.0430
  192loPI   GL2 3062   6.042  17.157   9.576 -0.1354  0.2993 -0.0053
  192loPI   C1A 3063   5.609  17.510   9.275  0.4217  0.0267  0.1245
  192loPI   C2A 3064   5.259  17.394   9.051 -0.1176 -0.0085 -0.2354
  192loPI   C3A 3065   5.221  17.155   8.613  0.0815 -0.2225 -0.1447
  192loPI   C4A 3066   5.385  16.900   8.289 -0.2095 -0.0024 -0.1478
  192loPI   C5A 3067   5.319  16.928   7.816  0.0757  0.0296  0.3539
  192loPI   C6A 3068   5.697  16.987   7.550 -0.0138  0.0516  0.2064
  192loPI   C1B 3069   5.902  17.107   9.135  0.0538 -0.0944 -0.1924
  192loPI   C2B 3070   5.700  17.313   8.792  0.0230 -0.1145  0.3187
  192loPI   C3B 3071   5.488  17.479   8.400 -0.2815 -0.0749  0.0015
  192loPI   C4B 3072   5.259  17.365   8.050  0.0967 -0.0080  0.1263
  193loPI    C1 3073   3.591   2.686  10.081  0.1545  0.0314 -0.2148
  193loPI    C2 3074   3.899   2.942  10.085 -0.0038  0.2247 -0.2522
  193loPI    C3 3075   3.523   3.080  10.088 -0.0959 -0.0132  0.2785
  193loPI   PO4 3076   3.622   2.442   9.872  0.0607 -0.3341 -0.2609
  193loPI   GL1 3077   3.525   2.311   9.477 -0.0452 -0.2722 -0.0298
  193loPI   GL2 3078   3.667   2.276   9.126  0.4302 -0.0998 -0.2586
  193loPI   C1A 3079   3.197   2.450   9.056 -0.0418 -0.1772 -0.2635
  193loPI   C2A 3080   3.052   2.406   8.690  0.0150  0.0279 -0.1336
  193loPI   C3A 3081   2.854   2.551   8.358 -0.0472 -0.2036  0.4216
  193loPI   C4A 3082   2.734   2.713   7.939  0.1474 -0.0890 -0.1415
  193loPI   C5A 3083   2.561   2.939   7.614  0.2664  0.4153  0.0896
  193loPI   C6A 3084   2.097   2.718   7.524  0.0095 -0.2159  0.2488
  193loPI   C1B 3085   3.536   2.208   8.739  0.5392 -0.2438 -0.1512
  193loPI   C2B 3086   3.679   2.135   8.320 -0.1066  0.0458 -0.2793
  193loPI   C3B 3087   3.857   2.361   8.093  0.2055 -0.1970  0.2750
  193loPI   C4B 3088   3.611   2.644   7.823 -0.1834  0.2489  0.2133
  194loPI    C1 3089   3.840   5.226  10.085 -0.1647 -0.1802 -0.1613
  194loPI    C2 3090   3.871   4.980  10.398  0.2423  0.2835  0.1787
  194loPI    C3 3091   3.677   5.327  10.436 -0.1280  0.1296 -0.2302
  194loPI   PO4 3092   3.733   4.998   9.843 -0.1246  0.1427  0.1215
  194loPI   GL1 3093   3.779   4.659   9.498 -0.0642 -0.0796  0.2097
  194loPI   GL2 3094   3.667   4.869   9.272  0.1726  0.1336 -0.1290
  194loPI   C1A 3095   4.170   4.715   9.157  0.3702 -0.2433  0.4035
  194loPI   C2A 3096   4.371   4.734   8.736 -0.0234 -0.1944  0.1218
  194loPI   C3A 3097   4.477   4.874   8.355 -0.0252  0.0134  0.0396
  194loPI   C4A 3098   4.438   4.651   7.995  0.3779  0.1680 -0.0589
  194loPI   C5A 3099   4.270   4.798   7.612 -0.5268 -0.2768 -0.1664
  194loPI   C6A 3100   4.124   4.718   7.117  0.0424 -0.4252  0.3272
  194loPI   C1B 3101   3.504   4.987   8.970 -0.1961  0.1420 -0.3334
  194loPI   C2B 3102   3.625   5.181   8.670  0.1304 -0.0805 -0.1284
  194loPI   C3B 3103   3.698   5.261   8.262  0.0841 -0.0763  0.2324
  194loPI   C4B 3104   3.830   5.248   7.890 -0.3098 -0.5226  0.2189
  195loPI    C1 3105  19.147   9.713  10.273  0.3061  0.4073 -0.3844
  195loPI    C2 3106  19.236   9.767  10.660 -0.2064 -0.0505 -0.1900
  195loPI    C3 3107  18.995  10.025  10.472 -0.1305  0.0532 -0.1457
  195loPI   PO4 3108  19.235   9.604  10.094  0.0413 -0.0774  0.3480
  195loPI   GL1 3109  19.304   9.706   9.646  0.0645  0.1381  0.0136
  195loPI   GL2 3110  18.978   9.551   9.586  0.0295  0.0278  0.1176
  195loPI   C1A 3111  19.647   9.733   9.384  0.0680 -0.1186 -0.0515
  195loPI   C2A 3112  19.629   9.691   8.991 -0.1890  0.3605 -0.0608
  195loPI   C3A 3113  19.659   9.681   8.713  0.0846 -0.4415  0.3457
  195loPI   C4A 3114  19.575   9.615   8.305 -0.2165  0.2171  0.1771
  195loPI   C5A 3115  19.586   9.486   7.874 -0.0516 -0.0378  0.2490
  195loPI   C6A 3116  19.179   9.312   7.819  0.0117  0.2154  0.2160
  195loPI   C1B 3117  18.886   9.865   9.273 -0.3150 -0.0927 -0.1808
  195loPI   C2B 3118  18.817  10.072   8.819 -0.3053  0.1974 -0.0142
  195loPI   C3B 3119  18.799  10.332   8.583 -0.0949  0.3830 -0.0684
  195loPI   C4B 3120  18.693  10.694   8.352 -0.0451 -0.5973  0.2381
  196loPI    C1 3121  12.646   4.726  10.332 -0.1885  0.1052  0.0440
  196loPI    C2 3122  13.014   4.873  10.391  0.0613 -0.3396 -0.3388
  196loPI    C3 3123  12.844   4.641  10.670  0.1901 -0.3681 -0.2831
  196loPI   PO4 3124  12.612   4.790  10.109 -0.0341  0.1234 -0.2474
  196loPI   GL1 3125  12.798   4.684   9.727 -0.2096  0.1515 -0.0249
  196loPI   GL2 3126  13.091   4.803   9.565  0.0094 -0.5230 -0.0687
  196loPI   C1A 3127  12.561   4.724   9.390  0.2646 -0.0838  0.0581
  196loPI   C2A 3128  12.303   4.983   9.189  0.3397 -0.2615 -0.5368
  196loPI   C3A 3129  12.000   5.269   8.919  0.0244 -0.1230  0.1608
  196loPI   C4A 3130  11.663   5.473   8.776 -0.2201  0.1084  0.0840
  196loPI   C5A 3131  11.525   5.622   8.359  0.1288 -0.1397  0.0288
  196loPI   C6A 3132  11.248   5.435   8.158  0.0825 -0.1131 -0.1236
  196loPI   C1B 3133  12.988   4.500   9.245 -0.0539  0.3380  0.0621
  196loPI   C2B 3134  13.063   4.385   8.839  0.0952 -0.0445 -0.0786
  196loPI   C3B 3135  13.057   4.558   8.359  0.1524 -0.0321 -0.1155
  196loPI   C4B 3136  13.078   4.980   8.185  0.0971 -0.0118 -0.0099
  197loPI    C1 3137  11.912   2.417  10.008 -0.1221  0.2895 -0.1473
  197loPI    C2 3138  11.556   2.492  10.176 -0.0921  0.1493 -0.0184
  197loPI    C3 3139  11.764   2.167  10.283 -0.0718  0.0560 -0.3290
  197loPI   PO4 3140  11.859   2.470   9.799  0.1141 -0.4277 -0.2109
  197loPI   GL1 3141  12.064   2.804   9.481 -0.1693 -0.2294  0.0855
  197loPI   GL2 3142  11.899   2.538   9.243  0.0010  0.0570 -0.1200
  197loPI   C1A 3143  12.028   3.080   9.161  0.0958 -0.1478  0.1948
  197loPI   C2A 3144  12.088   3.106   8.688 -0.0209  0.1354  0.1419
  197loPI   C3A 3145  12.005   3.185   8.321  0.2382 -0.1600 -0.0588
  197loPI   C4A 3146  12.065   3.307   7.957  0.0558  0.1314  0.1474
  197loPI   C5A 3147  12.139   3.750   7.736  0.2255 -0.0461 -0.0686
  197loPI   C6A 3148  12.234   3.930   7.262  0.1942 -0.1309  0.0984
  197loPI   C1B 3149  12.230   2.679   8.970 -0.0112  0.1551  0.4030
  197loPI   C2B 3150  12.336   2.662   8.606  0.1221  0.0873 -0.0774
  197loPI   C3B 3151  12.185   2.681   8.303 -0.1163  0.2429  0.0539
  197loPI   C4B 3152  12.431   2.422   8.125  0.0048 -0.0855 -0.0362
  198loPI    C1 3153  18.295  16.233   9.938  0.0019 -0.0892 -0.0853
  198loPI    C2 3154  18.190  15.963  10.214  0.0279  0.1417  0.1556
  198loPI    C3 3155  18.185  16.353  10.304  0.3025  0.2042 -0.0857
  198loPI   PO4 3156  18.512  16.109   9.802  0.0597  0.0800  0.0814
  198loPI   GL1 3157  18.366  15.801   9.510  0.0781  0.0608  0.2181
  198loPI   GL2 3158  18.663  15.612   9.712 -0.1597 -0.0245  0.1120
  198loPI   C1A 3159  18.467  16.066   9.087  0.0946 -0.2749  0.2935
  198loPI   C2A 3160  18.054  16.369   8.984  0.0755  0.0750  0.0438
  198loPI   C3A 3161  17.905  16.519   8.580 -0.1065  0.6735  0.3811
  198loPI   C4A 3162  17.720  16.751   8.203  0.1132  0.3115  0.1350
  198loPI   C5A 3163  17.668  16.847   7.808  0.0769 -0.1559 -0.2245
  198loPI   C6A 3164  17.717  16.466   7.467 -0.2462 -0.1801  0.1519
  198loPI   C1B 3165  18.976  15.696   9.370  0.1532 -0.3530 -0.1930
  198loPI   C2B 3166  19.065  15.584   9.081  0.0443 -0.2863  0.0394
  198loPI   C3B 3167  19.164  15.459   8.694 -0.2909 -0.1552 -0.1811
  198loPI   C4B 3168  19.123  15.595   8.303  0.2133  0.1875 -0.2985
  199loPI    C1 3169   4.100  17.846  10.029 -0.0806 -0.1354  0.1401
  199loPI    C2 3170   4.291  17.542   9.854 -0.0984 -0.1438  0.1353
  199loPI    C3 3171   4.327  17.600  10.248  0.1565  0.0334  0.0885
  199loPI   PO4 3172   4.069  17.982   9.796 -0.1435  0.0052 -0.1201
  199loPI   GL1 3173   3.996  18.005   9.441  0.0961  0.0744  0.0989
  199loPI   GL2 3174   4.232  17.804   9.364 -0.1341  0.1469  0.0799
  199loPI   C1A 3175   3.751  17.806   9.108 -0.1812  0.0951  0.0557
  199loPI   C2A 3176   3.835  17.567   8.735 -0.0274 -0.0665 -0.0270
  199loPI   C3A 3177   3.937  17.431   8.271  0.0145  0.4586  0.1483
  199loPI   C4A 3178   4.179  17.229   7.968  0.1817  0.2374  0.0297
  199loPI   C5A 3179   4.296  17.047   7.639  0.0789 -0.2131  0.1742
  199loPI   C6A 3180   4.451  16.622   7.643 -0.1339  0.0437  0.2274
  199loPI   C1B 3181   4.265  17.845   8.974  0.0395  0.0190  0.0914
  199loPI   C2B 3182   4.215  17.804   8.475 -0.2560 -0.1852  0.2682
  199loPI   C3B 3183   3.930  17.956   8.157  0.1851 -0.2900 -0.2624
  199loPI   C4B 3184   3.725  18.114   7.705  0.2950 -0.0068  0.0738
  200loPI    C1 3185   5.608   3.902   9.703 -0.1167 -0.0612 -0.0036
  200loPI    C2 3186   5.806   3.794  10.033 -0.1928 -0.0110  0.0588
  200loPI    C3 3187   5.973   4.048   9.773 -0.0914 -0.1294  0.0077
  200loPI   PO4 3188   5.398   3.748   9.502  0.5015 -0.1961 -0.1408
  200loPI   GL1 3189   5.461   3.594   9.287 -0.0306 -0.1839  0.0824
  200loPI   GL2 3190   5.856   3.767   9.236  0.3840  0.3275 -0.2269
  200loPI   C1A 3191   5.650   3.643   8.801 -0.0574 -0.0929 -0.2246
  200loPI   C2A 3192   5.983   3.683   8.514  0.2437  0.0247 -0.0887
  200loPI   C3A 3193   6.323   3.677   8.199 -0.0334 -0.4046  0.1608
  200loPI   C4A 3194   6.491   3.866   7.844  0.5083  0.0681 -0.1611
  200loPI   C5A 3195   6.715   3.960   7.484 -0.0787  0.1458 -0.3030
  200loPI   C6A 3196   7.037   4.128   7.255  0.1697 -0.2884 -0.1393
  200loPI   C1B 3197   5.985   4.063   8.842 -0.1056 -0.0862 -0.0423
  200loPI   C2B 3198   5.891   4.123   8.336 -0.3010  0.2025  0.3227
  200loPI   C3B 3199   5.866   4.302   7.992  0.1412  0.2668 -0.0166
  200loPI   C4B 3200   5.689   4.270   7.577 -0.1131 -0.1726 -0.0640
  201loPI    C1 3201   2.395   8.596  10.376 -0.0824  0.1916 -0.0616
  201loPI    C2 3202   2.061   8.747  10.537 -0.1224 -0.0881  0.1245
  201loPI    C3 3203   2.313   8.533  10.763  0.1211  0.0149 -0.0455
  201loPI   PO4 3204   2.411   8.587  10.139  0.0844 -0.2128 -0.0692
  201loPI   GL1 3205   2.322   8.326   9.769 -0.0278  0.0546  0.1437
  201loPI   GL2 3206   2.515   8.561   9.679  0.2640  0.0318  0.1875
  201loPI   C1A 3207   2.299   8.077   9.406  0.1963  0.2801 -0.1897
  201loPI   C2A 3208   2.518   7.833   9.199  0.0661 -0.2042  0.0057
  201loPI   C3A 3209   2.803   7.935   8.803  0.3618  0.2165 -0.1704
  201loPI   C4A 3210   3.015   8.087   8.608 -0.0218 -0.1832 -0.1202
  201loPI   C5A 3211   3.038   8.246   8.324  0.1584 -0.1414  0.1265
  201loPI   C6A 3212   3.195   8.630   8.000 -0.0619  0.2028  0.0118
  201loPI   C1B 3213   2.160   8.609   9.358  0.0171  0.0336  0.2011
  201loPI   C2B 3214   2.125   8.755   8.955  0.0224 -0.0181  0.0350
  201loPI   C3B 3215   2.157   8.761   8.540  0.2776 -0.1469  0.0926
  201loPI   C4B 3216   2.181   8.889   8.170  0.2216 -0.0847 -0.2816
  202loPI    C1 3217   6.806   1.752  10.164  0.0456 -0.1329 -0.3703
  202loPI    C2 3218   7.167   1.810  10.326 -0.0150 -0.0248 -0.2722
  202loPI    C3 3219   6.850   1.747  10.561 -0.0899  0.0537 -0.3515
  202loPI   PO4 3220   6.839   1.619   9.985  0.3122  0.0948 -0.0243
  202loPI   GL1 3221   7.088   1.467   9.557 -0.1599 -0.1567 -0.2071
  202loPI   GL2 3222   6.949   1.765   9.391  0.0550 -0.1522 -0.3042
  202loPI   C1A 3223   7.439   1.714   9.262  0.0142  0.1346 -0.0054
  202loPI   C2A 3224   7.539   1.672   8.915  0.0977  0.0534  0.2027
  202loPI   C3A 3225   7.625   1.874   8.582 -0.3074 -0.1313  0.0189
  202loPI   C4A 3226   7.621   2.191   8.342  0.0079  0.1169  0.1388
  202loPI   C5A 3227   7.405   2.177   7.928  0.0212 -0.1012  0.2379
  202loPI   C6A 3228   7.376   2.125   7.443 -0.0637  0.0680 -0.3636
  202loPI   C1B 3229   7.002   1.555   8.964 -0.0120  0.1146  0.1899
  202loPI   C2B 3230   7.125   1.623   8.564 -0.0128 -0.2148 -0.1159
  202loPI   C3B 3231   7.117   1.864   8.207  0.1915  0.2043 -0.1204
  202loPI   C4B 3232   7.047   1.913   7.707  0.0189  0.2524  0.0125
  203loPI    C1 3233   7.371   6.765  10.140  0.1920 -0.1174 -0.0871
  203loPI    C2 3234   7.428   7.081  10.379 -0.0577 -0.1662  0.0402
  203loPI    C3 3235   7.166   7.102  10.077 -0.0450 -0.2381  0.0239
  203loPI   PO4 3236   7.597   6.726  10.020  0.0948 -0.0754  0.1840
  203loPI   GL1 3237   7.663   6.999   9.584  0.0703 -0.2592  0.0703
  203loPI   GL2 3238   7.664   6.597   9.572  0.1205  0.0364 -0.3831
  203loPI   C1A 3239   7.785   6.907   9.152  0.1170 -0.1875  0.0324
  203loPI   C2A 3240   7.749   6.938   8.653 -0.2770  0.0784  0.0977
  203loPI   C3A 3241   7.738   6.999   8.250 -0.1287  0.0768 -0.0154
  203loPI   C4A 3242   7.788   7.005   7.818 -0.1297  0.1205 -0.0056
  203loPI   C5A 3243   7.834   6.902   7.410  0.1351  0.3182  0.0008
  203loPI   C6A 3244   8.003   6.692   7.113 -0.0050  0.1969  0.0590
  203loPI   C1B 3245   7.639   6.282   9.213  0.2164 -0.0514 -0.0156
  203loPI   C2B 3246   7.539   6.459   8.818 -0.1349  0.1374  0.3993
  203loPI   C3B 3247   7.595   6.301   8.361  0.0810 -0.4134 -0.2118
  203loPI   C4B 3248   7.430   6.118   7.941 -0.1179  0.0678 -0.0239
  204loPI    C1 3249  17.835  11.727  10.294  0.1031 -0.3622 -0.0017
  204loPI    C2 3250  17.642  11.556   9.988 -0.3444  0.0061  0.0642
  204loPI    C3 3251  17.456  11.609  10.338  0.0380 -0.0617  0.2840
  204loPI   PO4 3252  17.934  11.933  10.208 -0.0244 -0.2364  0.0114
  204loPI   GL1 3253  17.980  12.128   9.870 -0.1729  0.0543  0.4541
  204loPI   GL2 3254  17.813  11.885   9.663 -0.1387  0.0355  0.0741
  204loPI   C1A 3255  17.731  12.390   9.597  0.1000  0.0042  0.0055
  204loPI   C2A 3256  17.614  12.664   9.097  0.0218  0.2418  0.2037
  204loPI   C3A 3257  17.875  12.556   8.816  0.0137  0.3394 -0.0341
  204loPI   C4A 3258  17.835  12.322   8.509 -0.0499 -0.0844 -0.1118
  204loPI   C5A 3259  17.678  12.187   8.173 -0.1006  0.0931  0.2686
  204loPI   C6A 3260  17.814  12.009   7.796 -0.1118 -0.2158 -0.0356
  204loPI   C1B 3261  17.778  12.018   9.266  0.1080  0.0823 -0.1181
  204loPI   C2B 3262  17.649  12.062   8.895 -0.1944 -0.0159  0.0270
  204loPI   C3B 3263  17.355  12.270   8.668 -0.3780 -0.1211 -0.1327
  204loPI   C4B 3264  17.298  12.446   8.383 -0.1828  0.3053 -0.1919
  205loPI    C1 3265  11.004   8.289  10.320 -0.0210 -0.0870 -0.0460
  205loPI    C2 3266  10.676   8.096  10.197 -0.0240 -0.1548  0.0667
  205loPI    C3 3267  10.739   8.154  10.588  0.0153  0.0057  0.0372
  205loPI   PO4 3268  11.191   8.290  10.161 -0.0438  0.2415 -0.2469
  205loPI   GL1 3269  11.258   8.278   9.767  0.3867  0.4323 -0.1276
  205loPI   GL2 3270  11.055   8.369   9.601  0.1457  0.0080 -0.0259
  205loPI   C1A 3271  11.404   7.862   9.401 -0.0503  0.0591  0.0853
  205loPI   C2A 3272  11.468   7.743   8.964  0.2699 -0.3872 -0.2671
  205loPI   C3A 3273  11.340   7.763   8.563  0.2241  0.1202 -0.1599
  205loPI   C4A 3274  11.408   7.811   8.126  0.0881  0.0125  0.1571
  205loPI   C5A 3275  11.303   8.198   7.936  0.2361 -0.0162  0.1269
  205loPI   C6A 3276  11.473   8.308   7.502  0.1566  0.2408 -0.2775
  205loPI   C1B 3277  11.252   8.284   9.239  0.3538  0.1418  0.0427
  205loPI   C2B 3278  11.304   8.239   8.747 -0.0736  0.0923 -0.2352
  205loPI   C3B 3279  11.601   8.129   8.411  0.0349 -0.1208 -0.2810
  205loPI   C4B 3280  11.805   8.247   8.119 -0.1622  0.0678  0.0868
  206loPI    C1 3281  17.472   9.969  10.246  0.0343 -0.0216 -0.0447
  206loPI    C2 3282  17.681   9.741  10.499 -0.0385  0.1707  0.1915
  206loPI    C3 3283  17.842  10.076  10.352  0.0436  0.0050 -0.1031
  206loPI   PO4 3284  17.460   9.845  10.033  0.1402 -0.0509  0.4380
  206loPI   GL1 3285  17.522   9.830   9.636 -0.0804 -0.1437 -0.1598
  206loPI   GL2 3286  17.615   9.523   9.573  0.4009  0.0398  0.2673
  206loPI   C1A 3287  17.393   9.911   9.188 -0.0689  0.0203 -0.1947
  206loPI   C2A 3288  17.425   9.663   8.685 -0.2256 -0.2313  0.0243
  206loPI   C3A 3289  17.255   9.724   8.310  0.1044 -0.0864  0.1685
  206loPI   C4A 3290  16.955   9.551   7.960  0.0433 -0.0113  0.0323
  206loPI   C5A 3291  16.607   9.517   7.672  0.0507 -0.3429 -0.1774
  206loPI   C6A 3292  16.168   9.659   7.437  0.1467 -0.1151  0.2212
  206loPI   C1B 3293  17.814   9.454   9.129 -0.0037 -0.0684 -0.2278
  206loPI   C2B 3294  17.856   9.391   8.696 -0.3216  0.2472  0.1776
  206loPI   C3B 3295  17.705   9.449   8.264  0.1120 -0.0398 -0.0669
  206loPI   C4B 3296  17.650   9.881   7.975  0.0175  0.0576  0.2190
  207loPI    C1 3297  10.227  16.440   9.821 -0.0113 -0.1667  0.0514
  207loPI    C2 3298  10.259  16.136  10.079  0.2786 -0.1016  0.0950
  207loPI    C3 3299  10.311  16.512  10.206 -0.0118 -0.0364  0.0274
  207loPI   PO4 3300  10.059  16.450   9.587 -0.0911 -0.3522 -0.1700
  207loPI   GL1 3301  10.081  16.675   9.216  0.2252 -0.0169 -0.1162
  207loPI   GL2 3302  10.276  16.833   9.368  0.0118 -0.2602 -0.2635
  207loPI   C1A 3303  10.116  16.546   8.766  0.2656  0.2564 -0.0243
  207loPI   C2A 3304  10.493  16.551   8.501  0.2610 -0.0159  0.0870
  207loPI   C3A 3305  10.793  16.563   8.098  0.3992 -0.3431 -0.0050
  207loPI   C4A 3306  10.787  16.574   7.661  0.0876 -0.0299 -0.1834
  207loPI   C5A 3307  10.484  16.295   7.551  0.1056  0.5312 -0.0237
  207loPI   C6A 3308  10.235  15.987   7.659  0.0837  0.1518  0.0008
  207loPI   C1B 3309  10.592  16.818   8.958  0.1160  0.2675 -0.1386
  207loPI   C2B 3310  10.799  16.956   8.590 -0.0818  0.0453 -0.0357
  207loPI   C3B 3311  10.724  17.084   8.196  0.3030 -0.0234 -0.0642
  207loPI   C4B 3312  10.391  17.119   7.994  0.2723  0.1017 -0.0858
  208loPI    C1 3313   1.625   3.502  10.333 -0.1472  0.0558 -0.0705
  208loPI    C2 3314   1.625   3.689  10.687  0.1846  0.1758 -0.1299
  208loPI    C3 3315   1.313   3.728  10.440 -0.0649  0.0626  0.1613
  208loPI   PO4 3316   1.851   3.570  10.207  0.1429 -0.0902  0.1110
  208loPI   GL1 3317   1.937   3.733   9.744  0.0279 -0.0728 -0.1817
  208loPI   GL2 3318   1.986   3.425   9.641  0.1414 -0.0309 -0.4055
  208loPI   C1A 3319   2.007   3.841   9.368 -0.1431 -0.1200 -0.0267
  208loPI   C2A 3320   2.138   3.815   8.889 -0.1410 -0.1404 -0.0351
  208loPI   C3A 3321   2.148   3.817   8.469 -0.1433 -0.1884  0.1100
  208loPI   C4A 3322   2.360   3.694   8.126 -0.1468 -0.0846  0.2459
  208loPI   C5A 3323   2.377   3.616   7.734  0.0001  0.0472  0.0615
  208loPI   C6A 3324   2.187   3.252   7.477  0.1589  0.0153  0.1996
  208loPI   C1B 3325   2.273   3.314   9.228 -0.2516 -0.2408 -0.1309
  208loPI   C2B 3326   2.201   3.291   8.828 -0.0427  0.4165 -0.1247
  208loPI   C3B 3327   2.205   3.259   8.374 -0.0666 -0.0398 -0.0055
  208loPI   C4B 3328   2.106   3.258   7.969 -0.0921  0.2241  0.0466
  209loPI    C1 3329   7.095  16.896  10.066  0.0171  0.0473 -0.1585
  209loPI    C2 3330   7.258  16.634   9.810  0.1703 -0.1000  0.0854
  209loPI    C3 3331   7.032  16.504  10.114  0.1690  0.0576  0.1534
  209loPI   PO4 3332   6.993  17.063   9.863  0.1121 -0.1628  0.0783
  209loPI   GL1 3333   7.035  17.366   9.508 -0.3303  0.0442  0.1243
  209loPI   GL2 3334   7.414  17.425   9.406 -0.0730 -0.1053  0.1562
  209loPI   C1A 3335   7.115  17.229   9.067 -0.0041  0.1319 -0.1930
  209loPI   C2A 3336   6.793  17.152   8.771 -0.0718  0.0417  0.0730
  209loPI   C3A 3337   6.688  16.984   8.312 -0.0956 -0.2685  0.3680
  209loPI   C4A 3338   6.894  16.883   7.882 -0.5927 -0.0743 -0.0264
  209loPI   C5A 3339   7.177  17.110   7.535 -0.3246  0.0648  0.1068
  209loPI   C6A 3340   7.334  16.889   7.060  0.3018 -0.4344  0.2072
  209loPI   C1B 3341   7.407  17.736   9.134 -0.1635  0.3015 -0.3039
  209loPI   C2B 3342   7.311  17.579   8.726 -0.2095  0.1834 -0.1755
  209loPI   C3B 3343   7.322  17.631   8.330  0.2699  0.1685 -0.2760
  209loPI   C4B 3344   7.162  17.906   8.023 -0.3155 -0.1845 -0.2602
  210loPI    C1 3345   7.973  16.632   9.852 -0.1199  0.0808  0.0417
  210loPI    C2 3346   7.980  16.554  10.244  0.0473  0.0882  0.0412
  210loPI    C3 3347   7.953  16.932  10.116  0.0620  0.0907  0.0458
  210loPI   PO4 3348   7.758  16.586   9.789 -0.2082  0.0219 -0.0882
  210loPI   GL1 3349   7.508  16.655   9.403 -0.1363  0.1364 -0.1790
  210loPI   GL2 3350   7.535  16.839   9.145  0.1431  0.2774 -0.0036
  210loPI   C1A 3351   7.479  16.344   9.080  0.1803 -0.0425 -0.2951
  210loPI   C2A 3352   7.581  16.441   8.661  0.0654  0.0213 -0.3083
  210loPI   C3A 3353   7.543  16.716   8.269  0.2426  0.0238 -0.0516
  210loPI   C4A 3354   7.554  16.977   7.836 -0.2398 -0.0190 -0.3181
  210loPI   C5A 3355   7.989  17.229   7.810 -0.1717  0.1763 -0.0498
  210loPI   C6A 3356   8.397  17.477   7.773 -0.1768  0.3938 -0.1678
  210loPI   C1B 3357   7.412  17.026   8.707 -0.2175  0.1159  0.0974
  210loPI   C2B 3358   7.156  17.092   8.385 -0.2739 -0.2489  0.1198
  210loPI   C3B 3359   7.188  17.339   8.007 -0.0506 -0.0518  0.1486
  210loPI   C4B 3360   7.497  17.506   7.730  0.2533  0.0723 -0.0793
  211loPI    C1 3361   2.739   0.038   9.876  0.2001 -0.0522 -0.0785
  211loPI    C2 3362   2.494  -0.010  10.189  0.1783 -0.2864 -0.1300
  211loPI    C3 3363   2.868   0.118  10.246  0.0333  0.1176 -0.0553
  211loPI   PO4 3364   2.616   0.204   9.721 -0.1113 -0.0185 -0.1862
  211loPI   GL1 3365   2.741   0.166   9.322 -0.1282 -0.1538 -0.0303
  211loPI   GL2 3366   2.923   0.563   9.296  0.2352  0.0124 -0.1670
  211loPI   C1A 3367   2.527   0.305   8.991 -0.2821 -0.1949  0.1769
  211loPI   C2A 3368   2.516   0.236   8.554  0.1237  0.1651  0.1147
  211loPI   C3A 3369   2.361  -0.067   8.239  0.0229 -0.1102  0.3078
  211loPI   C4A 3370   2.350  -0.168   7.765  0.2366 -0.0943 -0.3558
  211loPI   C5A 3371   2.468  -0.098   7.329 -0.2782 -0.0622 -0.2514
  211loPI   C6A 3372   2.800  -0.139   6.937 -0.3924  0.1188  0.1557
  211loPI   C1B 3373   2.939   0.582   8.821  0.0957  0.1441 -0.0425
  211loPI   C2B 3374   2.769   0.612   8.409 -0.1633 -0.1058 -0.1353
  211loPI   C3B 3375   2.694   0.669   7.960 -0.0296  0.0611 -0.3963
  211loPI   C4B 3376   2.595   0.589   7.474  0.0611  0.3650  0.1953
  212loPI    C1 3377   8.093   7.553  10.168  0.0018  0.0303 -0.2347
  212loPI    C2 3378   8.286   7.869  10.319  0.0421 -0.1693  0.1430
  212loPI    C3 3379   7.896   7.819  10.394 -0.0011 -0.1270 -0.0495
  212loPI   PO4 3380   8.176   7.568   9.971  0.2050  0.2849 -0.2499
  212loPI   GL1 3381   7.951   7.654   9.649  0.1584  0.0987  0.1551
  212loPI   GL2 3382   7.992   7.980   9.481  0.1035 -0.1204  0.2272
  212loPI   C1A 3383   7.715   7.447   9.362  0.2272 -0.3596 -0.0873
  212loPI   C2A 3384   7.738   7.414   8.912 -0.2726  0.0756 -0.2379
  212loPI   C3A 3385   7.787   7.438   8.504  0.0234 -0.2017 -0.0274
  212loPI   C4A 3386   7.994   7.472   8.242  0.1431 -0.0766 -0.2987
  212loPI   C5A 3387   8.382   7.380   7.921 -0.0802  0.0559 -0.2197
  212loPI   C6A 3388   8.679   7.182   7.637  0.1439  0.2312 -0.0605
  212loPI   C1B 3389   7.950   8.126   9.124  0.1237  0.0893  0.4100
  212loPI   C2B 3390   8.013   8.247   8.674 -0.3118 -0.2237 -0.1143
  212loPI   C3B 3391   8.339   8.518   8.335  0.1345  0.1399 -0.2033
  212loPI   C4B 3392   8.253   8.802   8.109 -0.0686 -0.3057 -0.0573
  213loPI    C1 3393   0.888  10.237  10.394 -0.0564  0.1218  0.0675
  213loPI    C2 3394   1.077  10.569  10.511  0.0970 -0.0057  0.1863
  213loPI    C3 3395   0.885  10.343  10.779  0.0025 -0.0199  0.1075
  213loPI   PO4 3396   0.819  10.296  10.100 -0.1332 -0.0562  0.1270
  213loPI   GL1 3397   0.454  10.429   9.809  0.1650  0.0344 -0.0305
  213loPI   GL2 3398   0.812  10.526   9.658  0.0883 -0.3527  0.0585
  213loPI   C1A 3399   0.144  10.258   9.469  0.1424  0.1769 -0.3598
  213loPI   C2A 3400   0.176  10.062   9.151  0.0649  0.0586 -0.1283
  213loPI   C3A 3401   0.011   9.710   8.891 -0.1264  0.0962  0.2070
  213loPI   C4A 3402   0.021   9.559   8.553  0.1794  0.3422  0.0662
  213loPI   C5A 3403  -0.244   9.301   8.229  0.0194  0.1002  0.1184
  213loPI   C6A 3404  -0.461   9.209   7.845 -0.0928 -0.1149 -0.0472
  213loPI   C1B 3405   0.720  10.609   9.171 -0.3750  0.1209  0.2082
  213loPI   C2B 3406   0.537  11.043   8.922 -0.0978  0.0766 -0.0496
  213loPI   C3B 3407   0.447  11.260   8.576 -0.0647  0.0090  0.2594
  213loPI   C4B 3408   0.158  11.386   8.303 -0.0779  0.1290  0.1839
  214loPI    C1 3409  16.749   1.122   9.881  0.1992  0.2038 -0.1598
  214loPI    C2 3410  16.708   1.428  10.134  0.1333  0.0615  0.0037
  214loPI    C3 3411  16.607   1.059  10.249  0.1643 -0.0148 -0.2091
  214loPI   PO4 3412  16.876   1.151   9.698  0.3005  0.1442  0.2372
  214loPI   GL1 3413  16.825   1.011   9.239  0.2146 -0.0549  0.4987
  214loPI   GL2 3414  17.076   1.258   9.240 -0.1964 -0.1294 -0.2545
  214loPI   C1A 3415  16.884   1.082   8.749 -0.1627  0.0817  0.0521
  214loPI   C2A 3416  17.121   1.435   8.538  0.0478 -0.0843  0.0967
  214loPI   C3A 3417  17.167   1.476   8.131 -0.1575 -0.2999  0.0140
  214loPI   C4A 3418  17.133   1.743   7.749 -0.0312 -0.0053  0.1423
  214loPI   C5A 3419  17.374   1.905   7.480 -0.1328 -0.1119  0.2164
  214loPI   C6A 3420  17.762   2.077   7.281  0.3303  0.0847  0.1882
  214loPI   C1B 3421  17.194   1.554   9.017 -0.0218  0.1507  0.0580
  214loPI   C2B 3422  17.120   1.864   8.801  0.0156  0.0125  0.2351
  214loPI   C3B 3423  17.075   1.938   8.365 -0.3509  0.0418 -0.1760
  214loPI   C4B 3424  17.125   2.159   8.015  0.2641 -0.3052  0.0251
  215loPI    C1 3425   6.306   8.913  10.120  0.0798 -0.1539 -0.2735
  215loPI    C2 3426   6.437   8.932   9.743  0.1753 -0.3160 -0.2497
  215loPI    C3 3427   6.602   9.163  10.025 -0.2651  0.2136 -0.4081
  215loPI   PO4 3428   6.013   8.871   9.995  0.1883  0.2433  0.1324
  215loPI   GL1 3429   5.857   9.008   9.612  0.0698  0.0293 -0.2598
  215loPI   GL2 3430   5.693   9.074   9.466  0.0193  0.1492  0.2735
  215loPI   C1A 3431   6.165   9.163   9.393 -0.2050 -0.0677  0.2812
  215loPI   C2A 3432   6.314   9.301   9.012 -0.0002 -0.0220  0.0490
  215loPI   C3A 3433   6.288   9.364   8.625 -0.2235  0.0007 -0.1620
  215loPI   C4A 3434   6.398   9.294   8.289 -0.0757  0.0091  0.4199
  215loPI   C5A 3435   6.440   9.045   7.903  0.1888  0.0812 -0.1156
  215loPI   C6A 3436   6.752   8.917   7.621 -0.0821  0.3303 -0.1296
  215loPI   C1B 3437   5.808   9.088   9.080 -0.0128 -0.0614  0.1476
  215loPI   C2B 3438   5.856   9.349   8.752  0.5068 -0.0547  0.4564
  215loPI   C3B 3439   5.868   9.408   8.346 -0.0027 -0.1839 -0.3375
  215loPI   C4B 3440   6.151   9.560   8.014 -0.0238 -0.1074  0.1735
  216loPI    C1 3441  13.943  17.015  10.096 -0.0171 -0.0549 -0.3169
  216loPI    C2 3442  13.578  17.175  10.120 -0.0249 -0.1114 -0.0178
  216loPI    C3 3443  13.676  16.867  10.355  0.1348 -0.2594 -0.2746
  216loPI   PO4 3444  14.062  17.100   9.817  0.1393 -0.0128 -0.2224
  216loPI   GL1 3445  13.929  17.217   9.443  0.0317  0.2244  0.1291
  216loPI   GL2 3446  13.816  17.465   9.307 -0.2287 -0.2616 -0.1720
  216loPI   C1A 3447  14.042  16.942   9.190 -0.2421  0.0022  0.2276
  216loPI   C2A 3448  14.311  16.931   8.777  0.1771  0.0017  0.1216
  216loPI   C3A 3449  14.378  17.000   8.339 -0.3487  0.0435  0.2266
  216loPI   C4A 3450  14.356  17.021   7.797  0.0179 -0.1764 -0.1751
  216loPI   C5A 3451  14.593  16.707   7.430  0.1604  0.0652  0.1853
  216loPI   C6A 3452  14.722  16.621   6.984  0.1354  0.2238 -0.0230
  216loPI   C1B 3453  14.059  17.359   8.855  0.0649 -0.2718 -0.0355
  216loPI   C2B 3454  14.095  17.471   8.446  0.0730 -0.1690 -0.1971
  216loPI   C3B 3455  13.954  17.726   8.111  0.0990 -0.2483  0.0260
  216loPI   C4B 3456  13.741  17.648   7.725  0.0701  0.0468  0.2091
  217loPI    C1 3457  15.561  17.492   9.800 -0.0625 -0.3287 -0.1223
  217loPI    C2 3458  15.296  17.703   9.586  0.1520  0.0868  0.0103
  217loPI    C3 3459  15.183  17.525   9.926  0.0276  0.2092  0.0339
  217loPI   PO4 3460  15.580  17.266   9.637 -0.1640 -0.0369  0.1858
  217loPI   GL1 3461  15.407  16.960   9.302 -0.1933 -0.3796  0.2207
  217loPI   GL2 3462  15.726  17.011   9.227 -0.3783 -0.2222 -0.1183
  217loPI   C1A 3463  15.191  17.224   9.101 -0.2584 -0.0559 -0.0110
  217loPI   C2A 3464  15.200  17.313   8.622  0.1384 -0.0897  0.2470
  217loPI   C3A 3465  15.148  17.481   8.230 -0.0793  0.1268  0.0435
  217loPI   C4A 3466  15.345  17.413   7.944 -0.1912 -0.0001  0.0931
  217loPI   C5A 3467  15.331  17.364   7.442  0.0694  0.0626  0.3078
  217loPI   C6A 3468  15.465  17.228   7.050  0.0053 -0.0381  0.0719
  217loPI   C1B 3469  15.731  17.085   8.836  0.3022 -0.1490  0.0591
  217loPI   C2B 3470  15.931  17.028   8.483  0.0380 -0.2450 -0.1430
  217loPI   C3B 3471  15.995  16.783   8.100 -0.1101 -0.0304  0.1123
  217loPI   C4B 3472  16.246  16.518   7.881 -0.0926 -0.0237  0.0431
  218loPI    C1 3473  13.156  14.116  10.235  0.1191 -0.3081 -0.0809
  218loPI    C2 3474  12.846  13.969  10.440  0.0219 -0.1246 -0.0937
  218loPI    C3 3475  13.211  13.970  10.603  0.0112 -0.3121 -0.0658
  218loPI   PO4 3476  13.132  14.040   9.940 -0.1272  0.1179  0.2203
  218loPI   GL1 3477  13.270  13.755   9.706  0.3978 -0.1096  0.2480
  218loPI   GL2 3478  13.243  13.957   9.425  0.0635  0.0111  0.0604
  218loPI   C1A 3479  13.256  13.469   9.330 -0.2002  0.3976 -0.0846
  218loPI   C2A 3480  13.180  13.307   8.896 -0.0695 -0.1122 -0.1649
  218loPI   C3A 3481  13.003  13.239   8.550  0.2569 -0.0357  0.1280
  218loPI   C4A 3482  12.701  13.480   8.625 -0.0265 -0.1096 -0.0751
  218loPI   C5A 3483  12.657  13.944   8.697 -0.1972  0.0452  0.1596
  218loPI   C6A 3484  12.565  14.152   9.097 -0.2204 -0.1662  0.0191
  218loPI   C1B 3485  13.437  14.145   9.159  0.1485 -0.1121 -0.2172
  218loPI   C2B 3486  13.489  14.112   8.635  0.1422 -0.2054 -0.1879
  218loPI   C3B 3487  13.620  14.313   8.319 -0.2530 -0.0492 -0.1310
  218loPI   C4B 3488  13.781  14.427   7.897 -0.3389 -0.1193 -0.2576
  219loPI    C1 3489   9.021   1.755   9.712 -0.1534 -0.0978  0.1869
  219loPI    C2 3490   9.249   2.078   9.768  0.1684 -0.2766 -0.0579
  219loPI    C3 3491   9.094   1.885  10.083  0.0913  0.0300  0.0957
  219loPI   PO4 3492   8.981   1.813   9.433  0.1099  0.0191 -0.1568
  219loPI   GL1 3493   9.047   1.793   9.050 -0.1514 -0.1007  0.3264
  219loPI   GL2 3494   8.970   1.411   9.135 -0.2971 -0.1289  0.2962
  219loPI   C1A 3495   9.079   1.730   8.611 -0.0551  0.1507  0.2241
  219loPI   C2A 3496   8.965   1.662   8.216  0.0516 -0.2205  0.1697
  219loPI   C3A 3497   9.069   1.648   7.820  0.2559 -0.2001 -0.1711
  219loPI   C4A 3498   8.998   1.439   7.461 -0.2315 -0.3228  0.0544
  219loPI   C5A 3499   9.018   1.068   7.280 -0.0235  0.3360 -0.0551
  219loPI   C6A 3500   9.087   0.930   6.883 -0.0255  0.1564 -0.0219
  219loPI   C1B 3501   8.931   1.290   8.748  0.0361  0.2512 -0.1428
  219loPI   C2B 3502   8.695   1.249   8.263  0.0451  0.1166 -0.1909
  219loPI   C3B 3503   8.551   1.205   7.912  0.3563  0.0563 -0.1617
  219loPI   C4B 3504   8.514   1.202   7.528  0.1148 -0.1763 -0.0826
  220loPI    C1 3505  15.918  15.001   9.843  0.0629 -0.1816  0.0111
  220loPI    C2 3506  15.843  14.913  10.226  0.0351 -0.1133  0.0215
  220loPI    C3 3507  16.040  15.248  10.133 -0.0007 -0.1055 -0.0268
  220loPI   PO4 3508  15.753  14.953   9.726 -0.4480 -0.2924 -0.2091
  220loPI   GL1 3509  15.653  14.968   9.306  0.0493  0.0891 -0.1054
  220loPI   GL2 3510  15.508  15.202   9.350 -0.2616  0.2394 -0.0963
  220loPI   C1A 3511  15.557  14.976   8.864 -0.0838 -0.0827  0.0972
  220loPI   C2A 3512  15.553  15.008   8.478 -0.1712 -0.1607 -0.2415
  220loPI   C3A 3513  15.813  14.980   8.058 -0.0566 -0.1570  0.1101
  220loPI   C4A 3514  16.126  15.004   7.717 -0.1933 -0.0577  0.2025
  220loPI   C5A 3515  16.216  14.744   7.429  0.0885  0.0066  0.2268
  220loPI   C6A 3516  16.267  14.262   7.480  0.1969  0.0909 -0.0729
  220loPI   C1B 3517  15.352  15.415   9.014 -0.0210  0.0329  0.1536
  220loPI   C2B 3518  15.285  15.488   8.553  0.0418  0.2359  0.1142
  220loPI   C3B 3519  15.218  15.412   8.078  0.1297 -0.0643 -0.2790
  220loPI   C4B 3520  15.338  15.546   7.777 -0.1646  0.1263  0.0381
  221loPI    C1 3521   2.626   5.334  10.216 -0.2903  0.1246 -0.0949
  221loPI    C2 3522   2.733   5.675  10.395 -0.1564  0.1486 -0.2190
  221loPI    C3 3523   2.567   5.381  10.609 -0.0463  0.1969 -0.0654
  221loPI   PO4 3524   2.550   5.438  10.004 -0.1770 -0.2244 -0.0073
  221loPI   GL1 3525   2.691   5.665   9.652  0.0135  0.2131  0.1101
  221loPI   GL2 3526   2.401   5.650   9.507 -0.0048  0.1719  0.1475
  221loPI   C1A 3527   2.804   5.593   9.266  0.1784  0.0556 -0.0719
  221loPI   C2A 3528   2.721   5.546   8.823  0.0357 -0.3365 -0.2766
  221loPI   C3A 3529   2.677   5.497   8.424 -0.2851 -0.0004  0.0290
  221loPI   C4A 3530   2.723   5.262   7.993 -0.1204 -0.0638 -0.2136
  221loPI   C5A 3531   2.750   5.077   7.548 -0.1013  0.2981 -0.0865
  221loPI   C6A 3532   2.549   4.898   7.203  0.2737 -0.0692 -0.1328
  221loPI   C1B 3533   2.145   5.929   9.246  0.0019  0.1279 -0.0305
  221loPI   C2B 3534   2.016   5.792   8.903  0.0033 -0.1144  0.0760
  221loPI   C3B 3535   1.636   5.487   8.934  0.1836 -0.2360 -0.1828
  221loPI   C4B 3536   1.205   5.502   8.955  0.1548 -0.1180  0.0662
  222loPI    C1 3537  15.007  10.762  10.370  0.2039  0.0177  0.0938
  222loPI    C2 3538  14.850  11.064  10.579  0.0773 -0.0374  0.0792
  222loPI    C3 3539  14.612  10.778  10.433  0.1785 -0.0606 -0.0416
  222loPI   PO4 3540  15.185  10.866  10.224 -0.0853 -0.0191  0.2376
  222loPI   GL1 3541  15.278  10.680   9.786  0.0974 -0.2003  0.0578
  222loPI   GL2 3542  15.381  10.413   9.667 -0.1699  0.0661  0.0009
  222loPI   C1A 3543  15.643  10.891   9.444  0.1143  0.0251  0.0078
  222loPI   C2A 3544  15.888  10.811   9.155 -0.0490 -0.2426 -0.2556
  222loPI   C3A 3545  15.926  10.880   8.734  0.0376  0.1100 -0.1994
  222loPI   C4A 3546  15.995  10.887   8.294 -0.1783 -0.1948 -0.0274
  222loPI   C5A 3547  16.195  10.820   7.907 -0.1187  0.0853  0.1038
  222loPI   C6A 3548  16.367  10.484   7.748 -0.2795 -0.0880  0.0016
  222loPI   C1B 3549  15.473  10.429   9.243 -0.1607 -0.0402 -0.2049
  222loPI   C2B 3550  15.538  10.557   8.819 -0.1066 -0.2544 -0.3011
  222loPI   C3B 3551  15.540  10.637   8.407  0.2252 -0.0810 -0.0896
  222loPI   C4B 3552  15.662  10.550   7.980 -0.1243 -0.0989 -0.0246
  223loPI    C1 3553   2.986  17.084  10.243 -0.0264 -0.1746  0.2256
  223loPI    C2 3554   3.368  17.195  10.283  0.0787 -0.4089 -0.0872
  223loPI    C3 3555   3.120  17.216  10.596  0.2464  0.1111  0.0206
  223loPI   PO4 3556   2.918  17.108   9.961  0.1271  0.2640  0.1146
  223loPI   GL1 3557   3.107  16.962   9.640  0.0003 -0.0269  0.2419
  223loPI   GL2 3558   3.424  17.150   9.677 -0.1245 -0.4602 -0.0959
  223loPI   C1A 3559   2.829  17.107   9.160  0.0517 -0.2981  0.0302
  223loPI   C2A 3560   2.782  17.075   8.777  0.0101  0.2185  0.2269
  223loPI   C3A 3561   2.907  16.988   8.297 -0.3023  0.0037  0.1169
  223loPI   C4A 3562   3.344  16.760   8.273 -0.0350  0.0071 -0.1368
  223loPI   C5A 3563   3.736  16.963   8.046 -0.1266  0.2453  0.1174
  223loPI   C6A 3564   3.834  17.163   7.639  0.0288 -0.4531  0.2113
  223loPI   C1B 3565   3.768  17.151   9.306  0.0535 -0.0368  0.2765
  223loPI   C2B 3566   3.835  17.033   8.928  0.1084 -0.0967  0.0408
  223loPI   C3B 3567   3.997  17.023   8.498 -0.0873 -0.1376  0.0222
  223loPI   C4B 3568   4.374  17.023   8.403  0.1758  0.1547 -0.1721
  224loPI    C1 3569  10.861   9.155  10.384  0.1869 -0.1187 -0.3211
  224loPI    C2 3570  10.970   9.489  10.575 -0.0055 -0.1881 -0.0854
  224loPI    C3 3571  11.128   9.138  10.682 -0.0481 -0.2155 -0.1120
  224loPI   PO4 3572  10.932   9.292  10.040  0.1616 -0.1278 -0.3039
  224loPI   GL1 3573  10.675   9.041   9.719 -0.2710 -0.0762 -0.1020
  224loPI   GL2 3574  10.813   9.194   9.471 -0.1653 -0.0990  0.1271
  224loPI   C1A 3575  10.708   8.675   9.412 -0.0564 -0.1152  0.0896
  224loPI   C2A 3576  10.725   8.497   9.009  0.0497  0.0183 -0.2529
  224loPI   C3A 3577  10.808   8.418   8.545  0.0949  0.0145  0.0370
  224loPI   C4A 3578  10.842   8.374   8.107  0.0051 -0.0174  0.1153
  224loPI   C5A 3579  11.048   8.711   7.787  0.1334 -0.1274  0.0036
  224loPI   C6A 3580  11.262   8.861   7.430  0.2559 -0.2094 -0.2042
  224loPI   C1B 3581  10.761   9.142   9.146  0.0228 -0.0055  0.1706
  224loPI   C2B 3582  10.862   8.976   8.715  0.2977 -0.0227  0.4871
  224loPI   C3B 3583  10.992   9.006   8.238 -0.0160 -0.1679  0.0915
  224loPI   C4B 3584  10.973   9.320   7.824  0.1276  0.1304 -0.2819
  225loPI    C1 3585  17.027   3.948   9.980 -0.1561  0.0679 -0.0054
  225loPI    C2 3586  16.799   3.819  10.282  0.0984 -0.2343  0.0621
  225loPI    C3 3587  17.190   3.877  10.338  0.1185 -0.1396 -0.1683
  225loPI   PO4 3588  16.913   3.773   9.816 -0.1167 -0.2929 -0.2581
  225loPI   GL1 3589  16.710   3.800   9.568 -0.0531 -0.0437 -0.0220
  225loPI   GL2 3590  16.446   3.748   9.464 -0.1436  0.0189  0.0636
  225loPI   C1A 3591  16.628   3.999   9.127  0.1438  0.0810 -0.2567
  225loPI   C2A 3592  16.484   3.977   8.771 -0.0185 -0.2247 -0.1734
  225loPI   C3A 3593  16.428   3.770   8.433  0.0553 -0.2061 -0.1696
  225loPI   C4A 3594  16.353   3.873   8.059  0.1468 -0.1001 -0.0050
  225loPI   C5A 3595  16.254   4.064   7.657  0.1861 -0.2076  0.1225
  225loPI   C6A 3596  16.568   4.002   7.228  0.3904  0.1487 -0.0697
  225loPI   C1B 3597  16.234   3.486   9.228 -0.2193 -0.2109 -0.0933
  225loPI   C2B 3598  15.951   3.412   8.935 -0.1511  0.1329 -0.1109
  225loPI   C3B 3599  16.015   3.383   8.550  0.1838  0.0190  0.0375
  225loPI   C4B 3600  15.822   3.575   8.146  0.2717 -0.0583 -0.2071
  226loPI    C1 3601   4.386   1.537   9.709 -0.1215  0.0538 -0.0285
  226loPI    C2 3602   4.062   1.572   9.940  0.1265 -0.0578  0.3458
  226loPI    C3 3603   4.245   1.218   9.905 -0.0185 -0.0883 -0.1829
  226loPI   PO4 3604   4.340   1.725   9.433  0.0746 -0.1465 -0.3104
  226loPI   GL1 3605   4.159   1.579   9.089 -0.3197  0.4049  0.0221
  226loPI   GL2 3606   3.907   1.812   9.086 -0.0985 -0.3313 -0.0607
  226loPI   C1A 3607   4.371   1.490   8.658 -0.0706  0.1267  0.1040
  226loPI   C2A 3608   4.342   1.440   8.224  0.4315 -0.2569 -0.2800
  226loPI   C3A 3609   4.332   1.196   7.958 -0.0424  0.3822  0.0382
  226loPI   C4A 3610   4.365   0.775   7.791  0.0587 -0.0233 -0.2740
  226loPI   C5A 3611   4.052   0.557   7.568  0.4856  0.0907  0.0869
  226loPI   C6A 3612   3.868   0.728   7.108 -0.1109 -0.1329 -0.0706
  226loPI   C1B 3613   3.848   1.741   8.705  0.1890 -0.1104 -0.0757
  226loPI   C2B 3614   3.906   1.486   8.368 -0.0214 -0.0332  0.1903
  226loPI   C3B 3615   3.892   1.402   7.899  0.0059 -0.0390 -0.1032
  226loPI   C4B 3616   4.241   1.252   7.498  0.2052  0.2672  0.1163
  227loPI    C1 3617   5.540   4.772  10.022 -0.0381  0.1444  0.0390
  227loPI    C2 3618   5.741   5.094  10.147  0.3259 -0.1016  0.1019
  227loPI    C3 3619   5.660   4.797  10.403 -0.0904 -0.0242  0.0676
  227loPI   PO4 3620   5.651   4.841   9.697 -0.0229  0.1748 -0.4510
  227loPI   GL1 3621   5.613   5.124   9.490 -0.2022 -0.1446 -0.0119
  227loPI   GL2 3622   5.733   5.316   9.377  0.3268  0.0666  0.1133
  227loPI   C1A 3623   5.309   5.219   9.161 -0.1202  0.0837  0.2224
  227loPI   C2A 3624   5.180   5.454   8.767 -0.3884  0.1147  0.1773
  227loPI   C3A 3625   5.222   5.610   8.388 -0.0600  0.0399 -0.2156
  227loPI   C4A 3626   5.134   5.788   8.014 -0.2196  0.0732  0.0110
  227loPI   C5A 3627   5.290   5.841   7.587  0.1318 -0.0920  0.0836
  227loPI   C6A 3628   5.296   6.164   7.309 -0.0731  0.3208  0.1400
  227loPI   C1B 3629   5.757   5.051   8.974 -0.3336  0.0407  0.0655
  227loPI   C2B 3630   6.037   4.975   8.495  0.1464  0.2178  0.0609
  227loPI   C3B 3631   6.149   5.055   8.080 -0.0967 -0.1753 -0.1949
  227loPI   C4B 3632   6.346   5.233   7.791  0.1998 -0.0842  0.0079
  228loPI    C1 3633   7.963   4.077   9.869  0.1418 -0.0448 -0.0112
  228loPI    C2 3634   7.680   4.018  10.145 -0.1109  0.3446 -0.1777
  228loPI    C3 3635   8.065   3.955  10.236 -0.2260  0.0467  0.1250
  228loPI   PO4 3636   7.888   4.221   9.725  0.3328 -0.0067 -0.1167
  228loPI   GL1 3637   7.844   4.019   9.360 -0.2412  0.1628 -0.0817
  228loPI   GL2 3638   7.665   4.244   9.226  0.4906  0.1116 -0.1124
  228loPI   C1A 3639   7.480   3.742   9.181 -0.3557 -0.0723  0.2225
  228loPI   C2A 3640   7.311   3.546   8.787 -0.3024  0.4000  0.2998
  228loPI   C3A 3641   7.164   3.426   8.383  0.0420  0.1741  0.1672
  228loPI   C4A 3642   7.239   3.538   8.016 -0.0072 -0.1374 -0.3214
  228loPI   C5A 3643   6.924   3.549   7.658  0.0907 -0.1099  0.0694
  228loPI   C6A 3644   6.556   3.352   7.559 -0.1271  0.0079  0.3425
  228loPI   C1B 3645   7.766   4.429   8.892 -0.1071 -0.1856 -0.1605
  228loPI   C2B 3646   7.800   4.632   8.610  0.0333  0.1285  0.1424
  228loPI   C3B 3647   7.826   4.910   8.261 -0.0893 -0.0053 -0.1482
  228loPI   C4B 3648   7.698   5.155   7.947 -0.0550  0.2901  0.0063
  229loPI    C1 3649   6.093  14.829   9.740 -0.0409  0.0331  0.1518
  229loPI    C2 3650   5.961  14.806  10.117  0.0447 -0.1000  0.1741
  229loPI    C3 3651   6.354  14.817  10.042  0.0270 -0.0147  0.0917
  229loPI   PO4 3652   5.797  14.983   9.587 -0.1996  0.1130  0.0028
  229loPI   GL1 3653   5.552  15.197   9.330 -0.2110  0.0965 -0.2110
  229loPI   GL2 3654   5.678  15.541   9.276  0.1087  0.0447 -0.1885
  229loPI   C1A 3655   5.865  15.132   8.986 -0.0807 -0.1676 -0.1761
  229loPI   C2A 3656   5.925  15.228   8.588 -0.0554 -0.4479 -0.2312
  229loPI   C3A 3657   5.839  15.300   8.097 -0.0439  0.1091 -0.3892
  229loPI   C4A 3658   5.934  15.657   7.891 -0.0772  0.5431 -0.0515
  229loPI   C5A 3659   6.174  15.774   7.434 -0.3754 -0.2454 -0.2386
  229loPI   C6A 3660   6.227  16.112   7.097 -0.0836  0.1966 -0.1949
  229loPI   C1B 3661   5.851  15.635   8.912 -0.0175 -0.0025 -0.2751
  229loPI   C2B 3662   5.741  15.645   8.460  0.1919 -0.1313  0.1829
  229loPI   C3B 3663   5.468  15.645   8.119  0.0133  0.0203 -0.0743
  229loPI   C4B 3664   5.501  15.383   7.681  0.4666  0.0242  0.0754
  230loPI    C1 3665   5.852  11.397   9.889 -0.1729 -0.1097  0.0477
  230loPI    C2 3666   5.720  11.468  10.260 -0.0604 -0.0767  0.0821
  230loPI    C3 3667   6.014  11.204  10.200  0.1873  0.2000  0.0597
  230loPI   PO4 3668   5.647  11.376   9.732 -0.1691 -0.0308  0.0155
  230loPI   GL1 3669   5.549  11.177   9.428 -0.0330  0.1465  0.1630
  230loPI   GL2 3670   5.606  10.884   9.400  0.3606 -0.0569 -0.0394
  230loPI   C1A 3671   5.484  11.268   9.094  0.4923 -0.2385  0.1809
  230loPI   C2A 3672   5.587  11.332   8.715 -0.2420 -0.0008  0.1555
  230loPI   C3A 3673   5.602  11.197   8.311 -0.2892  0.1059 -0.1648
  230loPI   C4A 3674   5.627  11.202   7.843  0.1335  0.0482 -0.1807
  230loPI   C5A 3675   5.979  11.202   7.531  0.1680 -0.0771 -0.1749
  230loPI   C6A 3676   6.290  10.973   7.285  0.0026 -0.1942 -0.2328
  230loPI   C1B 3677   5.634  10.835   8.873 -0.2896 -0.2749  0.0003
  230loPI   C2B 3678   5.852  10.880   8.561  0.3438 -0.1775 -0.1781
  230loPI   C3B 3679   6.184  10.762   8.510 -0.2171  0.1513  0.2653
  230loPI   C4B 3680   6.464  10.429   8.326 -0.2128 -0.0506 -0.0802
  231loPI    C1 3681   8.225  17.826  10.291  0.0947  0.0211  0.0489
  231loPI    C2 3682   8.604  17.950  10.255  0.1545 -0.1426  0.1095
  231loPI    C3 3683   8.353  18.143  10.499  0.1633  0.0437 -0.0272
  231loPI   PO4 3684   8.183  17.774  10.070 -0.0809  0.0202 -0.3137
  231loPI   GL1 3685   8.063  18.044   9.593  0.1247 -0.4229 -0.2195
  231loPI   GL2 3686   8.015  18.373   9.358 -0.0709 -0.1982 -0.0159
  231loPI   C1A 3687   8.156  17.722   9.211 -0.0898 -0.1009  0.2040
  231loPI   C2A 3688   7.890  17.733   8.920 -0.2862 -0.0442 -0.2536
  231loPI   C3A 3689   7.814  17.779   8.502 -0.2413 -0.1067 -0.0297
  231loPI   C4A 3690   7.735  17.848   8.086 -0.0240  0.3795 -0.3222
  231loPI   C5A 3691   7.938  17.774   7.637  0.0398  0.0208 -0.1067
  231loPI   C6A 3692   7.873  17.812   7.150  0.2546 -0.3640  0.0473
  231loPI   C1B 3693   8.026  18.188   8.984 -0.1232  0.1321 -0.1162
  231loPI   C2B 3694   8.069  18.207   8.516  0.2177  0.3360 -0.0916
  231loPI   C3B 3695   8.130  18.512   8.311 -0.0232  0.0250 -0.1360
  231loPI   C4B 3696   8.339  18.414   7.858  0.1298  0.2062 -0.0401
  232loPI    C1 3697   5.180   1.171  10.126  0.0780  0.0734 -0.1963
  232loPI    C2 3698   5.089   1.544  10.236  0.1568 -0.0311  0.2396
  232loPI    C3 3699   4.845   1.242  10.333 -0.1196 -0.0533 -0.4646
  232loPI   PO4 3700   5.250   1.224   9.837 -0.2930 -0.1771  0.0707
  232loPI   GL1 3701   5.070   1.215   9.400 -0.0360  0.0046  0.1328
  232loPI   GL2 3702   5.300   1.489   9.384  0.0425  0.2230  0.0265
  232loPI   C1A 3703   5.067   1.382   8.936 -0.1229 -0.0526 -0.0567
  232loPI   C2A 3704   4.970   1.281   8.502 -0.0792  0.2280  0.0272
  232loPI   C3A 3705   4.893   1.536   8.059  0.0546  0.0722  0.0926
  232loPI   C4A 3706   4.738   1.486   7.611  0.1252  0.0014  0.1362
  232loPI   C5A 3707   4.692   1.017   7.521 -0.0915 -0.1824 -0.0359
  232loPI   C6A 3708   4.507   0.676   7.287  0.4916  0.1595 -0.3348
  232loPI   C1B 3709   5.572   1.617   8.985  0.0176  0.2808 -0.1773
  232loPI   C2B 3710   5.675   1.860   8.719 -0.1115  0.1051  0.1843
  232loPI   C3B 3711   5.777   2.112   8.358 -0.0755 -0.1949  0.1107
  232loPI   C4B 3712   5.743   2.202   7.919 -0.1600 -0.2358  0.0107
  233loPI    C1 3713   9.732  13.646   9.634  0.0394  0.1665 -0.2241
  233loPI    C2 3714   9.988  13.845   9.868  0.1837 -0.0408 -0.2030
  233loPI    C3 3715   9.883  13.471   9.960 -0.2106  0.0779 -0.1537
  233loPI   PO4 3716   9.869  13.616   9.368 -0.1906 -0.0896 -0.2821
  233loPI   GL1 3717   9.809  13.430   8.861 -0.0370 -0.1942 -0.1930
  233loPI   GL2 3718   9.502  13.271   8.771  0.3974 -0.1106  0.1584
  233loPI   C1A 3719  10.013  13.504   8.499 -0.0560  0.0122 -0.4998
  233loPI   C2A 3720   9.875  13.750   8.108  0.1194  0.3128  0.2152
  233loPI   C3A 3721   9.913  14.113   7.825  0.0218 -0.0607  0.0963
  233loPI   C4A 3722  10.209  14.372   7.648  0.0207  0.1509  0.3167
  233loPI   C5A 3723  10.531  14.710   7.455 -0.0511  0.3343  0.2362
  233loPI   C6A 3724  10.927  14.779   7.200 -0.1561  0.0768 -0.1311
  233loPI   C1B 3725   9.082  13.178   8.465  0.1039  0.0499  0.2470
  233loPI   C2B 3726   8.769  13.192   8.232 -0.3619 -0.1145  0.3057
  233loPI   C3B 3727   8.694  13.154   7.782  0.1142 -0.0919  0.1413
  233loPI   C4B 3728   8.844  13.191   7.312  0.0757 -0.3360 -0.2347
  234loPI    C1 3729   9.491  17.074   9.881  0.2228  0.0490 -0.0614
  234loPI    C2 3730   9.137  17.221   9.993  0.2337  0.0312 -0.0034
  234loPI    C3 3731   9.474  17.389  10.127  0.2464 -0.2316  0.3089
  234loPI   PO4 3732   9.364  17.053   9.548  0.1152 -0.0653  0.1455
  234loPI   GL1 3733   9.202  17.209   9.245 -0.1034 -0.0583 -0.0541
  234loPI   GL2 3734   8.874  17.130   9.235 -0.2817  0.0551  0.2041
  234loPI   C1A 3735   9.302  17.035   8.860 -0.0359 -0.1893  0.0834
  234loPI   C2A 3736   9.162  17.170   8.449  0.0759 -0.0013  0.1696
  234loPI   C3A 3737   9.283  17.304   8.079 -0.0378 -0.1705  0.2781
  234loPI   C4A 3738   9.337  17.475   7.657 -0.1317  0.1324  0.1661
  234loPI   C5A 3739   9.593  17.130   7.389 -0.0132  0.1185 -0.2179
  234loPI   C6A 3740   9.989  17.013   7.182  0.1712  0.1751 -0.0950
  234loPI   C1B 3741   8.813  17.072   8.813  0.0556  0.1717  0.0521
  234loPI   C2B 3742   8.592  17.120   8.431 -0.3148 -0.2112  0.2321
  234loPI   C3B 3743   8.413  16.994   8.067  0.3797 -0.0161  0.0828
  234loPI   C4B 3744   8.634  16.796   7.742  0.1482  0.1484  0.1507
  235loPI    C1 3745   2.921  14.956  10.296  0.0267 -0.1248  0.2088
  235loPI    C2 3746   2.807  15.157  10.622  0.0472 -0.0734  0.1844
  235loPI    C3 3747   3.184  15.029  10.589  0.0169 -0.1761  0.2308
  235loPI   PO4 3748   2.860  15.051  10.085 -0.1408 -0.0025  0.1775
  235loPI   GL1 3749   2.441  15.093   9.857  0.0522  0.1546 -0.0499
  235loPI   GL2 3750   2.723  15.068   9.598  0.0424  0.1915  0.1394
  235loPI   C1A 3751   2.275  15.302   9.469  0.2648  0.2646  0.0231
  235loPI   C2A 3752   2.342  15.368   9.017 -0.2818 -0.1561  0.0781
  235loPI   C3A 3753   2.271  15.374   8.583  0.0123  0.3513  0.2710
  235loPI   C4A 3754   2.254  15.318   8.139 -0.0947 -0.1264 -0.0090
  235loPI   C5A 3755   2.312  15.393   7.685  0.0753  0.0929 -0.0387
  235loPI   C6A 3756   2.335  15.395   7.266  0.0447 -0.1054  0.0137
  235loPI   C1B 3757   2.767  15.308   9.201 -0.2768  0.1777 -0.0594
  235loPI   C2B 3758   2.776  15.232   8.786 -0.4126 -0.1274 -0.0739
  235loPI   C3B 3759   2.767  15.352   8.309 -0.0861 -0.0199  0.2426
  235loPI   C4B 3760   2.760  15.456   7.906  0.3338  0.4196  0.1992
  236loPI    C1 3761  14.429   9.932  10.529  0.1223 -0.1331 -0.3373
  236loPI    C2 3762  14.814  10.035  10.492  0.0659  0.2017 -0.0509
  236loPI    C3 3763  14.528  10.313  10.459 -0.1304  0.0226  0.1089
  236loPI   PO4 3764  14.461   9.656  10.361 -0.3732 -0.2559  0.0482
  236loPI   GL1 3765  14.388   9.648   9.877  0.1190  0.3165  0.0332
  236loPI   GL2 3766  14.562   9.341   9.755  0.0640 -0.2075  0.0503
  236loPI   C1A 3767  14.398   9.911   9.401  0.0695 -0.2618 -0.1228
  236loPI   C2A 3768  14.477   9.854   8.940 -0.0218 -0.1725  0.0516
  236loPI   C3A 3769  14.812   9.955   8.663 -0.2527  0.0734 -0.1221
  236loPI   C4A 3770  14.902  10.019   8.252 -0.2971  0.3017  0.0974
  236loPI   C5A 3771  14.565  10.077   7.960 -0.3323  0.0915 -0.2926
  236loPI   C6A 3772  14.406   9.878   7.621  0.1165  0.0890 -0.1459
  236loPI   C1B 3773  14.553   9.445   9.263 -0.0265  0.0534  0.2477
  236loPI   C2B 3774  14.790   9.399   8.990  0.0637 -0.0960  0.2970
  236loPI   C3B 3775  14.863   9.432   8.549 -0.2160  0.2503 -0.2505
  236loPI   C4B 3776  15.092   9.159   8.186 -0.0358  0.0375 -0.0601
  237loPI    C1 3777   2.046   7.665  10.124 -0.0639  0.1052  0.0769
  237loPI    C2 3778   1.921   7.745  10.496 -0.1881 -0.1227  0.0858
  237loPI    C3 3779   2.081   7.388  10.411 -0.1119 -0.0529 -0.0683
  237loPI   PO4 3780   1.883   7.924   9.956 -0.2476 -0.1346 -0.2326
  237loPI   GL1 3781   1.589   7.708   9.670  0.4694 -0.3058  0.2838
  237loPI   GL2 3782   1.359   7.982   9.732 -0.0223 -0.1146 -0.0259
  237loPI   C1A 3783   1.710   7.812   9.330 -0.1108 -0.3098 -0.0351
  237loPI   C2A 3784   1.986   7.856   8.999 -0.1198 -0.0030 -0.1132
  237loPI   C3A 3785   2.181   7.911   8.625 -0.5093 -0.0270 -0.3460
  237loPI   C4A 3786   2.067   7.829   8.185  0.0557 -0.3048  0.4005
  237loPI   C5A 3787   2.366   7.707   7.869  0.0255 -0.0865 -0.2219
  237loPI   C6A 3788   2.536   7.517   7.538  0.2768 -0.1849 -0.0921
  237loPI   C1B 3789   1.181   7.790   9.341 -0.0490  0.3703  0.0205
  237loPI   C2B 3790   1.121   7.589   8.886 -0.0365 -0.0826  0.1252
  237loPI   C3B 3791   1.127   7.341   8.503 -0.0674 -0.1910  0.0661
  237loPI   C4B 3792   1.201   7.085   8.152 -0.0691  0.3185 -0.1440
  238loPI    C1 3793   0.683   3.869  10.175 -0.1219  0.0565  0.2048
  238loPI    C2 3794   0.971   4.079  10.357  0.0416  0.1254 -0.1246
  238loPI    C3 3795   0.851   3.730  10.510  0.0463  0.2663  0.2102
  238loPI   PO4 3796   0.736   3.962   9.876 -0.1589 -0.2367 -0.2599
  238loPI   GL1 3797   0.654   4.214   9.536 -0.3127  0.0532 -0.0776
  238loPI   GL2 3798   0.597   4.478   9.524 -0.0812 -0.2062 -0.0400
  238loPI   C1A 3799   0.795   4.198   9.219 -0.2255  0.1277 -0.2499
  238loPI   C2A 3800   0.953   4.265   8.849 -0.5041  0.0722 -0.0395
  238loPI   C3A 3801   1.069   4.665   8.602  0.0618  0.2576  0.3009
  238loPI   C4A 3802   1.401   4.923   8.291  0.2161 -0.0104  0.1791
  238loPI   C5A 3803   1.570   5.210   8.073 -0.2264  0.2389  0.0595
  238loPI   C6A 3804   1.682   5.421   7.660 -0.2663  0.0136 -0.2887
  238loPI   C1B 3805   0.382   4.450   9.204  0.1408 -0.0267 -0.2964
  238loPI   C2B 3806   0.507   4.435   8.819 -0.1110  0.0686 -0.4012
  238loPI   C3B 3807   0.614   4.322   8.380 -0.3876 -0.0210 -0.2332
  238loPI   C4B 3808   0.711   4.294   7.880  0.1673  0.1435 -0.1082
  239loPI    C1 3809  17.949  17.684   9.839 -0.0589 -0.0910  0.1848
  239loPI    C2 3810  18.009  17.611  10.228  0.3131  0.3050  0.2084
  239loPI    C3 3811  17.933  17.984  10.104  0.0327  0.1553 -0.0835
  239loPI   PO4 3812  18.130  17.542   9.636 -0.2906 -0.0568 -0.0012
  239loPI   GL1 3813  18.073  17.412   9.254 -0.0547  0.0292  0.0756
  239loPI   GL2 3814  17.774  17.326   9.114 -0.1094  0.0274 -0.1948
  239loPI   C1A 3815  18.298  17.514   8.855  0.0916 -0.2159 -0.1685
  239loPI   C2A 3816  18.350  17.560   8.406 -0.0521  0.3374  0.4518
  239loPI   C3A 3817  18.197  17.597   7.928 -0.2745  0.1967  0.0354
  239loPI   C4A 3818  18.160  17.540   7.421 -0.0320  0.2767 -0.2490
  239loPI   C5A 3819  17.685  17.502   7.284 -0.0849  0.0433 -0.1217
  239loPI   C6A 3820  17.356  17.712   7.168  0.0342  0.1207  0.1007
  239loPI   C1B 3821  18.014  17.078   8.869  0.0343 -0.1283  0.2982
  239loPI   C2B 3822  18.111  16.957   8.453 -0.0423 -0.2125  0.1978
  239loPI   C3B 3823  18.024  17.062   8.034 -0.0643  0.2036 -0.0759
  239loPI   C4B 3824  17.800  17.330   7.761  0.0158  0.0314  0.4692
  240loPI    C1 3825  14.828   5.163  10.382  0.2275 -0.1124 -0.0955
  240loPI    C2 3826  14.508   5.007  10.565  0.0430  0.3237 -0.0345
  240loPI    C3 3827  14.876   4.894  10.675 -0.0809  0.0390  0.0992
  240loPI   PO4 3828  14.818   5.164  10.115 -0.1961  0.1608 -0.2616
  240loPI   GL1 3829  14.924   5.130   9.708  0.3033  0.3116 -0.0565
  240loPI   GL2 3830  15.127   4.930   9.705 -0.0352 -0.0499 -0.1079
  240loPI   C1A 3831  15.234   5.238   9.354  0.1629  0.0684 -0.1271
  240loPI   C2A 3832  15.502   5.208   8.991 -0.0831 -0.2518 -0.4047
  240loPI   C3A 3833  15.733   5.333   8.585 -0.2591  0.0801 -0.2125
  240loPI   C4A 3834  15.965   5.421   8.170  0.0214 -0.1375 -0.1429
  240loPI   C5A 3835  16.101   5.762   7.949  0.3080  0.3613  0.0579
  240loPI   C6A 3836  16.344   6.096   7.931 -0.2466 -0.4323  0.0521
  240loPI   C1B 3837  14.944   4.808   9.285 -0.1248  0.4484 -0.2290
  240loPI   C2B 3838  14.777   4.732   8.801 -0.0761  0.3959  0.2653
  240loPI   C3B 3839  14.669   5.037   8.431  0.0142 -0.3677  0.0205
  240loPI   C4B 3840  14.422   4.982   8.201 -0.0122  0.0477  0.1095
  241loPI    C1 3841   9.089   3.239   9.831  0.1214  0.0901 -0.1070
  241loPI    C2 3842   9.199   3.273  10.214  0.0484  0.1521 -0.0913
  241loPI    C3 3843   9.418   3.053   9.962  0.0891  0.1000 -0.0109
  241loPI   PO4 3844   8.880   3.151   9.760 -0.0348 -0.0802  0.3160
  241loPI   GL1 3845   8.854   3.084   9.355  0.1688  0.1853 -0.1126
  241loPI   GL2 3846   9.133   2.903   9.325 -0.1099 -0.0267 -0.0025
  241loPI   C1A 3847   8.794   3.231   8.859 -0.1851  0.3387 -0.2955
  241loPI   C2A 3848   8.781   2.961   8.445  0.1009  0.2355 -0.1760
  241loPI   C3A 3849   8.801   2.920   8.075  0.3555  0.1064  0.1836
  241loPI   C4A 3850   8.968   3.149   7.761  0.1795 -0.1912  0.1920
  241loPI   C5A 3851   9.012   3.550   7.645  0.1606 -0.3282  0.3132
  241loPI   C6A 3852   9.017   3.617   7.232 -0.2124  0.2301 -0.2204
  241loPI   C1B 3853   9.083   2.790   8.865  0.0888 -0.3005  0.1150
  241loPI   C2B 3854   9.043   2.546   8.382 -0.0487  0.0452  0.2111
  241loPI   C3B 3855   8.913   2.160   8.205 -0.0100 -0.2228  0.0981
  241loPI   C4B 3856   8.670   1.949   8.567 -0.0459 -0.0956  0.0878
  242loPI    C1 3857  13.787   7.105  10.117  0.0134  0.0863  0.0898
  242loPI    C2 3858  14.027   7.304  10.367  0.3025 -0.2345  0.0751
  242loPI    C3 3859  13.841   6.972  10.490  0.2823 -0.2788 -0.0731
  242loPI   PO4 3860  13.732   7.358   9.921  0.0035 -0.1421 -0.1415
  242loPI   GL1 3861  13.494   7.423   9.644 -0.4575  0.4075 -0.1088
  242loPI   GL2 3862  13.495   7.739   9.560 -0.0745  0.1045 -0.0593
  242loPI   C1A 3863  13.291   7.398   9.296 -0.2587  0.0157  0.3379
  242loPI   C2A 3864  13.240   7.279   8.779 -0.2445 -0.1143  0.0172
  242loPI   C3A 3865  13.469   6.941   8.594  0.3092  0.1268  0.1777
  242loPI   C4A 3866  13.636   6.744   8.151  0.2218 -0.3417  0.3082
  242loPI   C5A 3867  13.555   6.527   7.785  0.1624  0.2432 -0.2793
  242loPI   C6A 3868  13.549   6.453   7.335 -0.0214 -0.1129  0.2171
  242loPI   C1B 3869  13.723   7.779   9.225  0.1363  0.1813 -0.1344
  242loPI   C2B 3870  13.562   7.809   8.863 -0.0664 -0.2133 -0.0304
  242loPI   C3B 3871  13.649   7.927   8.378 -0.0177 -0.0888 -0.0748
  242loPI   C4B 3872  13.747   8.138   8.050 -0.0319  0.1697 -0.0968
  243loPI    C1 3873   4.382   8.670   9.858 -0.0308 -0.1266 -0.1838
  243loPI    C2 3874   4.293   8.711  10.246 -0.2140 -0.0949 -0.2283
  243loPI    C3 3875   4.294   8.348  10.078  0.0622 -0.1314 -0.1530
  243loPI   PO4 3876   4.232   8.895   9.721 -0.1345 -0.1574  0.0524
  243loPI   GL1 3877   4.156   9.200   9.472  0.2338  0.1584  0.0831
  243loPI   GL2 3878   4.356   9.150   9.325 -0.0180 -0.1355  0.1110
  243loPI   C1A 3879   3.945   9.326   9.049 -0.3794 -0.2429  0.0004
  243loPI   C2A 3880   3.916   9.575   8.571 -0.3731  0.3063  0.1913
  243loPI   C3A 3881   4.248   9.763   8.208  0.0968 -0.0170  0.2924
  243loPI   C4A 3882   4.684   9.625   7.989 -0.1153  0.2448  0.2677
  243loPI   C5A 3883   4.713   9.308   7.688 -0.0316 -0.2913  0.0877
  243loPI   C6A 3884   4.802   8.920   7.454 -0.2228  0.2407 -0.0177
  243loPI   C1B 3885   4.126   8.871   9.054 -0.0867  0.1762  0.0271
  243loPI   C2B 3886   3.840   8.794   8.693  0.1051 -0.1166 -0.0470
  243loPI   C3B 3887   3.521   8.938   8.390  0.0391 -0.0297 -0.1165
  243loPI   C4B 3888   3.220   9.144   8.125 -0.2101  0.0929  0.1400
  244loPI    C1 3889  17.318   2.536   9.848  0.1747  0.0869  0.2294
  244loPI    C2 3890  17.121   2.261  10.063  0.0214  0.1532  0.1751
  244loPI    C3 3891  17.517   2.303  10.106  0.0655 -0.1575  0.0965
  244loPI   PO4 3892  17.221   2.536   9.633  0.0467  0.0910 -0.0495
  244loPI   GL1 3893  17.393   2.286   9.333 -0.1285  0.0665 -0.2729
  244loPI   GL2 3894  17.223   2.223   9.080 -0.0395 -0.1088  0.0371
  244loPI   C1A 3895  17.838   2.182   9.181  0.0500  0.0307 -0.2674
  244loPI   C2A 3896  18.076   2.121   8.841  0.0548  0.1067 -0.0881
  244loPI   C3A 3897  18.041   2.071   8.513 -0.1321  0.0514  0.1631
  244loPI   C4A 3898  17.990   2.065   8.059  0.1057 -0.1278  0.1731
  244loPI   C5A 3899  18.131   2.147   7.607 -0.2039  0.0560 -0.1122
  244loPI   C6A 3900  18.152   1.814   7.239  0.0437  0.1064 -0.3363
  244loPI   C1B 3901  17.574   2.180   8.694 -0.2779 -0.2273 -0.1301
  244loPI   C2B 3902  17.571   2.118   8.304 -0.2444 -0.1329 -0.0436
  244loPI   C3B 3903  17.526   2.298   7.772 -0.0132 -0.2478 -0.2010
  244loPI   C4B 3904  17.540   2.753   7.667  0.0301  0.1227  0.0821
  245loPI    C1 3905   5.531   8.790  10.190 -0.0700 -0.1975 -0.2624
  245loPI    C2 3906   5.512   9.063  10.482 -0.1646 -0.0374 -0.4163
  245loPI    C3 3907   5.427   8.680  10.560 -0.0227 -0.0257 -0.1970
  245loPI   PO4 3908   5.381   8.888   9.932  0.0373  0.0027 -0.0993
  245loPI   GL1 3909   5.283   8.819   9.537 -0.0657  0.0601 -0.1485
  245loPI   GL2 3910   5.226   8.408   9.378 -0.2248  0.0203 -0.3050
  245loPI   C1A 3911   5.328   8.868   9.028 -0.1279  0.1446 -0.0792
  245loPI   C2A 3912   5.462   8.953   8.508  0.0838  0.1388 -0.0189
  245loPI   C3A 3913   5.386   9.104   8.109  0.1393 -0.1924 -0.1209
  245loPI   C4A 3914   5.210   9.451   7.812  0.2124 -0.3509 -0.2240
  245loPI   C5A 3915   5.055   9.705   7.536  0.0123 -0.0121 -0.1544
  245loPI   C6A 3916   4.675   9.854   7.526 -0.0943  0.0443  0.0678
  245loPI   C1B 3917   5.221   8.393   8.955 -0.4980 -0.0327  0.1717
  245loPI   C2B 3918   5.163   8.309   8.505 -0.2247  0.0798  0.1764
  245loPI   C3B 3919   5.052   8.130   8.079 -0.1274  0.0651  0.0232
  245loPI   C4B 3920   4.624   8.061   7.886 -0.0084  0.1924  0.2532
  246loPI    C1 3921   9.041   7.887  10.132 -0.2595  0.1780 -0.1426
  246loPI    C2 3922   9.245   7.809  10.468 -0.1551  0.2132 -0.1974
  246loPI    C3 3923   8.998   8.123  10.452 -0.1994  0.1815 -0.1369
  246loPI   PO4 3924   9.193   7.877   9.889  0.0395 -0.0330  0.1247
  246loPI   GL1 3925   9.111   7.801   9.523  0.4451 -0.2752  0.1946
  246loPI   GL2 3926   9.487   7.761   9.509  0.0825 -0.3366 -0.3199
  246loPI   C1A 3927   8.828   7.695   9.142 -0.1323 -0.1903  0.4613
  246loPI   C2A 3928   8.808   7.743   8.734  0.1423  0.0700 -0.0150
  246loPI   C3A 3929   8.675   7.917   8.341 -0.1352 -0.1761  0.1497
  246loPI   C4A 3930   8.578   7.947   7.834  0.0523 -0.1754  0.0656
  246loPI   C5A 3931   8.552   7.716   7.426  0.1817 -0.0647 -0.1265
  246loPI   C6A 3932   8.500   7.505   7.016 -0.1779  0.3538  0.1777
  246loPI   C1B 3933   9.428   7.883   9.095  0.0806  0.0936 -0.2173
  246loPI   C2B 3934   9.531   7.815   8.756  0.0999  0.0995  0.5986
  246loPI   C3B 3935   9.628   7.519   8.432  0.1908  0.0770  0.2000
  246loPI   C4B 3936   9.340   7.345   8.130 -0.0161 -0.2195  0.1300
  247loPI    C1 3937  11.676  17.025  10.140  0.2092  0.0450 -0.1163
  247loPI    C2 3938  11.779  17.400  10.049 -0.2061  0.2376  0.1748
  247loPI    C3 3939  11.773  17.282  10.431  0.4184 -0.2252  0.0582
  247loPI   PO4 3940  11.552  16.966   9.871 -0.3680  0.4488 -0.0551
  247loPI   GL1 3941  11.526  16.873   9.466  0.0700 -0.0639  0.0027
  247loPI   GL2 3942  11.664  17.058   9.309  0.0506  0.3525  0.4836
  247loPI   C1A 3943  11.572  16.581   9.201  0.0928  0.1032  0.0476
  247loPI   C2A 3944  11.642  16.383   8.791 -0.0514  0.2171 -0.2143
  247loPI   C3A 3945  11.740  16.279   8.362 -0.0078 -0.0005 -0.1790
  247loPI   C4A 3946  11.786  16.358   7.995  0.0842 -0.0520 -0.0279
  247loPI   C5A 3947  11.943  16.134   7.635  0.0185 -0.1102  0.0005
  247loPI   C6A 3948  11.869  15.917   7.249 -0.0946  0.1082  0.3363
  247loPI   C1B 3949  11.735  16.966   8.918 -0.0508  0.2657 -0.0032
  247loPI   C2B 3950  11.742  16.789   8.487  0.2070 -0.3699  0.0147
  247loPI   C3B 3951  11.797  16.882   7.963 -0.0566  0.2520  0.1662
  247loPI   C4B 3952  11.752  16.588   7.552  0.0784 -0.1284 -0.0004
  248loPI    C1 3953  17.220  14.473  10.269 -0.0236  0.1738  0.0827
  248loPI    C2 3954  17.573  14.440  10.454 -0.0079  0.0772  0.0358
  248loPI    C3 3955  17.417  14.801  10.383  0.0115  0.1161  0.1897
  248loPI   PO4 3956  17.215  14.355   9.946  0.1797  0.0594  0.0396
  248loPI   GL1 3957  17.388  14.422   9.534 -0.3286  0.0274 -0.2818
  248loPI   GL2 3958  17.068  14.547   9.387  0.0115  0.2833 -0.1510
  248loPI   C1A 3959  17.494  14.478   9.093  0.1357  0.1663 -0.0888
  248loPI   C2A 3960  17.660  14.329   8.745 -0.1541  0.0813 -0.0940
  248loPI   C3A 3961  17.566  14.000   8.507 -0.0958  0.0954  0.0926
  248loPI   C4A 3962  17.620  13.823   8.130 -0.1579 -0.1224 -0.0554
  248loPI   C5A 3963  17.462  13.659   7.737 -0.2114 -0.0098  0.3392
  248loPI   C6A 3964  17.655  13.420   7.443 -0.2240 -0.1680  0.0538
  248loPI   C1B 3965  16.993  14.452   9.039 -0.0105 -0.0761  0.1304
  248loPI   C2B 3966  16.769  14.595   8.641 -0.1183 -0.2200 -0.1300
  248loPI   C3B 3967  16.682  14.653   8.066  0.0006  0.0150  0.0515
  248loPI   C4B 3968  16.683  14.857   7.672  0.2866  0.2596 -0.0828
  249loPI    C1 3969  18.646   0.587   9.567  0.0081  0.1648 -0.0025
  249loPI    C2 3970  18.686   0.748   9.931 -0.0636  0.1542  0.0101
  249loPI    C3 3971  18.856   0.924   9.614  0.2023  0.0341  0.0833
  249loPI   PO4 3972  18.724   0.377   9.582 -0.2097 -0.0146 -0.2062
  249loPI   GL1 3973  18.601  -0.007   9.266 -0.2434 -0.0374 -0.1979
  249loPI   GL2 3974  18.505  -0.346   9.051 -0.1162  0.3264  0.1757
  249loPI   C1A 3975  18.476   0.154   8.875 -0.1759  0.4806 -0.2442
  249loPI   C2A 3976  18.460   0.493   8.651 -0.1022 -0.0610 -0.0921
  249loPI   C3A 3977  18.636   0.485   8.273 -0.0587  0.1036  0.2710
  249loPI   C4A 3978  18.801   0.260   7.852  0.3192 -0.0042 -0.0439
  249loPI   C5A 3979  19.107   0.072   7.638 -0.1916 -0.0979 -0.0516
  249loPI   C6A 3980  19.294  -0.340   7.782 -0.6926 -0.0406 -0.2624
  249loPI   C1B 3981  18.597  -0.219   8.572 -0.0526 -0.0017  0.2915
  249loPI   C2B 3982  18.443  -0.028   8.214 -0.0604 -0.0347 -0.2896
  249loPI   C3B 3983  18.325  -0.084   7.863 -0.3509 -0.2157 -0.0148
  249loPI   C4B 3984  17.869  -0.283   7.733 -0.0042 -0.1496  0.1026
  250loPI    C1 3985  10.597   2.641  10.028 -0.1451 -0.0810 -0.0621
  250loPI    C2 3986  10.347   2.948   9.970  0.0258  0.0514 -0.1058
  250loPI    C3 3987  10.284   2.694  10.272  0.0053  0.2554  0.0640
  250loPI   PO4 3988  10.618   2.522   9.751 -0.1187 -0.2537  0.0164
  250loPI   GL1 3989  10.863   2.699   9.411 -0.1585 -0.1098 -0.1624
  250loPI   GL2 3990  10.666   2.819   9.250 -0.0018 -0.0793  0.1050
  250loPI   C1A 3991  11.109   2.500   9.042  0.0276 -0.2339  0.1096
  250loPI   C2A 3992  11.198   2.339   8.638 -0.0690 -0.1430 -0.1989
  250loPI   C3A 3993  10.963   2.227   8.241  0.0733  0.1513  0.1273
  250loPI   C4A 3994  10.848   2.448   7.882  0.1228 -0.2241 -0.1113
  250loPI   C5A 3995  10.654   2.744   7.654 -0.0158 -0.0697  0.0661
  250loPI   C6A 3996  10.954   2.920   7.254  0.2203  0.1264 -0.0484
  250loPI   C1B 3997  10.600   2.861   8.826 -0.1387 -0.1125 -0.0721
  250loPI   C2B 3998  10.317   3.044   8.490  0.0685  0.0926 -0.3301
  250loPI   C3B 3999  10.315   3.385   8.295  0.1779 -0.3354 -0.1440
  250loPI   C4B 4000  10.784   3.523   8.047  0.1059  0.1975  0.1662
  251loPI    C1 4001   8.409  13.490   9.710 -0.0456  0.1531 -0.0595
  251loPI    C2 4002   8.305  13.643  10.065 -0.1546  0.0394 -0.0416
  251loPI    C3 4003   8.391  13.253  10.032  0.1010  0.0978 -0.0911
  251loPI   PO4 4004   8.298  13.686   9.556  0.2738  0.2636 -0.0970
  251loPI   GL1 4005   8.182  13.751   9.180  0.2995 -0.0694 -0.0670
  251loPI   GL2 4006   8.183  13.502   9.000  0.3050  0.1780 -0.2367
  251loPI   C1A 4007   8.389  13.973   8.913 -0.0844 -0.0907  0.2205
  251loPI   C2A 4008   8.703  14.115   8.696 -0.2025  0.1487  0.0415
  251loPI   C3A 4009   8.820  14.159   8.284  0.1340  0.2008  0.1566
  251loPI   C4A 4010   9.005  14.127   7.809  0.1788  0.1250  0.0707
  251loPI   C5A 4011   8.879  14.273   7.388  0.1770 -0.1507 -0.0709
  251loPI   C6A 4012   8.898  14.712   7.188  0.1642 -0.1455 -0.0480
  251loPI   C1B 4013   8.005  13.488   8.706  0.0643 -0.2588  0.2265
  251loPI   C2B 4014   7.935  13.673   8.334 -0.7055 -0.0767 -0.1182
  251loPI   C3B 4015   7.682  13.728   8.069 -0.4313 -0.1008 -0.1226
  251loPI   C4B 4016   7.517  13.801   7.685  0.1889  0.0630 -0.0427
  252loPI    C1 4017  10.211   6.842  10.199 -0.0630 -0.0444  0.0158
  252loPI    C2 4018  10.591   6.966  10.220 -0.1275  0.1568  0.0201
  252loPI    C3 4019  10.397   6.859  10.553 -0.0207 -0.1174 -0.0024
  252loPI   PO4 4020  10.186   6.766   9.944 -0.0613 -0.2059  0.0155
  252loPI   GL1 4021  10.276   6.860   9.543 -0.0141 -0.1105  0.4176
  252loPI   GL2 4022  10.258   6.617   9.431  0.0320  0.1232 -0.0273
  252loPI   C1A 4023  10.404   7.216   9.158 -0.1579 -0.1102  0.0493
  252loPI   C2A 4024  10.603   7.191   8.691  0.0098  0.2103 -0.2138
  252loPI   C3A 4025  10.519   7.079   8.238  0.3812  0.1186  0.1315
  252loPI   C4A 4026  10.624   6.755   7.956 -0.0468 -0.0550  0.0064
  252loPI   C5A 4027  10.627   6.443   7.636  0.3456  0.0314 -0.0420
  252loPI   C6A 4028  10.321   6.131   7.451 -0.3084  0.2103  0.1996
  252loPI   C1B 4029  10.175   6.358   9.132  0.0962 -0.1587  0.1261
  252loPI   C2B 4030  10.302   6.284   8.800  0.1266  0.0149  0.2463
  252loPI   C3B 4031  10.242   6.241   8.405 -0.2636  0.0970 -0.0764
  252loPI   C4B 4032  10.252   6.327   7.969 -0.2608 -0.0385  0.0124
  253loPI    C1 4033  16.159  10.976  10.280  0.4293  0.0175 -0.1299
  253loPI    C2 4034  15.966  11.210  10.541  0.1167 -0.3380 -0.0337
  253loPI    C3 4035  16.343  11.294  10.439  0.1074  0.0370  0.2195
  253loPI   PO4 4036  15.915  10.697  10.306  0.1831 -0.3037 -0.0699
  253loPI   GL1 4037  15.808  10.645   9.796 -0.0384 -0.0324 -0.5086
  253loPI   GL2 4038  16.031  10.945   9.753 -0.1171 -0.0761  0.1191
  253loPI   C1A 4039  15.979  10.354   9.507  0.0425  0.1939  0.1611
  253loPI   C2A 4040  16.056  10.368   8.993  0.1500  0.1096 -0.1683
  253loPI   C3A 4041  15.997  10.346   8.649  0.1431 -0.2089  0.3419
  253loPI   C4A 4042  16.095  10.422   8.263 -0.1811 -0.1166 -0.1597
  253loPI   C5A 4043  16.395  10.196   8.118 -0.0329  0.1704 -0.0194
  253loPI   C6A 4044  16.334   9.907   7.856  0.1244  0.0205 -0.0087
  253loPI   C1B 4045  16.030  11.176   9.463 -0.1276 -0.1065  0.0937
  253loPI   C2B 4046  15.784  11.333   9.071 -0.1956  0.0171  0.4716
  253loPI   C3B 4047  15.763  11.550   8.726 -0.2641  0.1359  0.2325
  253loPI   C4B 4048  15.879  11.704   8.364  0.2563 -0.2071  0.2649
  254loPI    C1 4049   2.627  11.954   9.863  0.1944  0.0320 -0.0202
  254loPI    C2 4050   2.707  12.191  10.176 -0.1086  0.2330 -0.0912
  254loPI    C3 4051   2.469  11.873  10.221 -0.2670  0.3426 -0.1452
  254loPI   PO4 4052   2.745  12.172   9.678 -0.2622 -0.0715 -0.0728
  254loPI   GL1 4053   2.895  12.255   9.341 -0.2545 -0.1339  0.1801
  254loPI   GL2 4054   2.780  11.902   9.269  0.2024  0.1962  0.3405
  254loPI   C1A 4055   3.222  12.077   9.135  0.2527 -0.1146 -0.3528
  254loPI   C2A 4056   3.250  11.733   8.733 -0.2285  0.0471 -0.0685
  254loPI   C3A 4057   3.188  11.619   8.259  0.2308  0.3012 -0.0524
  254loPI   C4A 4058   3.284  11.682   7.811 -0.2047  0.2328 -0.3670
  254loPI   C5A 4059   3.564  11.804   7.541  0.0964 -0.2424  0.1571
  254loPI   C6A 4060   3.829  11.748   7.197  0.0992 -0.3740 -0.0775
  254loPI   C1B 4061   2.837  11.686   9.033  0.0328 -0.2702  0.0511
  254loPI   C2B 4062   2.932  11.361   8.785  0.2289  0.0426 -0.0282
  254loPI   C3B 4063   2.726  11.122   8.512 -0.1206 -0.1366 -0.2935
  254loPI   C4B 4064   2.570  11.058   8.104  0.3297 -0.1345  0.0393
  255loPI    C1 4065  15.209   9.943  10.220  0.1167 -0.0257 -0.1027
  255loPI    C2 4066  15.221   9.577  10.380  0.0053 -0.0687 -0.1919
  255loPI    C3 4067  15.373   9.887  10.581 -0.1057 -0.1272 -0.0153
  255loPI   PO4 4068  15.246   9.933   9.894  0.3806  0.0827 -0.3901
  255loPI   GL1 4069  14.975  10.059   9.631  0.1292 -0.0787 -0.0272
  255loPI   GL2 4070  14.883  10.371   9.608  0.0916  0.1524  0.1601
  255loPI   C1A 4071  15.111  10.085   9.245 -0.0054 -0.1897  0.3013
  255loPI   C2A 4072  15.161  10.203   8.892  0.1031 -0.1639 -0.0564
  255loPI   C3A 4073  15.140  10.417   8.521 -0.0709  0.1441 -0.1068
  255loPI   C4A 4074  15.095  10.439   8.037 -0.0424 -0.1651 -0.0091
  255loPI   C5A 4075  14.944  10.231   7.674  0.1949  0.0965  0.1222
  255loPI   C6A 4076  14.850   9.781   7.681 -0.0582  0.0827 -0.0648
  255loPI   C1B 4077  14.903  10.664   9.308  0.0651  0.0087  0.0355
  255loPI   C2B 4078  15.000  10.695   8.942  0.2122 -0.0134  0.2750
  255loPI   C3B 4079  15.009  10.924   8.569  0.1934 -0.0092  0.4586
  255loPI   C4B 4080  15.265  10.937   8.105 -0.2082  0.2229  0.0500
  256loPI    C1 4081  13.635  12.499  10.214 -0.1907 -0.1066 -0.2339
  256loPI    C2 4082  13.288  12.461  10.409 -0.0338  0.0268  0.0789
  256loPI    C3 4083  13.561  12.724  10.536  0.1408 -0.0007 -0.2278
  256loPI   PO4 4084  13.495  12.207  10.051  0.3261 -0.1383 -0.1660
  256loPI   GL1 4085  13.424  12.047   9.606  0.2768 -0.4169  0.0995
  256loPI   GL2 4086  13.142  12.297   9.703 -0.1118 -0.1217  0.0366
  256loPI   C1A 4087  13.465  11.815   9.262  0.3461 -0.1434  0.0771
  256loPI   C2A 4088  13.428  11.391   9.152 -0.0764  0.2069  0.2196
  256loPI   C3A 4089  13.734  11.148   8.897 -0.1454 -0.0688 -0.0758
  256loPI   C4A 4090  14.038  11.195   8.548 -0.0951 -0.1449  0.0734
  256loPI   C5A 4091  14.074  11.331   8.132 -0.4918  0.1644 -0.2887
  256loPI   C6A 4092  14.106  11.464   7.580  0.2329 -0.0094  0.1930
  256loPI   C1B 4093  12.917  12.387   9.296  0.1673  0.1455 -0.0876
  256loPI   C2B 4094  12.967  12.198   8.811 -0.0538 -0.2475 -0.3549
  256loPI   C3B 4095  12.943  12.022   8.445  0.1228 -0.1333 -0.0165
  256loPI   C4B 4096  12.905  11.536   8.287  0.4323 -0.1292  0.1301
  257loPI    C1 4097   1.740  17.777   9.968  0.1221 -0.3088 -0.0348
  257loPI    C2 4098   1.631  17.538  10.270  0.0021 -0.3127 -0.0805
  257loPI    C3 4099   1.878  17.846  10.337 -0.1792 -0.1962  0.0598
  257loPI   PO4 4100   1.504  17.782   9.825 -0.2247 -0.0370 -0.1739
  257loPI   GL1 4101   1.368  17.604   9.396 -0.0893 -0.0708  0.2436
  257loPI   GL2 4102   1.412  17.950   9.328  0.0036 -0.0378 -0.0427
  257loPI   C1A 4103   1.155  17.604   8.997  0.0998  0.1798 -0.0383
  257loPI   C2A 4104   0.964  17.749   8.623 -0.1454  0.0267  0.2165
  257loPI   C3A 4105   0.942  17.779   8.190  0.0349 -0.0346 -0.0545
  257loPI   C4A 4106   0.811  17.511   7.832  0.0332  0.1920  0.1820
  257loPI   C5A 4107   0.843  17.256   7.514 -0.0129 -0.0616 -0.0018
  257loPI   C6A 4108   0.700  17.123   7.176  0.0258  0.1656 -0.1903
  257loPI   C1B 4109   1.520  17.985   8.992  0.1778  0.0335  0.2674
  257loPI   C2B 4110   1.408  17.964   8.459 -0.0133  0.1186 -0.3034
  257loPI   C3B 4111   1.523  17.864   8.029 -0.3147  0.0887 -0.0979
  257loPI   C4B 4112   1.615  17.739   7.587 -0.1099 -0.0542  0.0203
  258loPI    C1 4113   3.546   0.554   9.652 -0.0398  0.0619 -0.1361
  258loPI    C2 4114   3.283   0.853   9.623 -0.2754 -0.1186  0.0955
  258loPI    C3 4115   3.487   0.798   9.963 -0.0767 -0.0944 -0.0189
  258loPI   PO4 4116   3.376   0.373   9.418  0.2565  0.1456  0.1904
  258loPI   GL1 4117   3.389   0.259   8.976 -0.0484 -0.0367 -0.0043
  258loPI   GL2 4118   3.118   0.101   8.952  0.0513  0.2686 -0.1584
  258loPI   C1A 4119   3.491   0.328   8.558 -0.0843  0.3669  0.3006
  258loPI   C2A 4120   3.367   0.135   8.183 -0.1166  0.0630  0.0354
  258loPI   C3A 4121   3.285   0.169   7.703 -0.0653 -0.3422 -0.0579
  258loPI   C4A 4122   3.338  -0.011   7.248  0.1225 -0.0909 -0.2822
  258loPI   C5A 4123   3.278  -0.053   6.810 -0.1418 -0.2586  0.1760
  258loPI   C6A 4124   3.090   0.057   6.443  0.1716 -0.0241 -0.1429
  258loPI   C1B 4125   3.001   0.093   8.520 -0.1044  0.3042 -0.0887
  258loPI   C2B 4126   2.870   0.156   8.126  0.4195 -0.0200  0.0180
  258loPI   C3B 4127   2.806   0.215   7.707  0.0542  0.0241  0.2142
  258loPI   C4B 4128   2.867   0.223   7.246  0.0565  0.1807  0.0206
  259loPI    C1 4129  15.830   3.851  10.081  0.0187 -0.1269 -0.1738
  259loPI    C2 4130  15.530   4.106  10.009 -0.0668 -0.2615 -0.3008
  259loPI    C3 4131  15.582   3.956  10.377  0.0965  0.0802 -0.1805
  259loPI   PO4 4132  15.814   3.612   9.829  0.0619 -0.0871  0.1135
  259loPI   GL1 4133  15.701   3.397   9.422 -0.1258 -0.2657 -0.0299
  259loPI   GL2 4134  15.492   3.190   9.338  0.2486 -0.2340 -0.1023
  259loPI   C1A 4135  15.568   3.715   9.125 -0.0210 -0.2605 -0.0117
  259loPI   C2A 4136  15.558   4.067   8.876 -0.1508 -0.1175  0.1072
  259loPI   C3A 4137  15.599   4.257   8.453  0.1302  0.1104  0.2415
  259loPI   C4A 4138  15.524   4.435   8.040 -0.0604 -0.0939 -0.3154
  259loPI   C5A 4139  15.441   4.680   7.787 -0.1644 -0.2583  0.0598
  259loPI   C6A 4140  15.500   5.174   7.596  0.3914 -0.2117 -0.0265
  259loPI   C1B 4141  15.362   3.349   8.880  0.0976 -0.0530  0.1471
  259loPI   C2B 4142  15.551   3.642   8.546 -0.1138  0.2035  0.2472
  259loPI   C3B 4143  15.383   3.937   8.148  0.0691 -0.1011 -0.2379
  259loPI   C4B 4144  15.089   4.190   7.983 -0.1896 -0.2064 -0.2291
  260loPI    C1 4145  16.365   0.308   9.790  0.1511  0.0334  0.0287
  260loPI    C2 4146  16.049   0.132   9.962  0.0773 -0.0352 -0.1741
  260loPI    C3 4147  16.418   0.061  10.100 -0.0059  0.1710  0.1675
  260loPI   PO4 4148  16.245   0.395   9.578 -0.2510 -0.1845  0.0581
  260loPI   GL1 4149  16.113   0.629   9.278 -0.1114 -0.2784  0.1360
  260loPI   GL2 4150  15.693   0.673   9.225 -0.0114  0.0019  0.0872
  260loPI   C1A 4151  16.106   0.773   8.926 -0.2097  0.0072 -0.1454
  260loPI   C2A 4152  16.121   0.950   8.557  0.0236 -0.1091  0.0832
  260loPI   C3A 4153  15.911   0.774   8.275  0.1942 -0.0126  0.2450
  260loPI   C4A 4154  15.791   0.699   7.794 -0.0099 -0.4440  0.0278
  260loPI   C5A 4155  15.328   0.652   7.528 -0.1225  0.1728 -0.2523
  260loPI   C6A 4156  15.110   0.323   7.451 -0.2008 -0.0514 -0.0116
  260loPI   C1B 4157  15.694   0.548   8.765 -0.0183 -0.2721  0.1902
  260loPI   C2B 4158  15.629   0.404   8.392  0.1239 -0.3016  0.2042
  260loPI   C3B 4159  15.673   0.198   8.121  0.0951 -0.0609 -0.4003
  260loPI   C4B 4160  15.340   0.389   7.970  0.1498 -0.3588  0.1521
  261loPI    C1 4161  11.721   9.742  10.343  0.1461 -0.1343  0.1173
  261loPI    C2 4162  11.454   9.445  10.364 -0.2845  0.2603  0.4288
  261loPI    C3 4163  11.723   9.492  10.656 -0.0205  0.0072  0.2329
  261loPI   PO4 4164  11.761   9.747  10.144 -0.2386  0.0585 -0.0894
  261loPI   GL1 4165  11.798   9.891   9.711  0.2390 -0.1541 -0.2778
  261loPI   GL2 4166  11.518   9.848   9.721  0.1461 -0.0928  0.1260
  261loPI   C1A 4167  12.089  10.061   9.411  0.0341  0.1914  0.0187
  261loPI   C2A 4168  12.219   9.866   9.077 -0.1326  0.3430  0.2105
  261loPI   C3A 4169  12.627   9.816   8.807  0.2126  0.1465  0.0688
  261loPI   C4A 4170  12.595   9.861   8.326  0.0561 -0.0627  0.1178
  261loPI   C5A 4171  12.642   9.808   7.930  0.0873  0.2546 -0.0416
  261loPI   C6A 4172  13.033   9.845   7.687  0.1376 -0.2317  0.0975
  261loPI   C1B 4173  11.508   9.938   9.268  0.1362 -0.4674  0.2971
  261loPI   C2B 4174  11.416   9.869   8.828 -0.1723 -0.0753 -0.0225
  261loPI   C3B 4175  11.338   9.875   8.395  0.0461 -0.2841  0.3574
  261loPI   C4B 4176  11.464   9.939   7.918  0.3661 -0.2079 -0.0765
  262loPI    C1 4177  18.043   6.097   9.732  0.2236  0.3057  0.0075
  262loPI    C2 4178  17.918   6.085  10.111 -0.0023 -0.2080 -0.0746
  262loPI    C3 4179  17.654   6.051   9.813  0.1919  0.0354 -0.2786
  262loPI   PO4 4180  18.221   6.252   9.731 -0.0711  0.3493 -0.1562
  262loPI   GL1 4181  18.522   6.516   9.565  0.2193  0.2108 -0.0212
  262loPI   GL2 4182  18.354   6.561   9.323  0.1915  0.1399  0.3371
  262loPI   C1A 4183  18.916   6.299   9.337 -0.0059 -0.2085 -0.2314
  262loPI   C2A 4184  19.228   6.248   9.050 -0.2521  0.2386  0.2233
  262loPI   C3A 4185  19.179   6.282   8.611 -0.2924  0.2243  0.0724
  262loPI   C4A 4186  19.286   6.327   8.151 -0.0537  0.1499  0.3582
  262loPI   C5A 4187  19.582   6.583   7.870 -0.0309  0.1477  0.1726
  262loPI   C6A 4188  20.078   6.637   7.651 -0.0771  0.1587 -0.1912
  262loPI   C1B 4189  17.916   6.395   9.013 -0.2198  0.0369 -0.1369
  262loPI   C2B 4190  17.864   6.302   8.544 -0.1480  0.1775 -0.1577
  262loPI   C3B 4191  17.938   6.168   8.107  0.1087 -0.3904 -0.2032
  262loPI   C4B 4192  17.930   6.337   7.748 -0.2752  0.0629 -0.1848
  263loPI    C1 4193   8.501   7.235  10.299  0.0758 -0.1813 -0.0070
  263loPI    C2 4194   8.335   6.970  10.549 -0.1555  0.0441  0.0832
  263loPI    C3 4195   8.689   7.135  10.638 -0.1373 -0.0341  0.1577
  263loPI   PO4 4196   8.466   7.116  10.050 -0.0558 -0.0943  0.2573
  263loPI   GL1 4197   8.342   7.196   9.713 -0.0217  0.1964 -0.2538
  263loPI   GL2 4198   8.128   7.194   9.522  0.1155 -0.0538 -0.1430
  263loPI   C1A 4199   8.619   7.163   9.355  0.1192  0.0062 -0.1249
  263loPI   C2A 4200   8.705   7.204   8.851 -0.0852  0.3306  0.2000
  263loPI   C3A 4201   8.612   7.351   8.367 -0.0832 -0.0849 -0.3440
  263loPI   C4A 4202   8.836   7.453   8.065  0.2895 -0.3093  0.0134
  263loPI   C5A 4203   9.085   7.699   7.755 -0.2141  0.1316 -0.0229
  263loPI   C6A 4204   9.441   7.656   7.551 -0.0348 -0.0540  0.0771
  263loPI   C1B 4205   8.135   7.217   9.039 -0.0965 -0.0379  0.0998
  263loPI   C2B 4206   8.195   7.171   8.637 -0.1694 -0.2532  0.4402
  263loPI   C3B 4207   8.335   6.818   8.385  0.1808 -0.4159 -0.0419
  263loPI   C4B 4208   8.200   6.902   8.016 -0.2696 -0.0498 -0.2219
  264loPI    C1 4209  13.889  18.035   9.762 -0.0352  0.3358  0.2203
  264loPI    C2 4210  14.003  17.946  10.135 -0.2007 -0.4956  0.0918
  264loPI    C3 4211  13.616  17.927  10.035 -0.2049  0.0947 -0.0391
  264loPI   PO4 4212  14.198  18.059   9.682  0.3320  0.0285  0.2868
  264loPI   GL1 4213  14.249  17.951   9.269 -0.1052 -0.2214 -0.0898
  264loPI   GL2 4214  14.114  17.778   9.088  0.1394  0.2705  0.1685
  264loPI   C1A 4215  14.099  18.288   8.974  0.1037  0.0896 -0.2046
  264loPI   C2A 4216  14.329  18.566   8.765 -0.2014  0.1722 -0.1312
  264loPI   C3A 4217  14.350  18.601   8.277  0.1528 -0.3066 -0.0213
  264loPI   C4A 4218  14.660  18.448   7.997  0.0523 -0.1111 -0.0249
  264loPI   C5A 4219  15.152  18.451   8.129 -0.2240  0.2186  0.1546
  264loPI   C6A 4220  15.558  18.300   8.291  0.3115  0.1278 -0.2465
  264loPI   C1B 4221  14.018  17.952   8.603  0.2551 -0.0761 -0.0705
  264loPI   C2B 4222  13.941  18.334   8.462 -0.2755  0.5634 -0.4611
  264loPI   C3B 4223  13.816  18.199   8.123  0.1267 -0.3267  0.0004
  264loPI   C4B 4224  13.785  18.132   7.634  0.1585  0.1243 -0.0994
  265loPI    C1 4225   9.282  13.360   9.387  0.1714  0.0567  0.0914
  265loPI    C2 4226   9.601  13.183   9.222  0.0188 -0.2508  0.1200
  265loPI    C3 4227   9.553  13.179   9.619  0.1655  0.1167  0.1457
  265loPI   PO4 4228   9.107  13.296   9.276 -0.0563 -0.1337  0.1533
  265loPI   GL1 4229   9.023  13.481   8.893  0.0568 -0.0086 -0.1168
  265loPI   GL2 4230   8.951  13.731   8.998  0.0658  0.0738  0.1354
  265loPI   C1A 4231   9.006  13.737   8.451 -0.3084 -0.1320 -0.4125
  265loPI   C2A 4232   8.823  13.688   8.066  0.1661 -0.3188 -0.2549
  265loPI   C3A 4233   8.723  13.711   7.678 -0.0369 -0.0531 -0.0176
  265loPI   C4A 4234   8.840  13.784   7.248 -0.2252 -0.0745 -0.0170
  265loPI   C5A 4235   8.643  14.117   6.950 -0.0962 -0.1215  0.0853
  265loPI   C6A 4236   8.325  14.273   6.784  0.0016 -0.0754  0.0751
  265loPI   C1B 4237   8.571  13.597   8.693  0.3386  0.2451  0.0021
  265loPI   C2B 4238   8.391  13.809   8.389  0.0644 -0.3519  0.1663
  265loPI   C3B 4239   8.445  14.029   7.977 -0.2197 -0.0657  0.0715
  265loPI   C4B 4240   8.457  14.348   7.816  0.1555  0.1068 -0.3623
  266loPI    C1 4241  13.716   0.376   9.653  0.1102 -0.0423  0.0700
  266loPI    C2 4242  13.391   0.143   9.663 -0.0161  0.1300  0.0236
  266loPI    C3 4243  13.547   0.283  10.004  0.1221 -0.1055  0.0590
  266loPI   PO4 4244  13.689   0.623   9.469 -0.0407 -0.1231  0.0575
  266loPI   GL1 4245  13.734   0.761   9.065  0.1094  0.0443  0.1051
  266loPI   GL2 4246  13.801   0.995   9.173 -0.0260  0.0925 -0.2394
  266loPI   C1A 4247  13.570   0.613   8.670 -0.1193 -0.0407 -0.2133
  266loPI   C2A 4248  13.526   0.699   8.223 -0.3149 -0.1334  0.4648
  266loPI   C3A 4249  13.463   0.860   7.700 -0.2939  0.0533  0.2385
  266loPI   C4A 4250  13.305   1.181   7.479  0.1161 -0.0986  0.0326
  266loPI   C5A 4251  13.078   1.409   7.190  0.1472  0.1024 -0.2205
  266loPI   C6A 4252  12.978   1.670   6.822  0.1709  0.0415  0.2143
  266loPI   C1B 4253  13.854   1.111   8.756 -0.2112  0.1034 -0.1157
  266loPI   C2B 4254  13.978   0.902   8.314 -0.1404 -0.1258 -0.0991
  266loPI   C3B 4255  13.905   0.942   7.907  0.0742 -0.2448 -0.1068
  266loPI   C4B 4256  13.986   0.858   7.479  0.0052 -0.1464 -0.0523
  267loPI    C1 4257   1.107  11.491  10.274 -0.0954 -0.0695  0.0076
  267loPI    C2 4258   0.959  11.210  10.031 -0.0269 -0.1252  0.0300
  267loPI    C3 4259   1.017  11.128  10.418 -0.1686 -0.0258  0.0730
  267loPI   PO4 4260   1.022  11.677  10.216 -0.0329 -0.1128 -0.2342
  267loPI   GL1 4261   0.937  11.574   9.729  0.3071 -0.0711  0.2561
  267loPI   GL2 4262   1.205  11.409   9.582 -0.2897 -0.3063 -0.0014
  267loPI   C1A 4263   0.728  11.764   9.405 -0.0221 -0.3463  0.2483
  267loPI   C2A 4264   0.629  11.743   8.974  0.1462 -0.2029  0.2944
  267loPI   C3A 4265   0.390  11.842   8.547 -0.4580 -0.1710  0.1341
  267loPI   C4A 4266   0.238  12.019   8.201  0.0312  0.0921  0.0375
  267loPI   C5A 4267   0.396  12.267   7.882 -0.2847 -0.1006  0.1144
  267loPI   C6A 4268   0.349  12.424   7.454  0.2156  0.0122 -0.0369
  267loPI   C1B 4269   1.266  11.730   9.297 -0.0510 -0.3077  0.0510
  267loPI   C2B 4270   1.153  11.897   8.927 -0.1468 -0.0575  0.0741
  267loPI   C3B 4271   1.200  11.842   8.530  0.0638 -0.1424  0.1411
  267loPI   C4B 4272   1.294  11.916   8.080 -0.0467  0.1387 -0.0765
  268loPI    C1 4273  17.433   4.897  10.081 -0.2478 -0.1436  0.0660
  268loPI    C2 4274  17.170   5.187  10.164 -0.0794 -0.0256  0.1966
  268loPI    C3 4275  17.258   4.912  10.441  0.1220  0.0837  0.2425
  268loPI   PO4 4276  17.340   4.797   9.797  0.1227 -0.2804  0.2148
  268loPI   GL1 4277  17.345   4.820   9.441 -0.0452 -0.2268 -0.0286
  268loPI   GL2 4278  17.293   4.473   9.470  0.1678 -0.2528 -0.0511
  268loPI   C1A 4279  17.150   4.940   9.104 -0.2115 -0.1000 -0.3948
  268loPI   C2A 4280  16.992   5.177   8.876 -0.1507 -0.0717 -0.0596
  268loPI   C3A 4281  16.922   5.413   8.577 -0.1569  0.0977 -0.1784
  268loPI   C4A 4282  16.817   5.669   8.199  0.2916  0.0259 -0.0130
  268loPI   C5A 4283  16.998   6.078   8.051  0.0781  0.2115 -0.1349
  268loPI   C6A 4284  16.973   6.553   8.210  0.0960 -0.1187 -0.0323
  268loPI   C1B 4285  16.965   4.437   9.189 -0.4272  0.0937  0.3237
  268loPI   C2B 4286  16.945   4.679   8.753 -0.3170  0.0030 -0.0453
  268loPI   C3B 4287  17.120   4.942   8.448 -0.3456 -0.0917 -0.1425
  268loPI   C4B 4288  17.362   4.986   8.155 -0.1117 -0.0915  0.1684
  269loPI    C1 4289  14.057   2.070  10.187  0.1344 -0.3635 -0.0927
  269loPI    C2 4290  14.015   2.353  10.466 -0.2156 -0.1989 -0.3049
  269loPI    C3 4291  14.136   1.986  10.570 -0.3605 -0.1470  0.0655
  269loPI   PO4 4292  13.851   2.148  10.025 -0.1635 -0.0174  0.1743
  269loPI   GL1 4293  14.005   2.238   9.692 -0.1298 -0.0815  0.0966
  269loPI   GL2 4294  14.179   1.990   9.416 -0.1735  0.2005  0.1511
  269loPI   C1A 4295  13.882   2.358   9.306 -0.1742  0.2377  0.1431
  269loPI   C2A 4296  13.903   2.472   8.853  0.1095 -0.3512  0.1737
  269loPI   C3A 4297  13.866   2.664   8.453  0.1628 -0.0846  0.0349
  269loPI   C4A 4298  13.824   2.813   8.000 -0.0158 -0.0244  0.2118
  269loPI   C5A 4299  13.902   3.106   7.619  0.1931 -0.1529  0.2114
  269loPI   C6A 4300  13.792   3.275   7.185  0.0674  0.1472 -0.2873
  269loPI   C1B 4301  14.367   2.203   9.125  0.0022 -0.1409  0.1258
  269loPI   C2B 4302  14.526   2.281   8.711 -0.1649  0.3352  0.1550
  269loPI   C3B 4303  14.622   2.194   8.311  0.2555  0.1170 -0.0556
  269loPI   C4B 4304  14.643   2.273   7.944 -0.1246  0.1726 -0.2525
  270loPI    C1 4305  11.964  12.599  10.022  0.0803  0.1986  0.1381
  270loPI    C2 4306  11.627  12.667  10.226  0.0440  0.0365  0.1334
  270loPI    C3 4307  11.978  12.659  10.417  0.0278  0.0472  0.1636
  270loPI   PO4 4308  11.885  12.671   9.723  0.1001  0.3963  0.1960
  270loPI   GL1 4309  11.825  12.434   9.394  0.1736  0.0137  0.0734
  270loPI   GL2 4310  11.541  12.565   9.271  0.0847 -0.1468 -0.0018
  270loPI   C1A 4311  11.908  12.396   8.917  0.1126  0.0408  0.0951
  270loPI   C2A 4312  12.002  12.223   8.539 -0.2525 -0.0517 -0.1060
  270loPI   C3A 4313  11.966  12.255   8.128 -0.0588 -0.3751 -0.2565
  270loPI   C4A 4314  11.858  11.957   7.775 -0.0366 -0.0482  0.0122
  270loPI   C5A 4315  11.855  11.547   7.725 -0.1814  0.1085 -0.1518
  270loPI   C6A 4316  11.633  11.261   7.585 -0.0221  0.1306 -0.1041
  270loPI   C1B 4317  11.552  12.743   8.909  0.0921 -0.0913 -0.4164
  270loPI   C2B 4318  11.739  12.957   8.434  0.1423  0.0061  0.0798
  270loPI   C3B 4319  11.441  13.245   8.236 -0.2697 -0.2298  0.1076
  270loPI   C4B 4320  11.591  13.318   7.807  0.2264  0.3428 -0.3367
  271loPI    C1 4321  16.579  10.076  10.553  0.0301 -0.2086 -0.0451
  271loPI    C2 4322  16.806  10.396  10.475  0.0627 -0.2448 -0.0997
  271loPI    C3 4323  16.584  10.384  10.808  0.2693 -0.2793  0.0386
  271loPI   PO4 4324  16.403  10.031  10.248 -0.0895 -0.1357 -0.0284
  271loPI   GL1 4325  16.508  10.192   9.809 -0.2307  0.0830  0.0118
  271loPI   GL2 4326  16.420  10.566   9.800  0.1521  0.0620 -0.2059
  271loPI   C1A 4327  16.473  10.195   9.381 -0.2865  0.2238  0.4314
  271loPI   C2A 4328  16.520  10.135   8.966 -0.1661 -0.1393  0.0817
  271loPI   C3A 4329  16.656  10.297   8.575  0.3825 -0.0350  0.1174
  271loPI   C4A 4330  16.873  10.125   8.265  0.1592 -0.0728  0.0463
  271loPI   C5A 4331  17.197  10.054   7.883 -0.1672  0.0787 -0.1921
  271loPI   C6A 4332  17.232  10.316   7.302 -0.1261  0.1290  0.2015
  271loPI   C1B 4333  16.349  10.649   9.362 -0.0792 -0.1026 -0.1840
  271loPI   C2B 4334  16.421  10.733   8.920  0.0936  0.2246 -0.1507
  271loPI   C3B 4335  16.472  10.757   8.424 -0.3746  0.1991  0.1283
  271loPI   C4B 4336  16.667  10.606   8.136 -0.1089 -0.3606 -0.2221
  272loPI    C1 4337  10.034   8.404  10.529 -0.2628 -0.1029  0.0891
  272loPI    C2 4338  10.238   8.073  10.626 -0.2602 -0.1315 -0.0125
  272loPI    C3 4339  10.011   8.255  10.900  0.2232  0.1367  0.2241
  272loPI   PO4 4340  10.326   8.550  10.286  0.0051  0.0245  0.0699
  272loPI   GL1 4341  10.354   8.630   9.779 -0.4756 -0.1290 -0.2415
  272loPI   GL2 4342  10.491   8.305   9.799 -0.1678  0.0256 -0.1443
  272loPI   C1A 4343  10.218   8.911   9.414 -0.1510  0.1856 -0.1221
  272loPI   C2A 4344   9.992   9.286   9.225 -0.2742 -0.0317  0.0482
  272loPI   C3A 4345   9.756   9.373   8.925 -0.1376 -0.0689 -0.0290
  272loPI   C4A 4346   9.487   9.476   8.608  0.1104 -0.0662 -0.2829
  272loPI   C5A 4347   9.358   9.452   8.238 -0.0402  0.3313  0.1557
  272loPI   C6A 4348   9.160   9.233   7.871  0.2259 -0.2573 -0.2994
  272loPI   C1B 4349  10.410   8.165   9.363 -0.1155 -0.1247  0.0441
  272loPI   C2B 4350  10.472   8.096   8.897  0.1613 -0.1678 -0.1520
  272loPI   C3B 4351  10.423   7.670   8.641 -0.0290 -0.5139 -0.0061
  272loPI   C4B 4352  10.457   7.544   8.186 -0.1386 -0.1321  0.1125
  273loPI    C1 4353  11.229   1.174   9.718  0.1557 -0.2818  0.1663
  273loPI    C2 4354  10.894   0.956   9.716  0.0103 -0.0622  0.2327
  273loPI    C3 4355  11.026   1.117  10.058  0.0692  0.0249  0.1695
  273loPI   PO4 4356  11.312   1.156   9.527  0.1677 -0.1469 -0.2034
  273loPI   GL1 4357  10.994   1.146   9.147 -0.1530  0.0131  0.0319
  273loPI   GL2 4358  11.113   0.950   8.955 -0.1068  0.0567 -0.1449
  273loPI   C1A 4359  10.855   1.507   8.856 -0.0954  0.0962  0.0630
  273loPI   C2A 4360  10.693   1.927   8.771 -0.2032  0.0573 -0.0660
  273loPI   C3A 4361  10.606   2.242   8.606 -0.0086  0.2671  0.2262
  273loPI   C4A 4362  10.606   2.591   8.381 -0.2772 -0.0996 -0.1126
  273loPI   C5A 4363  10.317   2.760   7.994 -0.0273 -0.0019 -0.1989
  273loPI   C6A 4364  10.118   2.819   7.720  0.5015  0.4165 -0.0856
  273loPI   C1B 4365  11.018   1.108   8.616 -0.0149  0.2962  0.0385
  273loPI   C2B 4366  11.097   1.331   8.204 -0.1019  0.0053  0.1606
  273loPI   C3B 4367  11.042   1.497   7.841 -0.1608 -0.0443  0.0522
  273loPI   C4B 4368  11.233   1.451   7.487  0.0500 -0.3485  0.1998
  274loPI    C1 4369   3.155   5.837   9.672  0.1001 -0.1086  0.1914
  274loPI    C2 4370   3.037   5.661  10.011 -0.2662  0.0584  0.1559
  274loPI    C3 4371   2.931   6.039   9.936 -0.1997  0.0184 -0.1516
  274loPI   PO4 4372   3.490   5.835   9.693  0.3030  0.1557 -0.4809
  274loPI   GL1 4373   3.775   5.917   9.326 -0.0106 -0.2303  0.1252
  274loPI   GL2 4374   3.619   5.729   9.092  0.1894  0.1027 -0.1792
  274loPI   C1A 4375   3.959   6.136   8.911 -0.0548  0.2297 -0.1521
  274loPI   C2A 4376   3.959   6.334   8.441 -0.0415  0.1830 -0.1324
  274loPI   C3A 4377   4.248   6.467   8.070  0.0523  0.2488 -0.1736
  274loPI   C4A 4378   4.330   6.323   7.735  0.4386  0.0464 -0.0147
  274loPI   C5A 4379   4.766   6.201   7.612  0.0895 -0.0318  0.0318
  274loPI   C6A 4380   4.849   6.151   7.185 -0.3316 -0.0314 -0.0476
  274loPI   C1B 4381   3.746   5.689   8.745 -0.2013  0.3409 -0.4837
  274loPI   C2B 4382   3.824   5.711   8.295  0.0992  0.0323  0.1514
  274loPI   C3B 4383   3.709   5.737   7.883  0.1286  0.0851 -0.1925
  274loPI   C4B 4384   3.564   5.679   7.460  0.1112  0.0060 -0.0491
  275loPI    C1 4385  13.674  15.289  10.019 -0.0320 -0.1496 -0.2090
  275loPI    C2 4386  13.494  15.639  10.092  0.1314 -0.0896 -0.0886
  275loPI    C3 4387  13.597  15.399  10.395  0.4603 -0.0183 -0.1393
  275loPI   PO4 4388  13.678  15.276   9.792 -0.0005 -0.1764  0.0122
  275loPI   GL1 4389  13.545  15.073   9.402  0.0239 -0.0068 -0.0447
  275loPI   GL2 4390  13.898  15.117   9.360 -0.0365 -0.1280  0.2568
  275loPI   C1A 4391  13.451  15.163   9.024  0.0167  0.0369 -0.3016
  275loPI   C2A 4392  13.512  15.157   8.576  0.0690 -0.0162 -0.2828
  275loPI   C3A 4393  13.457  15.234   8.179  0.0695  0.1753  0.0887
  275loPI   C4A 4394  13.678  14.982   7.813 -0.0587  0.1373 -0.1467
  275loPI   C5A 4395  14.045  15.014   7.468 -0.0520  0.0927 -0.0301
  275loPI   C6A 4396  14.131  14.742   7.036  0.0689 -0.4312  0.0349
  275loPI   C1B 4397  13.947  15.066   8.911 -0.0590  0.1088 -0.1100
  275loPI   C2B 4398  14.011  15.288   8.588 -0.0532 -0.1895  0.2564
  275loPI   C3B 4399  14.036  15.341   8.192  0.0213 -0.3247  0.3072
  275loPI   C4B 4400  14.022  15.436   7.716  0.0464  0.0515  0.0799
  276loPI    C1 4401  17.644   1.447   9.734 -0.1145 -0.0470  0.0951
  276loPI    C2 4402  17.972   1.238   9.642 -0.1408 -0.0921  0.1033
  276loPI    C3 4403  17.974   1.484   9.957 -0.0746  0.0043  0.0283
  276loPI   PO4 4404  17.524   1.482   9.535  0.0568 -0.2334  0.1466
  276loPI   GL1 4405  17.569   1.268   9.172 -0.1936 -0.0100  0.0925
  276loPI   GL2 4406  17.906   1.153   9.143  0.0269 -0.0417  0.1167
  276loPI   C1A 4407  17.353   1.075   8.811 -0.2173  0.0135 -0.1716
  276loPI   C2A 4408  17.367   1.016   8.438  0.0143 -0.2096 -0.3804
  276loPI   C3A 4409  17.594   1.104   8.048  0.4936 -0.1658  0.0798
  276loPI   C4A 4410  17.743   1.239   7.675  0.0605  0.2858  0.2925
  276loPI   C5A 4411  17.857   1.424   7.240  0.1514 -0.0364 -0.1469
  276loPI   C6A 4412  17.849   1.632   6.878  0.2367  0.1236  0.1743
  276loPI   C1B 4413  17.827   1.023   8.640 -0.0721 -0.0193 -0.4195
  276loPI   C2B 4414  18.161   0.869   8.324 -0.2986  0.0701 -0.1520
  276loPI   C3B 4415  18.411   0.920   7.869  0.1358  0.2435  0.0187
  276loPI   C4B 4416  18.840   0.806   7.814 -0.1984  0.3975  0.0103
  277loPI    C1 4417  12.185   0.451   9.888 -0.2262 -0.1660 -0.0052
  277loPI    C2 4418  12.088   0.801  10.055  0.1845 -0.0259 -0.0487
  277loPI    C3 4419  12.133   0.476  10.284  0.1315  0.0245  0.0340
  277loPI   PO4 4420  12.291   0.599   9.673  0.0257  0.0103  0.2421
  277loPI   GL1 4421  12.144   0.564   9.255  0.4770 -0.0129  0.1404
  277loPI   GL2 4422  12.215   0.322   9.040 -0.1177 -0.2316 -0.4248
  277loPI   C1A 4423  11.995   0.762   8.838  0.0450  0.0288 -0.0378
  277loPI   C2A 4424  12.064   0.661   8.414 -0.0397 -0.2378  0.0642
  277loPI   C3A 4425  12.030   0.561   8.037 -0.1237 -0.1981  0.1529
  277loPI   C4A 4426  11.925   0.102   7.865 -0.1520  0.1291 -0.1629
  277loPI   C5A 4427  12.005  -0.159   7.487 -0.0754  0.0202 -0.0162
  277loPI   C6A 4428  11.779  -0.287   7.183 -0.1923  0.0261 -0.0026
  277loPI   C1B 4429  12.185   0.206   8.564  0.2442 -0.0753  0.0622
  277loPI   C2B 4430  12.360   0.086   8.182  0.1578  0.1077 -0.0456
  277loPI   C3B 4431  12.412   0.271   7.772 -0.0666  0.1114 -0.2207
  277loPI   C4B 4432  12.033   0.465   7.532  0.2289  0.1172  0.0408
  278loPI    C1 4433  14.364   1.791   9.925 -0.0661 -0.0111 -0.1883
  278loPI    C2 4434  14.420   1.396   9.944 -0.1704 -0.0260 -0.1874
  278loPI    C3 4435  14.204   1.581  10.225  0.0137  0.0559 -0.0983
  278loPI   PO4 4436  14.575   1.785   9.692 -0.1586 -0.0553 -0.0453
  278loPI   GL1 4437  14.678   1.853   9.293 -0.1006  0.1846  0.0814
  278loPI   GL2 4438  14.852   2.226   9.120  0.0906  0.0561 -0.1311
  278loPI   C1A 4439  14.493   1.756   8.987 -0.1413  0.2184 -0.2167
  278loPI   C2A 4440  14.417   1.783   8.543  0.0985  0.0400 -0.1984
  278loPI   C3A 4441  14.285   1.917   8.072 -0.1830  0.0012  0.2432
  278loPI   C4A 4442  14.276   2.146   7.682 -0.3757 -0.0955  0.0851
  278loPI   C5A 4443  14.248   1.899   7.272  0.0279 -0.2143  0.0581
  278loPI   C6A 4444  14.136   1.601   7.098 -0.3520 -0.1042  0.1598
  278loPI   C1B 4445  14.930   2.007   8.803 -0.1228  0.0765  0.1194
  278loPI   C2B 4446  14.915   1.817   8.411  0.1341 -0.0311 -0.0132
  278loPI   C3B 4447  14.762   1.778   8.010  0.0852 -0.2412 -0.1954
  278loPI   C4B 4448  14.550   1.697   7.655  0.1133 -0.0747 -0.1909
  279loPI    C1 4449  12.593   9.448  10.471 -0.0353 -0.0313 -0.1127
  279loPI    C2 4450  12.260   9.562  10.660  0.0061 -0.0092 -0.0531
  279loPI    C3 4451  12.538   9.352  10.855  0.1026  0.1148 -0.0557
  279loPI   PO4 4452  12.464   9.408  10.203 -0.2871  0.0508  0.0556
  279loPI   GL1 4453  12.199   9.483   9.914  0.0233 -0.2881 -0.0452
  279loPI   GL2 4454  11.900   9.386   9.819 -0.0366  0.2159  0.1939
  279loPI   C1A 4455  12.398   9.639   9.550  0.0746 -0.2490 -0.2546
  279loPI   C2A 4456  12.690   9.968   9.406  0.0041  0.1745  0.1774
  279loPI   C3A 4457  13.053   9.982   9.103 -0.0477  0.0102  0.0053
  279loPI   C4A 4458  13.131  10.015   8.657 -0.1029  0.1989 -0.0507
  279loPI   C5A 4459  13.097   9.654   8.415 -0.1540 -0.2563 -0.1354
  279loPI   C6A 4460  13.129   9.545   8.072  0.1233 -0.0505 -0.1659
  279loPI   C1B 4461  11.898   9.520   9.418  0.0886 -0.1983 -0.2190
  279loPI   C2B 4462  11.778   9.566   9.002  0.0494  0.3202 -0.3941
  279loPI   C3B 4463  11.796   9.620   8.538  0.1899 -0.2530  0.1325
  279loPI   C4B 4464  12.091   9.548   8.198 -0.5864 -0.2369 -0.0944
  280loPI    C1 4465  11.767  17.926   9.983  0.0711 -0.2786  0.0652
  280loPI    C2 4466  11.627  17.769  10.323 -0.1400 -0.1491  0.0395
  280loPI    C3 4467  11.486  18.119  10.191  0.1515 -0.0555 -0.0307
  280loPI   PO4 4468  11.707  17.791   9.730 -0.2360  0.2059 -0.1485
  280loPI   GL1 4469  11.880  17.596   9.437 -0.0356 -0.0131 -0.1511
  280loPI   GL2 4470  12.085  17.826   9.359 -0.0706 -0.1001 -0.0315
  280loPI   C1A 4471  11.662  17.513   9.047  0.0405 -0.1838 -0.1191
  280loPI   C2A 4472  11.624  17.689   8.619 -0.1352 -0.0369  0.1103
  280loPI   C3A 4473  11.647  17.882   8.118  0.0386 -0.1195 -0.2510
  280loPI   C4A 4474  11.762  18.046   7.771 -0.2265  0.0414  0.0707
  280loPI   C5A 4475  12.143  18.134   7.500  0.0312  0.0434 -0.1534
  280loPI   C6A 4476  12.126  18.508   7.503  0.0872 -0.0191  0.2762
  280loPI   C1B 4477  12.379  17.839   8.983  0.2423  0.0018 -0.2066
  280loPI   C2B 4478  12.568  17.578   8.766  0.0601  0.3408  0.1623
  280loPI   C3B 4479  12.431  17.328   8.432 -0.3711 -0.2410  0.0308
  280loPI   C4B 4480  12.190  17.039   8.203 -0.1586  0.3368 -0.0674
  281loPI    C1 4481  15.194   2.490  10.081  0.1936  0.0017 -0.3865
  281loPI    C2 4482  15.427   2.773  10.242 -0.1147  0.1293 -0.1554
  281loPI    C3 4483  15.444   2.397  10.379 -0.0540  0.1409 -0.1307
  281loPI   PO4 4484  15.191   2.556   9.831 -0.0706  0.1793 -0.1179
  281loPI   GL1 4485  15.386   2.406   9.432 -0.1844 -0.1830 -0.1620
  281loPI   GL2 4486  15.397   2.724   9.408 -0.3597  0.1761 -0.1556
  281loPI   C1A 4487  15.259   2.566   9.004  0.0440  0.0359 -0.5221
  281loPI   C2A 4488  15.276   2.898   8.721 -0.1477 -0.2156  0.2156
  281loPI   C3A 4489  15.552   3.163   8.417  0.1058  0.1160  0.0585
  281loPI   C4A 4490  15.456   3.307   8.020 -0.0631  0.0280 -0.2672
  281loPI   C5A 4491  15.106   3.225   7.725  0.0849 -0.1466  0.1140
  281loPI   C6A 4492  14.763   2.964   7.440 -0.1690 -0.0630 -0.0502
  281loPI   C1B 4493  15.042   3.090   9.252  0.0073  0.0730 -0.1362
  281loPI   C2B 4494  14.801   3.256   8.967 -0.0928  0.2573  0.1810
  281loPI   C3B 4495  14.782   3.086   8.557  0.2449  0.0747  0.0931
  281loPI   C4B 4496  15.049   3.005   8.180 -0.0558  0.4281 -0.0749
  282loPI    C1 4497  14.704  18.775   9.893 -0.2379  0.1941  0.2804
  282loPI    C2 4498  14.567  18.736  10.266 -0.0736 -0.2308  0.3011
  282loPI    C3 4499  14.934  18.882  10.202 -0.1728  0.0199  0.2931
  282loPI   PO4 4500  14.495  18.850   9.766  0.1677 -0.1568 -0.0601
  282loPI   GL1 4501  14.573  19.018   9.439  0.1059 -0.2133 -0.0065
  282loPI   GL2 4502  14.838  19.166   9.503 -0.0149 -0.0245 -0.0397
  282loPI   C1A 4503  14.517  18.967   9.030 -0.1587  0.0136  0.0959
  282loPI   C2A 4504  14.576  19.032   8.555 -0.1882 -0.1991 -0.3993
  282loPI   C3A 4505  14.685  18.968   8.209 -0.4633  0.2715  0.1674
  282loPI   C4A 4506  14.419  18.863   7.872 -0.0690  0.0180  0.2352
  282loPI   C5A 4507  14.488  18.897   7.403 -0.1428  0.2028  0.0742
  282loPI   C6A 4508  14.408  18.803   6.987 -0.3485 -0.1320 -0.1861
  282loPI   C1B 4509  14.967  19.193   9.015 -0.2773 -0.0939 -0.0559
  282loPI   C2B 4510  14.863  19.399   8.658 -0.1189  0.2693 -0.1857
  282loPI   C3B 4511  14.818  19.509   8.156  0.0496 -0.1816  0.2505
  282loPI   C4B 4512  14.737  19.294   7.757 -0.1233  0.1338 -0.0314
  283loPI    C1 4513   1.704  14.369  10.336 -0.2206  0.1127  0.0575
  283loPI    C2 4514   1.660  13.972  10.316  0.2533  0.0603 -0.0392
  283loPI    C3 4515   1.712  14.149  10.670  0.2378  0.0132 -0.0132
  283loPI   PO4 4516   1.538  14.367  10.072  0.0170 -0.0291 -0.0506
  283loPI   GL1 4517   1.306  14.489   9.674  0.0638 -0.1376  0.2434
  283loPI   GL2 4518   1.150  14.326   9.492 -0.0390  0.2071  0.0985
  283loPI   C1A 4519   1.598  14.489   9.311  0.1889 -0.1520  0.1494
  283loPI   C2A 4520   1.690  14.647   8.842  0.2316  0.3157  0.2495
  283loPI   C3A 4521   1.652  14.561   8.394 -0.1180 -0.2017 -0.2959
  283loPI   C4A 4522   1.746  14.658   7.911 -0.0459  0.0212 -0.2191
  283loPI   C5A 4523   2.047  14.841   7.650 -0.1086 -0.0047  0.1108
  283loPI   C6A 4524   1.907  15.110   7.290 -0.2718  0.4008  0.0385
  283loPI   C1B 4525   1.312  14.140   9.054 -0.0661  0.2045 -0.0381
  283loPI   C2B 4526   1.654  14.186   8.700 -0.0470  0.0264  0.0690
  283loPI   C3B 4527   1.860  14.138   8.311  0.2006  0.0356 -0.0449
  283loPI   C4B 4528   1.956  14.204   7.919 -0.1435 -0.0054  0.1318
  284loPI    C1 4529  15.500   3.113   9.898  0.0413 -0.3022 -0.2685
  284loPI    C2 4530  15.154   3.009   9.725 -0.3251  0.0927  0.1974
  284loPI    C3 4531  15.256   3.395   9.751  0.1551 -0.0197  0.0691
  284loPI   PO4 4532  15.643   3.008   9.802  0.1673 -0.0944 -0.0370
  284loPI   GL1 4533  15.912   2.796   9.493  0.1322  0.1011 -0.1105
  284loPI   GL2 4534  15.930   2.990   9.246 -0.0403  0.1245  0.1431
  284loPI   C1A 4535  15.756   2.518   9.110  0.1130  0.1140 -0.3919
  284loPI   C2A 4536  15.625   2.454   8.671 -0.5008 -0.1858 -0.1550
  284loPI   C3A 4537  15.704   2.729   8.290  0.0131  0.2119 -0.3293
  284loPI   C4A 4538  15.877   3.019   8.021 -0.2265 -0.0583  0.0256
  284loPI   C5A 4539  16.244   2.994   7.650 -0.0977 -0.1064 -0.1555
  284loPI   C6A 4540  16.375   3.325   7.344  0.2171 -0.0346  0.0884
  284loPI   C1B 4541  15.836   2.916   8.789  0.5244  0.2138  0.2892
  284loPI   C2B 4542  16.110   2.929   8.431  0.3036 -0.1695 -0.0233
  284loPI   C3B 4543  16.408   2.821   8.093  0.1593  0.0878 -0.1960
  284loPI   C4B 4544  16.875   2.859   8.068  0.2465  0.1014 -0.1427
  285loPI    C1 4545  18.291  18.265   9.824 -0.3315 -0.0754  0.2282
  285loPI    C2 4546  18.396  17.902   9.957  0.0677  0.0849  0.3670
  285loPI    C3 4547  18.363  18.208  10.213 -0.2920  0.1458  0.2542
  285loPI   PO4 4548  18.511  18.236   9.606  0.2110  0.1891  0.2875
  285loPI   GL1 4549  18.677  18.245   9.219  0.1968  0.2299 -0.2927
  285loPI   GL2 4550  18.396  18.087   9.092  0.0309  0.2242 -0.2322
  285loPI   C1A 4551  18.633  18.400   8.757 -0.1744  0.0506  0.2877
  285loPI   C2A 4552  18.879  18.595   8.382  0.0137 -0.0391 -0.5621
  285loPI   C3A 4553  18.811  18.799   7.992  0.3610  0.0256  0.0248
  285loPI   C4A 4554  18.739  18.886   7.617  0.2281  0.0131  0.3415
  285loPI   C5A 4555  18.992  18.807   7.267  0.1458  0.0870 -0.0078
  285loPI   C6A 4556  18.870  18.872   6.846 -0.1863  0.1312  0.1322
  285loPI   C1B 4557  18.288  17.987   8.692 -0.1446 -0.3214  0.2019
  285loPI   C2B 4558  18.311  18.025   8.242  0.0041  0.2181 -0.1895
  285loPI   C3B 4559  18.322  18.080   7.763 -0.0177  0.2080  0.4195
  285loPI   C4B 4560  18.221  18.029   7.332 -0.1683  0.3349 -0.0713
  286loPI    C1 4561   7.599   0.412  10.016 -0.0279 -0.0717 -0.0583
  286loPI    C2 4562   7.229   0.413  10.166 -0.0385 -0.0421 -0.0843
  286loPI    C3 4563   7.531   0.569  10.377 -0.0344 -0.0991 -0.0476
  286loPI   PO4 4564   7.611   0.534   9.746  0.0426  0.2744 -0.0753
  286loPI   GL1 4565   7.440   0.553   9.354 -0.0190 -0.2287  0.0122
  286loPI   GL2 4566   7.630   0.741   9.248  0.0054 -0.0312  0.1286
  286loPI   C1A 4567   7.339   0.561   8.871 -0.2222 -0.3409  0.0796
  286loPI   C2A 4568   7.005   0.710   8.532  0.1992 -0.0198 -0.3068
  286loPI   C3A 4569   6.695   0.688   8.282 -0.0942 -0.2315  0.0947
  286loPI   C4A 4570   6.635   0.506   7.917 -0.0389 -0.1084 -0.0473
  286loPI   C5A 4571   6.483   0.246   7.554  0.0044 -0.0122 -0.1663
  286loPI   C6A 4572   6.638   0.137   7.154  0.1751 -0.1095 -0.4323
  286loPI   C1B 4573   7.847   0.332   9.018 -0.4140 -0.0081 -0.1781
  286loPI   C2B 4574   8.078  -0.172   9.096  0.0015  0.0553 -0.1748
  286loPI   C3B 4575   8.206  -0.451   8.803  0.3049  0.0958  0.0615
  286loPI   C4B 4576   8.487  -0.761   8.619  0.0742  0.2525 -0.1458
  287loPI    C1 4577  13.910  19.095   9.716 -0.0213 -0.0912 -0.1896
  287loPI    C2 4578  14.058  18.832   9.979 -0.1271  0.0314 -0.0055
  287loPI    C3 4579  14.068  19.224  10.060 -0.0961  0.0755 -0.2169
  287loPI   PO4 4580  14.059  18.981   9.492  0.0953 -0.0017  0.0619
  287loPI   GL1 4581  14.015  19.143   9.150 -0.3281 -0.1120 -0.1616
  287loPI   GL2 4582  13.707  19.387   9.170 -0.1557 -0.0314  0.0389
  287loPI   C1A 4583  13.836  19.316   8.650 -0.0748  0.0142 -0.0128
  287loPI   C2A 4584  13.906  19.545   8.343  0.1351 -0.1489  0.0457
  287loPI   C3A 4585  13.890  19.625   7.820 -0.1261  0.0326 -0.0217
  287loPI   C4A 4586  13.600  19.435   7.453 -0.1725 -0.0306 -0.6636
  287loPI   C5A 4587  13.331  19.701   7.157 -0.1508 -0.0364  0.0954
  287loPI   C6A 4588  13.163  19.854   6.743 -0.2474  0.2098 -0.1461
  287loPI   C1B 4589  13.394  19.351   8.838 -0.2309 -0.0242 -0.2760
  287loPI   C2B 4590  13.246  19.454   8.451 -0.1689 -0.2600 -0.1493
  287loPI   C3B 4591  13.289  19.495   7.977 -0.1351 -0.3611  0.1030
  287loPI   C4B 4592  13.228  19.144   7.694 -0.0178  0.2180  0.2841
  288loPI    C1 4593   1.477  16.676  10.201 -0.0767  0.0539 -0.0890
  288loPI    C2 4594   1.506  16.307  10.050 -0.0714 -0.0540  0.1716
  288loPI    C3 4595   1.408  16.359  10.434 -0.2410  0.2215  0.0938
  288loPI   PO4 4596   1.395  16.832  10.054 -0.2354 -0.2370 -0.2196
  288loPI   GL1 4597   1.260  16.749   9.675 -0.0318  0.0385 -0.0478
  288loPI   GL2 4598   1.424  16.516   9.550 -0.1821  0.2020 -0.0026
  288loPI   C1A 4599   1.239  17.058   9.389  0.0277  0.2401 -0.0920
  288loPI   C2A 4600   0.939  17.188   9.058  0.0250 -0.0667 -0.3280
  288loPI   C3A 4601   1.013  17.262   8.640 -0.1962  0.4016 -0.2428
  288loPI   C4A 4602   0.943  17.171   8.198  0.0275  0.0409 -0.0610
  288loPI   C5A 4603   1.112  16.973   7.816  0.1684  0.1074 -0.0503
  288loPI   C6A 4604   1.055  16.739   7.449  0.3229 -0.4109  0.0969
  288loPI   C1B 4605   1.427  16.611   9.108 -0.1517 -0.3714 -0.2797
  288loPI   C2B 4606   1.634  16.623   8.764 -0.1506  0.1774  0.1277
  288loPI   C3B 4607   1.770  16.548   8.356  0.0278 -0.0865 -0.2073
  288loPI   C4B 4608   1.701  16.422   7.977  0.2007 -0.0404 -0.2435
  289loPI    C1 4609   8.156   4.685   9.865 -0.2999  0.2121  0.2553
  289loPI    C2 4610   8.320   4.771  10.219  0.1399 -0.0369  0.1201
  289loPI    C3 4611   8.335   4.398  10.077 -0.0670  0.0525 -0.1459
  289loPI   PO4 4612   8.279   4.886   9.700 -0.1776  0.2581  0.0169
  289loPI   GL1 4613   8.317   5.116   9.358 -0.3866 -0.1760  0.0455
  289loPI   GL2 4614   8.292   5.320   9.238  0.3038  0.0781  0.0793
  289loPI   C1A 4615   8.647   4.922   9.193  0.1439  0.1942  0.0352
  289loPI   C2A 4616   8.944   4.829   8.854  0.4026 -0.0774  0.0434
  289loPI   C3A 4617   9.152   4.709   8.402  0.0137  0.0592  0.1118
  289loPI   C4A 4618   8.994   4.780   8.088  0.0143  0.2213 -0.1174
  289loPI   C5A 4619   8.878   4.746   7.598 -0.3630 -0.1934 -0.2215
  289loPI   C6A 4620   8.666   4.478   7.291 -0.0375 -0.0319  0.0874
  289loPI   C1B 4621   8.470   5.279   8.829 -0.0924 -0.2076  0.2759
  289loPI   C2B 4622   8.739   5.279   8.451 -0.1534 -0.2160 -0.1466
  289loPI   C3B 4623   8.694   5.183   8.087 -0.0087  0.1509 -0.0123
  289loPI   C4B 4624   8.633   5.478   7.782  0.0642  0.2745  0.0656
  290loPI    C1 4625  13.965   5.265  10.068 -0.0758 -0.0046 -0.1376
  290loPI    C2 4626  14.339   5.338  10.192 -0.0628  0.0737 -0.2224
  290loPI    C3 4627  14.219   4.961  10.129 -0.0076  0.0464 -0.1657
  290loPI   PO4 4628  13.988   5.373   9.832 -0.2858 -0.3405  0.1481
  290loPI   GL1 4629  14.051   5.182   9.434  0.1777 -0.2217  0.1122
  290loPI   GL2 4630  14.404   5.055   9.584  0.0283 -0.1043 -0.3406
  290loPI   C1A 4631  14.232   5.295   8.991  0.0872 -0.0396 -0.0037
  290loPI   C2A 4632  14.171   5.560   8.647 -0.2187 -0.0184 -0.3124
  290loPI   C3A 4633  13.753   5.685   8.781 -0.0080 -0.1939 -0.3096
  290loPI   C4A 4634  13.402   5.882   8.491  0.0904  0.0391 -0.1670
  290loPI   C5A 4635  13.167   6.104   8.112  0.2937 -0.0342  0.1086
  290loPI   C6A 4636  13.133   6.555   8.091 -0.0530 -0.1361  0.0167
  290loPI   C1B 4637  14.676   5.245   9.166  0.2571 -0.4226  0.0169
  290loPI   C2B 4638  14.897   5.247   8.851  0.2520 -0.0244  0.1576
  290loPI   C3B 4639  15.134   5.392   8.449  0.2728  0.0257 -0.1405
  290loPI   C4B 4640  15.399   5.348   8.116  0.0153  0.0755  0.1753
  291loPI    C1 4641   2.370  18.260  10.267  0.0337  0.3402 -0.0942
  291loPI    C2 4642   2.617  18.221  10.578  0.0233  0.1993 -0.1029
  291loPI    C3 4643   2.234  18.114  10.613  0.0329  0.1396 -0.1778
  291loPI   PO4 4644   2.504  18.302  10.046 -0.2987  0.0761 -0.2650
  291loPI   GL1 4645   2.509  18.355   9.655  0.1527  0.3257 -0.0691
  291loPI   GL2 4646   2.447  18.098   9.624  0.0157  0.1428 -0.0512
  291loPI   C1A 4647   2.494  18.460   9.267 -0.0461  0.0826  0.2310
  291loPI   C2A 4648   2.454  18.320   8.830  0.0630 -0.0023 -0.0171
  291loPI   C3A 4649   2.234  18.512   8.538 -0.1851  0.1383 -0.0410
  291loPI   C4A 4650   2.122  18.652   8.116  0.1989 -0.2732 -0.0380
  291loPI   C5A 4651   2.008  18.595   7.634  0.2554 -0.0299  0.2616
  291loPI   C6A 4652   2.006  18.968   7.306  0.0868  0.3828  0.1534
  291loPI   C1B 4653   2.656  17.947   9.184  0.2307 -0.1548  0.0893
  291loPI   C2B 4654   2.762  17.965   8.800 -0.2482 -0.0537 -0.0855
  291loPI   C3B 4655   2.534  18.000   8.397 -0.1487  0.0671 -0.0205
  291loPI   C4B 4656   2.501  17.609   8.237  0.1416 -0.2391  0.2184
  292loPI    C1 4657   3.036  15.500  10.345  0.0046  0.0901 -0.0720
  292loPI    C2 4658   2.994  15.686  10.696  0.0972 -0.3384  0.1736
  292loPI    C3 4659   3.358  15.586  10.565  0.0661 -0.1468 -0.0666
  292loPI   PO4 4660   2.769  15.619  10.219 -0.2047  0.1858 -0.2676
  292loPI   GL1 4661   2.452  15.597   9.939  0.0525  0.0642  0.0812
  292loPI   GL2 4662   2.471  15.890   9.926 -0.2859 -0.1606  0.1553
  292loPI   C1A 4663   2.659  15.669   9.515 -0.1319  0.2525 -0.0744
  292loPI   C2A 4664   2.601  15.841   9.130 -0.2463  0.1526 -0.1357
  292loPI   C3A 4665   2.598  15.677   8.712  0.2079 -0.2279  0.2167
  292loPI   C4A 4666   2.564  15.792   8.202 -0.0927 -0.0977  0.0949
  292loPI   C5A 4667   2.384  15.874   7.791 -0.2935  0.0503 -0.2008
  292loPI   C6A 4668   2.407  15.869   7.356 -0.2169 -0.0085  0.0966
  292loPI   C1B 4669   2.405  16.187   9.559  0.1083 -0.0146  0.2519
  292loPI   C2B 4670   2.190  16.364   9.200 -0.2760 -0.3588  0.0205
  292loPI   C3B 4671   1.939  16.732   9.296  0.0937 -0.0839  0.1732
  292loPI   C4B 4672   1.990  17.099   9.033  0.0219 -0.3759 -0.4125
  293loPI    C1 4673  15.853  13.723   9.994  0.0817 -0.1775 -0.0060
  293loPI    C2 4674  15.586  13.447  10.107 -0.2495  0.1394  0.0022
  293loPI    C3 4675  15.598  13.801  10.293  0.2493  0.0942  0.0694
  293loPI   PO4 4676  15.878  13.721   9.778  0.0062 -0.1413  0.1968
  293loPI   GL1 4677  16.035  13.919   9.436  0.1988  0.0703 -0.2042
  293loPI   GL2 4678  16.215  14.132   9.414  0.1099 -0.0495  0.0531
  293loPI   C1A 4679  15.826  13.635   9.146  0.0325  0.0405  0.2529
  293loPI   C2A 4680  15.751  13.630   8.743 -0.2482  0.0505 -0.0250
  293loPI   C3A 4681  15.940  13.460   8.320 -0.1267  0.2048 -0.0668
  293loPI   C4A 4682  15.743  13.333   7.951  0.3631 -0.3328  0.2597
  293loPI   C5A 4683  15.648  13.580   7.612  0.4811  0.0751 -0.1144
  293loPI   C6A 4684  15.547  13.834   7.104 -0.1680  0.1281  0.0281
  293loPI   C1B 4685  16.136  14.029   8.965 -0.1048  0.0201 -0.3471
  293loPI   C2B 4686  16.033  13.992   8.546  0.0515  0.2444 -0.1148
  293loPI   C3B 4687  16.173  13.944   8.127 -0.1345  0.0928 -0.0427
  293loPI   C4B 4688  16.138  13.626   7.818  0.2758 -0.0636  0.0534
  294loPI    C1 4689   1.422  19.041   9.999 -0.0614 -0.0943  0.5356
  294loPI    C2 4690   1.196  19.358   9.907  0.0768 -0.1898 -0.1987
  294loPI    C3 4691   1.584  19.407   9.991 -0.0061 -0.1223  0.1613
  294loPI   PO4 4692   1.337  18.930   9.827 -0.0294  0.4940  0.1777
  294loPI   GL1 4693   1.318  18.668   9.480  0.2921  0.1509 -0.2004
  294loPI   GL2 4694   1.159  18.984   9.315  0.1662 -0.2790  0.1025
  294loPI   C1A 4695   1.354  18.503   9.120 -0.2014 -0.0768  0.1632
  294loPI   C2A 4696   1.427  18.447   8.761  0.4108 -0.2582  0.0648
  294loPI   C3A 4697   1.552  18.394   8.232 -0.2270 -0.2096 -0.0200
  294loPI   C4A 4698   1.700  18.310   7.884 -0.0155 -0.1348 -0.1166
  294loPI   C5A 4699   1.949  18.146   7.462  0.2896 -0.0216 -0.7047
  294loPI   C6A 4700   2.234  18.092   7.026  0.2322  0.0052 -0.2771
  294loPI   C1B 4701   1.214  18.917   8.901 -0.0107  0.1685  0.0131
  294loPI   C2B 4702   1.282  18.893   8.557  0.0284 -0.3231  0.0683
  294loPI   C3B 4703   1.128  18.661   8.193  0.1991 -0.0080  0.0246
  294loPI   C4B 4704   1.144  18.256   7.994  0.0565  0.0136 -0.0782
  295loPI    C1 4705  16.944   8.263   9.966 -0.1275 -0.1330  0.0614
  295loPI    C2 4706  16.772   7.906  10.021  0.1753 -0.2412  0.3405
  295loPI    C3 4707  16.696   8.206  10.274 -0.0649 -0.1086  0.1164
  295loPI   PO4 4708  16.904   8.324   9.736 -0.2118 -0.2101  0.1004
  295loPI   GL1 4709  17.176   8.429   9.499  0.4163 -0.0805  0.0605
  295loPI   GL2 4710  17.275   8.760   9.332  0.0213 -0.0003 -0.0922
  295loPI   C1A 4711  16.952   8.500   9.058  0.2334  0.4270  0.0877
  295loPI   C2A 4712  17.000   8.496   8.600 -0.0760 -0.4507  0.5230
  295loPI   C3A 4713  16.761   8.340   8.407 -0.4469 -0.4958  0.0921
  295loPI   C4A 4714  16.628   8.537   8.103  0.0557 -0.0655  0.1024
  295loPI   C5A 4715  16.466   8.911   7.863 -0.0525 -0.1915  0.0832
  295loPI   C6A 4716  16.197   9.150   7.602 -0.5357 -0.3286 -0.3260
  295loPI   C1B 4717  17.521   8.567   8.929  0.0596  0.0920  0.3025
  295loPI   C2B 4718  17.509   8.700   8.406  0.0803  0.0906  0.1424
  295loPI   C3B 4719  17.209   8.728   8.127  0.4595  0.0370  0.1831
  295loPI   C4B 4720  16.885   8.635   7.697  0.1914 -0.0098 -0.2395
  296loPI    C1 4721   3.945   8.583  10.652  0.0742  0.0379 -0.3021
  296loPI    C2 4722   3.848   8.234  10.823 -0.0527  0.2346  0.0370
  296loPI    C3 4723   4.106   8.481  11.004  0.1413  0.2600 -0.2667
  296loPI   PO4 4724   3.843   8.514  10.415  0.3488 -0.1661  0.1820
  296loPI   GL1 4725   3.837   8.602   9.932 -0.0283  0.0649 -0.1622
  296loPI   GL2 4726   3.528   8.590   9.984 -0.4308 -0.1489  0.2448
  296loPI   C1A 4727   3.820   8.545   9.449 -0.1853 -0.2107  0.3537
  296loPI   C2A 4728   3.741   8.430   9.096 -0.0646  0.0677  0.2669
  296loPI   C3A 4729   3.914   8.325   8.678  0.1292  0.1924  0.4131
  296loPI   C4A 4730   4.174   8.481   8.376 -0.0002  0.1290 -0.2212
  296loPI   C5A 4731   4.088   8.426   7.938  0.1233 -0.2318 -0.3742
  296loPI   C6A 4732   4.333   8.356   7.542 -0.1596 -0.0653  0.1231
  296loPI   C1B 4733   3.315   8.580   9.565 -0.0665 -0.0864  0.3790
  296loPI   C2B 4734   2.961   8.631   9.372 -0.1707 -0.0481  0.0574
  296loPI   C3B 4735   2.692   8.340   9.091 -0.1265 -0.0676  0.2435
  296loPI   C4B 4736   2.349   8.261   8.963 -0.1781  0.2102 -0.1042
  297loPI    C1 4737  10.632  12.099  10.083 -0.2045 -0.1907  0.1845
  297loPI    C2 4738  10.842  12.003  10.409 -0.0212  0.1520  0.1720
  297loPI    C3 4739  10.516  11.792  10.312  0.0208 -0.0609  0.4781
  297loPI   PO4 4740  10.878  12.163   9.869  0.1003  0.0537  0.2574
  297loPI   GL1 4741  11.053  12.171   9.481 -0.0926 -0.4542  0.4587
  297loPI   GL2 4742  11.131  12.312   9.224  0.2405  0.2034  0.0508
  297loPI   C1A 4743  10.917  11.851   9.231  0.0661  0.0538  0.0818
  297loPI   C2A 4744  11.182  11.496   9.122 -0.0325 -0.0278 -0.5208
  297loPI   C3A 4745  11.241  11.233   8.785 -0.0538  0.0430 -0.0791
  297loPI   C4A 4746  11.358  10.920   8.363  0.2986  0.3041 -0.3038
  297loPI   C5A 4747  11.388  10.951   7.896 -0.2098 -0.0513 -0.2407
  297loPI   C6A 4748  11.456  10.866   7.346 -0.0768  0.1460  0.2888
  297loPI   C1B 4749  10.717  12.177   8.927 -0.2562  0.0849  0.0636
  297loPI   C2B 4750  10.581  12.106   8.464 -0.1330  0.0068 -0.1323
  297loPI   C3B 4751  10.428  12.132   8.076  0.2904 -0.1381 -0.1544
  297loPI   C4B 4752  10.615  12.126   7.707 -0.0258  0.1051  0.3287
  298loPI    C1 4753  14.032   7.885  10.324 -0.1436  0.0192  0.3985
  298loPI    C2 4754  13.728   7.723  10.528 -0.1462  0.0042  0.3828
  298loPI    C3 4755  14.103   7.676  10.658 -0.1016 -0.4280  0.1167
  298loPI   PO4 4756  13.990   7.795  10.112  0.2274 -0.0390  0.2511
  298loPI   GL1 4757  13.985   7.617   9.587 -0.0973  0.0596  0.0994
  298loPI   GL2 4758  14.120   7.816   9.623 -0.1516 -0.0765  0.0044
  298loPI   C1A 4759  14.155   7.500   9.142 -0.1686 -0.2376 -0.4811
  298loPI   C2A 4760  14.221   7.542   8.659 -0.1476  0.3038 -0.1868
  298loPI   C3A 4761  14.031   7.574   8.255 -0.0188  0.0688 -0.0079
  298loPI   C4A 4762  14.098   7.464   7.885 -0.0097 -0.3023  0.0932
  298loPI   C5A 4763  14.429   7.442   7.644 -0.0061  0.0245 -0.0558
  298loPI   C6A 4764  14.609   7.602   7.306 -0.1090 -0.4528 -0.2448
  298loPI   C1B 4765  14.208   7.981   9.205  0.1094 -0.2168  0.0281
  298loPI   C2B 4766  14.193   8.042   8.842 -0.2790  0.0466  0.1380
  298loPI   C3B 4767  14.257   8.021   8.367 -0.0247  0.0480 -0.1567
  298loPI   C4B 4768  14.266   8.324   8.047 -0.0705 -0.2161 -0.0543
  299loPI    C1 4769   7.000   5.721   9.798 -0.2726  0.1529 -0.0641
  299loPI    C2 4770   6.789   5.593  10.113 -0.2530  0.0876 -0.0775
  299loPI    C3 4771   7.188   5.602  10.130 -0.2491  0.0162 -0.1257
  299loPI   PO4 4772   7.007   5.882   9.743 -0.2172  0.0878 -0.1156
  299loPI   GL1 4773   6.576   5.852   9.399 -0.0001 -0.0359 -0.1929
  299loPI   GL2 4774   6.672   6.213   9.359  0.0182 -0.1592  0.1015
  299loPI   C1A 4775   6.306   5.843   9.048 -0.1028  0.0374  0.0580
  299loPI   C2A 4776   6.379   5.956   8.593 -0.1225  0.3786 -0.0372
  299loPI   C3A 4777   6.616   5.855   8.308 -0.3143 -0.1982  0.1362
  299loPI   C4A 4778   6.509   6.012   7.877 -0.2358 -0.1689 -0.2629
  299loPI   C5A 4779   6.334   6.165   7.550  0.0109  0.2303 -0.0075
  299loPI   C6A 4780   5.906   6.324   7.406 -0.1573  0.1544  0.0611
  299loPI   C1B 4781   6.411   6.450   9.110 -0.0313 -0.1148 -0.1421
  299loPI   C2B 4782   6.452   6.447   8.704 -0.0390 -0.0205  0.0785
  299loPI   C3B 4783   6.537   6.361   8.258 -0.4021 -0.1311 -0.2342
  299loPI   C4B 4784   6.479   6.538   7.902 -0.1394 -0.1370 -0.2181
  300loPI    C1 4785   6.000  12.364   9.969  0.1049  0.3501 -0.0679
  300loPI    C2 4786   5.953  12.575  10.305  0.2703 -0.0596  0.2210
  300loPI    C3 4787   5.794  12.210  10.275  0.2339 -0.0160 -0.1609
  300loPI   PO4 4788   5.981  12.486   9.790  0.2351  0.1702 -0.0215
  300loPI   GL1 4789   5.881  12.408   9.325 -0.0044 -0.1372  0.0772
  300loPI   GL2 4790   6.179  12.527   9.319  0.3336 -0.1210 -0.3056
  300loPI   C1A 4791   5.795  12.471   8.857 -0.2086  0.3317  0.2787
  300loPI   C2A 4792   5.613  12.652   8.557  0.1076  0.0338  0.5187
  300loPI   C3A 4793   5.582  12.688   8.079  0.3884 -0.0059 -0.2172
  300loPI   C4A 4794   5.342  12.661   7.849  0.2582  0.0644 -0.1340
  300loPI   C5A 4795   5.118  12.731   7.531 -0.0150  0.0980  0.5507
  300loPI   C6A 4796   4.936  12.458   7.153 -0.2420  0.1448  0.1749
  300loPI   C1B 4797   6.275  12.255   8.940  0.3515 -0.1507  0.0724
  300loPI   C2B 4798   6.124  12.153   8.540  0.1149  0.1817 -0.2865
  300loPI   C3B 4799   6.203  11.996   8.122 -0.0900 -0.0148  0.0821
  300loPI   C4B 4800   6.328  11.872   7.715 -0.2513  0.3322 -0.2856
  301loPI    C1 4801  18.677  11.999  10.206 -0.1552  0.0328 -0.0411
  301loPI    C2 4802  18.378  11.776  10.350  0.0011 -0.0468  0.1665
  301loPI    C3 4803  18.753  11.712  10.474  0.1019  0.0710 -0.0696
  301loPI   PO4 4804  18.670  11.960   9.927 -0.0036 -0.1133  0.0159
  301loPI   GL1 4805  18.991  11.976   9.572 -0.0775  0.0529 -0.1225
  301loPI   GL2 4806  18.772  12.165   9.421  0.1549  0.4162  0.1868
  301loPI   C1A 4807  19.297  11.862   9.228  0.0302 -0.0691 -0.2018
  301loPI   C2A 4808  19.468  12.122   8.998 -0.3838  0.1089  0.1506
  301loPI   C3A 4809  19.434  12.349   8.617 -0.1306  0.3460  0.0759
  301loPI   C4A 4810  19.264  12.604   8.294  0.3356 -0.0337 -0.0056
  301loPI   C5A 4811  19.248  12.729   7.855  0.0413 -0.1251  0.2315
  301loPI   C6A 4812  19.206  12.955   7.532 -0.0949 -0.0359  0.1516
  301loPI   C1B 4813  19.139  12.387   9.277 -0.0995  0.0919 -0.2110
  301loPI   C2B 4814  19.065  12.560   8.884 -0.0298  0.2080  0.2260
  301loPI   C3B 4815  18.813  12.804   8.793  0.2378 -0.1000  0.1852
  301loPI   C4B 4816  18.446  12.701   8.471  0.0807 -0.1031 -0.0606
  302loPI    C1 4817   9.262   9.656  10.219  0.0227  0.0743 -0.0262
  302loPI    C2 4818   8.947   9.875  10.331 -0.0459 -0.0743  0.0737
  302loPI    C3 4819   9.077   9.577  10.565  0.2338  0.0524  0.0835
  302loPI   PO4 4820   9.198   9.525   9.998  0.2171  0.0685 -0.1757
  302loPI   GL1 4821   9.194   9.662   9.582  0.1329  0.1123 -0.0250
  302loPI   GL2 4822   9.035   9.431   9.437 -0.1094  0.1252  0.2323
  302loPI   C1A 4823   9.394   9.895   9.327 -0.1967  0.1320  0.2090
  302loPI   C2A 4824   9.464   9.930   8.946  0.2289  0.0906  0.3250
  302loPI   C3A 4825   9.316   9.978   8.403 -0.4706 -0.0877  0.0098
  302loPI   C4A 4826   9.255  10.364   8.163  0.2257  0.0086  0.4908
  302loPI   C5A 4827   9.040  10.503   7.712  0.3441  0.1180 -0.0424
  302loPI   C6A 4828   8.862  10.538   7.381 -0.0469  0.0942  0.1340
  302loPI   C1B 4829   8.908   9.159   9.082  0.1668  0.1268 -0.1246
  302loPI   C2B 4830   9.029   9.234   8.682 -0.0608 -0.3023 -0.1948
  302loPI   C3B 4831   8.925   9.560   8.350  0.1070 -0.0073 -0.0112
  302loPI   C4B 4832   8.946   9.887   8.026 -0.0183  0.0713  0.3540
  303loPI    C1 4833  13.498  18.931  10.026 -0.0582 -0.1045 -0.0152
  303loPI    C2 4834  13.200  18.711  10.178 -0.1101 -0.0891 -0.0944
  303loPI    C3 4835  13.140  19.097  10.093 -0.1007 -0.1136 -0.2148
  303loPI   PO4 4836  13.556  18.793   9.780  0.1084  0.1158  0.1185
  303loPI   GL1 4837  13.697  18.747   9.266 -0.0460  0.1588  0.0902
  303loPI   GL2 4838  13.386  18.999   9.230  0.0571 -0.0613  0.1407
  303loPI   C1A 4839  13.886  18.766   8.873 -0.0563 -0.0233 -0.0822
  303loPI   C2A 4840  14.078  18.927   8.483 -0.2923 -0.4292 -0.0863
  303loPI   C3A 4841  13.939  18.727   8.024 -0.1937  0.0319  0.1776
  303loPI   C4A 4842  14.099  18.540   7.628 -0.1253 -0.1099 -0.0726
  303loPI   C5A 4843  13.938  18.438   7.241  0.0062  0.2185 -0.2008
  303loPI   C6A 4844  14.258  18.312   7.048  0.0689  0.2758  0.0096
  303loPI   C1B 4845  13.379  18.798   8.809 -0.1827  0.3548 -0.4423
  303loPI   C2B 4846  13.543  18.712   8.409  0.0245 -0.1159 -0.3050
  303loPI   C3B 4847  13.403  18.657   7.828 -0.0179  0.2131  0.1779
  303loPI   C4B 4848  13.510  18.554   7.405  0.0983  0.0504 -0.2101
  304loPI    C1 4849  10.160  11.074   9.966 -0.0301  0.0044  0.1705
  304loPI    C2 4850  10.281  11.065  10.348  0.1295  0.2220  0.1271
  304loPI    C3 4851  10.200  11.415  10.172  0.4343  0.1557 -0.1540
  304loPI   PO4 4852   9.969  10.880   9.923  0.1186 -0.2413  0.1118
  304loPI   GL1 4853   9.936  10.628   9.624  0.0760  0.1768 -0.0963
  304loPI   GL2 4854   9.693  10.661   9.403  0.1243  0.2161  0.1895
  304loPI   C1A 4855  10.331  10.591   9.346 -0.0974  0.2692 -0.2917
  304loPI   C2A 4856  10.641  10.489   9.007 -0.2105 -0.2405 -0.0916
  304loPI   C3A 4857  10.738  10.291   8.611 -0.1247  0.0219  0.0485
  304loPI   C4A 4858  10.835  10.143   8.224  0.0623  0.0450 -0.0751
  304loPI   C5A 4859  10.858  10.209   7.812  0.1405 -0.2262  0.1647
  304loPI   C6A 4860  11.060   9.986   7.386  0.3879  0.0501 -0.1379
  304loPI   C1B 4861   9.872  10.788   9.149 -0.2132  0.4004  0.3517
  304loPI   C2B 4862  10.138  10.820   8.824  0.2309 -0.1373 -0.0606
  304loPI   C3B 4863  10.445  10.739   8.391  0.4936 -0.3108  0.1536
  304loPI   C4B 4864  10.452  10.431   8.049  0.2473  0.2130  0.0049
  305loPI    C1 4865  16.134  12.124  10.347 -0.0468  0.1022  0.2062
  305loPI    C2 4866  16.429  12.105  10.616  0.1738 -0.0703 -0.0423
  305loPI    C3 4867  16.229  11.774  10.515  0.0336  0.0092 -0.0287
  305loPI   PO4 4868  16.186  12.262  10.158  0.3404  0.3482 -0.1459
  305loPI   GL1 4869  16.458  12.298   9.734  0.0148 -0.2530  0.0549
  305loPI   GL2 4870  16.496  12.578   9.872  0.0184 -0.0085 -0.0727
  305loPI   C1A 4871  16.035  12.259   9.396  0.0308 -0.0668 -0.1802
  305loPI   C2A 4872  16.060  12.556   9.098 -0.0726 -0.1207 -0.2680
  305loPI   C3A 4873  15.930  12.729   8.723  0.0939 -0.0202  0.1683
  305loPI   C4A 4874  15.986  12.744   8.169  0.2150 -0.1597 -0.0834
  305loPI   C5A 4875  15.933  12.488   7.811  0.1928  0.1651 -0.0171
  305loPI   C6A 4876  15.612  12.313   7.533 -0.1179  0.2532  0.0678
  305loPI   C1B 4877  16.380  12.744   9.455  0.0116  0.2994  0.0986
  305loPI   C2B 4878  16.369  12.946   8.966  0.0580  0.0120  0.0780
  305loPI   C3B 4879  16.190  13.099   8.584 -0.2579  0.1752  0.0354
  305loPI   C4B 4880  16.357  13.209   8.203 -0.0958 -0.2672 -0.1089
  306loPI    C1 4881   6.637   1.287   9.652  0.3005  0.1520  0.1858
  306loPI    C2 4882   6.630   1.134  10.022 -0.0556  0.0911  0.1571
  306loPI    C3 4883   6.348   1.394   9.907  0.0496  0.1060 -0.0741
  306loPI   PO4 4884   6.786   1.067   9.523  0.0667 -0.2038 -0.0451
  306loPI   GL1 4885   6.874   1.037   9.153 -0.1536  0.0723  0.2896
  306loPI   GL2 4886   7.038   0.780   9.142 -0.0582  0.0525  0.0345
  306loPI   C1A 4887   6.851   1.125   8.774  0.0618  0.1755 -0.0917
  306loPI   C2A 4888   6.859   1.192   8.424  0.2701 -0.1717 -0.0857
  306loPI   C3A 4889   6.989   1.365   8.138 -0.1614 -0.0207  0.1348
  306loPI   C4A 4890   7.265   1.196   7.838  0.0320 -0.0755  0.1044
  306loPI   C5A 4891   7.353   1.174   7.405  0.1041 -0.0060  0.0480
  306loPI   C6A 4892   7.404   1.001   7.018  0.1066 -0.2026  0.0548
  306loPI   C1B 4893   6.748   0.533   8.931  0.3450 -0.3149  0.1761
  306loPI   C2B 4894   6.482   0.309   8.649  0.3806  0.1993 -0.2208
  306loPI   C3B 4895   6.376   0.109   8.289 -0.2198 -0.1042  0.1560
  306loPI   C4B 4896   6.176  -0.009   7.822 -0.1649 -0.0312 -0.3093
  307loPI    C1 4897   6.242  15.996   9.973  0.1094 -0.0234 -0.2213
  307loPI    C2 4898   6.416  15.981  10.332 -0.0600 -0.0033 -0.1375
  307loPI    C3 4899   6.592  16.180  10.033 -0.0118  0.1430 -0.0131
  307loPI   PO4 4900   6.221  15.766   9.872 -0.2860 -0.0358 -0.1503
  307loPI   GL1 4901   6.126  15.831   9.497  0.1236 -0.2413 -0.0351
  307loPI   GL2 4902   5.939  16.034   9.231 -0.0853  0.0846  0.3910
  307loPI   C1A 4903   6.394  15.958   9.126 -0.0609  0.0759  0.0567
  307loPI   C2A 4904   6.581  16.199   8.844 -0.1086  0.1363 -0.0974
  307loPI   C3A 4905   6.647  16.416   8.401  0.3164  0.0728  0.3006
  307loPI   C4A 4906   6.556  16.527   8.052 -0.1079 -0.1703  0.0378
  307loPI   C5A 4907   6.667  16.545   7.632 -0.1672  0.0620 -0.0621
  307loPI   C6A 4908   7.036  16.612   7.331  0.0320 -0.1847  0.0720
  307loPI   C1B 4909   5.676  16.147   8.853  0.0871 -0.0883  0.0161
  307loPI   C2B 4910   5.681  16.186   8.481  0.1533  0.1978  0.0926
  307loPI   C3B 4911   5.774  16.129   8.015 -0.0464 -0.3198 -0.0920
  307loPI   C4B 4912   5.578  15.933   7.600 -0.3790 -0.0124 -0.0828
  308loPI    C1 4913   0.155  13.447  10.377 -0.1215  0.0626 -0.1514
  308loPI    C2 4914   0.541  13.470  10.277 -0.0375  0.0876  0.1681
  308loPI    C3 4915   0.435  13.445  10.662 -0.3403 -0.2509  0.0682
  308loPI   PO4 4916   0.051  13.327  10.126  0.2977 -0.0182 -0.1909
  308loPI   GL1 4917   0.085  13.392   9.655  0.0824  0.0459 -0.2396
  308loPI   GL2 4918  -0.238  13.428   9.500 -0.2286  0.1342 -0.1872
  308loPI   C1A 4919   0.270  13.370   9.252  0.2195  0.0847  0.2775
  308loPI   C2A 4920   0.543  13.350   8.895 -0.0484  0.2865 -0.1436
  308loPI   C3A 4921   0.460  13.541   8.516 -0.1711 -0.0526 -0.1492
  308loPI   C4A 4922   0.536  13.680   8.072 -0.2063  0.1567 -0.2833
  308loPI   C5A 4923   0.291  13.899   7.884 -0.0191 -0.1494  0.0941
  308loPI   C6A 4924  -0.099  13.694   7.725 -0.1376  0.1115 -0.0037
  308loPI   C1B 4925  -0.159  13.546   9.144  0.2178 -0.1330  0.2763
  308loPI   C2B 4926  -0.124  13.524   8.668 -0.0063  0.0633 -0.1795
  308loPI   C3B 4927   0.045  13.509   8.185 -0.0115 -0.0519 -0.1047
  308loPI   C4B 4928  -0.062  13.236   7.925  0.0645 -0.1077 -0.0778
  309loPI    C1 4929  12.915  18.341  10.128  0.2583  0.1072  0.1115
  309loPI    C2 4930  12.816  18.001  10.314 -0.0001 -0.0103 -0.2304
  309loPI    C3 4931  12.779  18.351  10.504  0.0346 -0.1507  0.0401
  309loPI   PO4 4932  12.842  18.321   9.892  0.0833  0.1006 -0.0469
  309loPI   GL1 4933  13.085  18.310   9.467 -0.1842  0.0007 -0.0448
  309loPI   GL2 4934  13.005  18.151   9.400  0.1739  0.0070 -0.2300
  309loPI   C1A 4935  13.046  18.549   9.141  0.0608 -0.0770  0.2653
  309loPI   C2A 4936  13.036  18.429   8.705  0.1000 -0.0318  0.0739
  309loPI   C3A 4937  13.162  18.371   8.280 -0.0794  0.0437  0.1945
  309loPI   C4A 4938  13.149  18.207   7.770 -0.1596  0.0661  0.1506
  309loPI   C5A 4939  13.298  17.919   7.431  0.0894  0.3720  0.1618
  309loPI   C6A 4940  13.424  17.528   7.157  0.0013  0.1412  0.0548
  309loPI   C1B 4941  13.129  18.000   9.050 -0.0424  0.0144 -0.2145
  309loPI   C2B 4942  13.091  17.829   8.700  0.2338  0.1951 -0.1882
  309loPI   C3B 4943  12.959  17.385   8.541  0.3538  0.2585 -0.0078
  309loPI   C4B 4944  12.893  17.247   8.138  0.3985  0.0012  0.1615
  310loPI    C1 4945  18.731  17.005  10.122  0.0440  0.1175 -0.0791
  310loPI    C2 4946  18.764  16.673  10.344  0.1716  0.0419 -0.2095
  310loPI    C3 4947  18.423  16.752  10.150  0.0471  0.1268  0.0405
  310loPI   PO4 4948  19.002  17.073  10.045 -0.2052 -0.2044 -0.0484
  310loPI   GL1 4949  19.183  16.919   9.705 -0.0174  0.0748 -0.2368
  310loPI   GL2 4950  19.182  17.319   9.617 -0.1107 -0.0429 -0.0400
  310loPI   C1A 4951  19.048  16.779   9.402  0.2025 -0.3937  0.2663
  310loPI   C2A 4952  18.947  16.825   8.955  0.0285 -0.0517  0.3029
  310loPI   C3A 4953  18.817  16.741   8.530  0.0195  0.0617 -0.0290
  310loPI   C4A 4954  18.931  16.979   8.085 -0.0775  0.0137 -0.0955
  310loPI   C5A 4955  18.868  16.953   7.576 -0.2891 -0.0933 -0.1992
  310loPI   C6A 4956  18.805  16.609   7.270  0.1215 -0.1368  0.2317
  310loPI   C1B 4957  19.012  17.315   9.118  0.1751  0.0785  0.3109
  310loPI   C2B 4958  18.866  17.355   8.689 -0.0474 -0.0136  0.0423
  310loPI   C3B 4959  18.855  17.505   8.358 -0.3469 -0.2537  0.0806
  310loPI   C4B 4960  18.658  17.623   7.982  0.1075  0.0506 -0.4501
  311loPI    C1 4961   0.340  16.068  10.216 -0.0146  0.0461 -0.1088
  311loPI    C2 4962   0.364  15.953  10.598  0.0774  0.1687 -0.0773
  311loPI    C3 4963   0.109  15.770  10.351 -0.0212  0.1247  0.0557
  311loPI   PO4 4964   0.572  16.212  10.120  0.1887  0.2040 -0.2617
  311loPI   GL1 4965   0.838  16.111   9.755 -0.1335 -0.1303  0.0051
  311loPI   GL2 4966   0.624  16.122   9.579 -0.0627  0.0838 -0.0584
  311loPI   C1A 4967   1.129  16.161   9.450  0.1225  0.2601 -0.0435
  311loPI   C2A 4968   1.275  16.108   9.095  0.3406  0.1244 -0.1017
  311loPI   C3A 4969   1.181  16.306   8.618  0.0637 -0.1254 -0.1405
  311loPI   C4A 4970   1.210  16.332   8.256 -0.0012 -0.2173 -0.1070
  311loPI   C5A 4971   1.268  16.359   7.778  0.0250  0.0522 -0.2970
  311loPI   C6A 4972   1.509  16.351   7.349 -0.4385  0.1422 -0.3432
  311loPI   C1B 4973   0.641  16.230   9.171 -0.1457 -0.2259  0.0634
  311loPI   C2B 4974   0.679  16.449   8.765  0.0072  0.3036  0.2213
  311loPI   C3B 4975   0.810  16.653   8.381 -0.1729  0.1805 -0.1011
  311loPI   C4B 4976   0.878  16.608   7.979 -0.1299 -0.1876 -0.3096
  312loPI    C1 4977  12.784  14.978   9.918 -0.0550  0.0243  0.0105
  312loPI    C2 4978  12.900  14.596   9.893  0.1330  0.0644  0.2332
  312loPI    C3 4979  12.997  14.813  10.214  0.1795  0.3512  0.0285
  312loPI   PO4 4980  12.923  15.055   9.715  0.3497 -0.1628  0.2620
  312loPI   GL1 4981  13.083  14.884   9.319  0.0053  0.2935  0.2120
  312loPI   GL2 4982  12.966  15.065   9.233  0.0047  0.0289 -0.2153
  312loPI   C1A 4983  13.042  14.564   9.149 -0.1345 -0.0206  0.0452
  312loPI   C2A 4984  12.996  14.335   8.732  0.3264  0.4941 -0.3790
  312loPI   C3A 4985  12.913  14.271   8.361 -0.1700 -0.2413  0.3090
  312loPI   C4A 4986  13.006  14.257   7.920 -0.1703 -0.0175  0.2754
  312loPI   C5A 4987  12.776  14.273   7.591  0.0503 -0.0571  0.0079
  312loPI   C6A 4988  12.775  14.174   7.098  0.3248  0.3453 -0.1469
  312loPI   C1B 4989  12.968  15.151   8.808 -0.1186  0.2712  0.1477
  312loPI   C2B 4990  12.972  15.099   8.337  0.2060 -0.0087 -0.2700
  312loPI   C3B 4991  13.090  15.075   7.882  0.0666  0.2089  0.2246
  312loPI   C4B 4992  13.001  15.240   7.510  0.0606 -0.0031  0.0876
  313loPI    C1 4993  16.935   7.238  10.246  0.0255 -0.1125 -0.0150
  313loPI    C2 4994  16.801   6.920  10.044 -0.0311 -0.1197  0.0333
  313loPI    C3 4995  16.862   6.895  10.439  0.0260 -0.0894  0.0265
  313loPI   PO4 4996  17.067   7.373  10.044 -0.1773 -0.0973  0.3595
  313loPI   GL1 4997  17.043   7.569   9.696 -0.0256 -0.0561 -0.0451
  313loPI   GL2 4998  17.024   7.263   9.582  0.0263 -0.3883  0.1775
  313loPI   C1A 4999  16.932   7.573   9.226  0.1388 -0.1232  0.0298
  313loPI   C2A 5000  16.806   7.656   8.808  0.1516  0.1048 -0.3063
  313loPI   C3A 5001  16.715   7.484   8.454  0.0676  0.1581  0.0191
  313loPI   C4A 5002  16.607   7.216   8.088 -0.1728  0.1040  0.0467
  313loPI   C5A 5003  16.572   6.840   8.038 -0.0558  0.0638  0.2614
  313loPI   C6A 5004  16.664   6.492   7.746 -0.2361  0.3127 -0.0951
  313loPI   C1B 5005  16.917   6.991   9.198  0.0272 -0.1549 -0.3984
  313loPI   C2B 5006  16.924   6.506   9.109 -0.3467  0.3339 -0.1319
  313loPI   C3B 5007  16.544   6.259   8.925  0.1087 -0.1916  0.1117
  313loPI   C4B 5008  16.195   6.015   8.872 -0.3583 -0.0221  0.3022
  314loPI    C1 5009   6.548   2.682   9.835 -0.2263 -0.1488  0.1607
  314loPI    C2 5010   6.564   2.812  10.212 -0.1059 -0.3275  0.2186
  314loPI    C3 5011   6.827   2.540  10.083  0.0304 -0.0635 -0.0736
  314loPI   PO4 5012   6.547   2.847   9.666 -0.0949 -0.0138  0.0911
  314loPI   GL1 5013   6.700   2.781   9.322 -0.0177 -0.1018  0.2424
  314loPI   GL2 5014   6.774   2.468   9.352  0.1978 -0.1528  0.0278
  314loPI   C1A 5015   7.146   2.555   9.106  0.0407 -0.0150 -0.2899
  314loPI   C2A 5016   7.179   2.577   8.671 -0.2305  0.1318 -0.0103
  314loPI   C3A 5017   7.273   2.558   8.257 -0.2791 -0.1066 -0.2862
  314loPI   C4A 5018   7.216   2.610   7.810  0.0917 -0.1796  0.0387
  314loPI   C5A 5019   7.436   2.829   7.430  0.1986 -0.2855  0.0887
  314loPI   C6A 5020   7.516   3.020   6.945  0.4230 -0.2889 -0.3755
  314loPI   C1B 5021   6.755   2.421   8.847  0.0767 -0.0488 -0.0083
  314loPI   C2B 5022   6.712   2.368   8.356  0.2123  0.0899 -0.0458
  314loPI   C3B 5023   6.647   2.077   7.997  0.2420  0.2441  0.1802
  314loPI   C4B 5024   6.586   2.068   7.540 -0.1255  0.0071  0.1832
  315loPI    C1 5025  16.996  11.748  10.139  0.2090  0.2761  0.0562
  315loPI    C2 5026  16.718  11.472  10.220  0.3812  0.0812 -0.0065
  315loPI    C3 5027  16.612  11.855  10.171  0.1100 -0.0079 -0.1390
  315loPI   PO4 5028  17.137  11.683   9.942  0.0928  0.0919  0.0122
  315loPI   GL1 5029  17.142  11.362   9.579 -0.3453 -0.1193  0.2609
  315loPI   GL2 5030  17.421  11.558   9.561  0.1012  0.0265 -0.0645
  315loPI   C1A 5031  16.815  11.430   9.322 -0.0056 -0.2161  0.2247
  315loPI   C2A 5032  16.706  11.481   8.888 -0.2023 -0.1081 -0.1170
  315loPI   C3A 5033  16.758  11.635   8.546 -0.2638 -0.0057 -0.0436
  315loPI   C4A 5034  16.826  11.741   8.097  0.0068  0.0692 -0.1083
  315loPI   C5A 5035  16.879  11.856   7.723  0.0677  0.2480  0.1072
  315loPI   C6A 5036  17.135  12.051   7.386  0.1962  0.0372  0.3762
  315loPI   C1B 5037  17.348  11.705   9.216  0.0258 -0.0600 -0.0689
  315loPI   C2B 5038  17.165  11.854   8.814  0.1358 -0.3552 -0.0193
  315loPI   C3B 5039  17.266  11.765   8.414 -0.0577  0.0243 -0.2044
  315loPI   C4B 5040  17.536  11.674   8.100  0.0287  0.1000 -0.0828
  316loPI    C1 5041   8.558   8.995  10.221  0.0240 -0.0559  0.0726
  316loPI    C2 5042   8.260   9.147  10.441  0.0693  0.0407  0.0679
  316loPI    C3 5043   8.417   8.791  10.535 -0.1031 -0.0488  0.0207
  316loPI   PO4 5044   8.478   9.060   9.962  0.2896 -0.3500  0.1547
  316loPI   GL1 5045   8.497   9.302   9.618 -0.2537 -0.1749  0.1611
  316loPI   GL2 5046   8.165   9.302   9.473 -0.0823  0.0247 -0.2369
  316loPI   C1A 5047   8.571   9.520   9.268  0.0970 -0.2053 -0.2053
  316loPI   C2A 5048   8.614   9.457   8.709  0.0010 -0.0275  0.1002
  316loPI   C3A 5049   8.388   9.336   8.197  0.2031 -0.0742 -0.1509
  316loPI   C4A 5050   8.065   9.285   7.911 -0.4936 -0.1396 -0.0258
  316loPI   C5A 5051   8.230   9.206   7.465 -0.0215 -0.0996 -0.0250
  316loPI   C6A 5052   8.528   9.070   7.077 -0.1880 -0.0619 -0.1092
  316loPI   C1B 5053   8.107   9.308   9.082 -0.0147  0.0358 -0.1538
  316loPI   C2B 5054   8.119   9.365   8.636 -0.0231 -0.0932 -0.0934
  316loPI   C3B 5055   7.941   9.614   8.291 -0.0127 -0.1498  0.2197
  316loPI   C4B 5056   7.911   9.742   7.841 -0.3828  0.0042  0.3501
  317loPI    C1 5057   5.428   7.305   9.845 -0.2292  0.2912 -0.1975
  317loPI    C2 5058   5.244   7.388  10.190 -0.0870  0.2115 -0.1017
  317loPI    C3 5059   5.635   7.464  10.148 -0.0544  0.0123 -0.1674
  317loPI   PO4 5060   5.232   7.418   9.626 -0.1477 -0.1748 -0.1855
  317loPI   GL1 5061   5.327   7.544   9.275  0.3079  0.0937  0.0552
  317loPI   GL2 5062   5.167   7.961   9.159 -0.2163 -0.0559 -0.2383
  317loPI   C1A 5063   5.698   7.563   8.998 -0.0731  0.2575  0.2864
  317loPI   C2A 5064   5.645   7.517   8.552  0.5074 -0.2152 -0.0828
  317loPI   C3A 5065   5.675   7.462   8.199  0.0521 -0.4953  0.0166
  317loPI   C4A 5066   5.670   7.237   7.883 -0.0029 -0.0635 -0.1043
  317loPI   C5A 5067   5.882   7.106   7.525 -0.2514  0.2984 -0.0710
  317loPI   C6A 5068   6.147   7.223   7.257 -0.1586  0.1575  0.2539
  317loPI   C1B 5069   5.318   7.808   8.691  0.1972 -0.0933 -0.1375
  317loPI   C2B 5070   5.133   7.669   8.397  0.0710  0.2063 -0.0439
  317loPI   C3B 5071   5.098   7.571   7.992  0.3637 -0.1385  0.1531
  317loPI   C4B 5072   4.750   7.520   7.768  0.0160 -0.1091  0.3247
  318loPI    C1 5073  15.214  11.372  10.247  0.1353 -0.3074  0.0062
  318loPI    C2 5074  15.482  11.353  10.543  0.1345  0.2106  0.0494
  318loPI    C3 5075  15.110  11.479  10.618  0.0223 -0.0213 -0.1051
  318loPI   PO4 5076  15.367  11.509  10.052 -0.0513 -0.1539  0.1214
  318loPI   GL1 5077  15.040  11.727   9.738  0.0628  0.0161  0.1452
  318loPI   GL2 5078  14.931  11.488   9.772 -0.1369  0.1429 -0.1790
  318loPI   C1A 5079  14.848  11.602   9.346  0.1973  0.0885 -0.3123
  318loPI   C2A 5080  14.883  11.701   8.928  0.3903  0.4316  0.1846
  318loPI   C3A 5081  14.787  11.800   8.522  0.2682 -0.1201 -0.0758
  318loPI   C4A 5082  14.914  11.858   8.132 -0.3121  0.1958  0.2261
  318loPI   C5A 5083  14.963  11.666   7.804 -0.0901  0.0082  0.0253
  318loPI   C6A 5084  15.174  11.301   7.660 -0.3489 -0.0118 -0.1701
  318loPI   C1B 5085  15.116  11.146   9.437 -0.2205 -0.1363 -0.0357
  318loPI   C2B 5086  15.302  11.079   9.073 -0.0753 -0.2979  0.0632
  318loPI   C3B 5087  15.501  11.134   8.620 -0.0485  0.0119  0.0094
  318loPI   C4B 5088  15.587  11.307   8.276  0.0849  0.1707 -0.3141
  319loPI    C1 5089  11.324   3.460   9.682 -0.1361 -0.3431 -0.0543
  319loPI    C2 5090  11.361   3.751   9.953 -0.2797 -0.1262 -0.2629
  319loPI    C3 5091  11.503   3.386  10.031 -0.0636  0.0076 -0.0129
  319loPI   PO4 5092  11.007   3.539   9.630  0.0752 -0.1717  0.1242
  319loPI   GL1 5093  10.754   3.580   9.215  0.3590 -0.0814  0.2419
  319loPI   GL2 5094  11.076   3.688   9.116  0.3808 -0.0798  0.4315
  319loPI   C1A 5095  10.643   3.395   8.868  0.0125 -0.0328  0.1754
  319loPI   C2A 5096  10.760   3.235   8.533  0.0157  0.4406  0.2353
  319loPI   C3A 5097  10.685   3.025   8.166  0.0695 -0.1581 -0.1494
  319loPI   C4A 5098  10.495   3.213   7.798 -0.0495 -0.0565  0.1622
  319loPI   C5A 5099  10.404   3.179   7.429 -0.2049  0.1672  0.2767
  319loPI   C6A 5100  10.367   3.384   7.068  0.1881 -0.2434 -0.0337
  319loPI   C1B 5101  11.205   3.649   8.691  0.1667 -0.0002 -0.0294
  319loPI   C2B 5102  11.203   3.727   8.316  0.1957 -0.3175 -0.1869
  319loPI   C3B 5103  10.931   3.994   8.144 -0.0822  0.1455 -0.1985
  319loPI   C4B 5104  10.716   4.294   7.680  0.1633 -0.1204  0.0471
  320loPI    C1 5105   4.369   9.800  10.303  0.1170 -0.0270  0.2888
  320loPI    C2 5106   4.101   9.506  10.346 -0.1425  0.1641  0.0181
  320loPI    C3 5107   4.269   9.672  10.669 -0.1670 -0.1214  0.1811
  320loPI   PO4 5108   4.308   9.846  10.016 -0.2847 -0.0761  0.1302
  320loPI   GL1 5109   4.349  10.057   9.608  0.1773 -0.1792  0.3035
  320loPI   GL2 5110   4.260   9.677   9.528  0.1577  0.2633 -0.3284
  320loPI   C1A 5111   4.321  10.357   9.351  0.0436 -0.1013 -0.1316
  320loPI   C2A 5112   4.256  10.293   8.898 -0.1670 -0.1787 -0.0827
  320loPI   C3A 5113   4.409  10.369   8.428 -0.0362 -0.3855 -0.2125
  320loPI   C4A 5114   4.124  10.322   8.020  0.0715  0.0510  0.1713
  320loPI   C5A 5115   4.031  10.192   7.643  0.0023  0.0142 -0.1826
  320loPI   C6A 5116   4.181   9.802   7.644  0.3078 -0.1331  0.5122
  320loPI   C1B 5117   4.280   9.787   9.125  0.0104  0.1383 -0.2688
  320loPI   C2B 5118   4.440   9.826   8.723  0.0450  0.0188  0.1519
  320loPI   C3B 5119   4.688  10.001   8.392 -0.2320  0.0135  0.0036
  320loPI   C4B 5120   4.534  10.060   7.915 -0.1213 -0.0317 -0.1561
  321loPI    C1 5121   6.514   5.083  10.006  0.2963  0.2222  0.2439
  321loPI    C2 5122   6.721   4.741   9.995 -0.2905 -0.1402 -0.1088
  321loPI    C3 5123   6.528   4.848  10.329 -0.0551 -0.1160  0.0219
  321loPI   PO4 5124   6.441   5.007   9.687  0.3183 -0.1669  0.1649
  321loPI   GL1 5125   6.639   4.897   9.353  0.0488 -0.0170 -0.0833
  321loPI   GL2 5126   6.977   4.889   9.282 -0.2872 -0.0407  0.2638
  321loPI   C1A 5127   6.792   5.215   8.971  0.1164  0.1881  0.0944
  321loPI   C2A 5128   6.657   5.437   8.600 -0.1535  0.0008  0.0772
  321loPI   C3A 5129   6.728   5.391   8.126  0.0477 -0.1880 -0.0535
  321loPI   C4A 5130   6.734   5.513   7.807 -0.3556 -0.2463 -0.0306
  321loPI   C5A 5131   6.537   5.639   7.508 -0.1160  0.1540  0.0121
  321loPI   C6A 5132   6.756   5.711   7.097  0.3366  0.2484  0.0487
  321loPI   C1B 5133   6.821   4.572   9.003  0.2302 -0.2185  0.2803
  321loPI   C2B 5134   6.906   4.446   8.577 -0.0472  0.1172  0.1642
  321loPI   C3B 5135   7.020   4.332   8.179 -0.0066 -0.0038 -0.0620
  321loPI   C4B 5136   7.056   4.118   7.769 -0.0621 -0.0973  0.0918
  322loPI    C1 5137   0.463   7.981  10.293  0.0292  0.0584  0.0607
  322loPI    C2 5138   0.600   8.351  10.357  0.0178  0.0815 -0.0463
  322loPI    C3 5139   0.442   8.141  10.659 -0.1055  0.2172 -0.0151
  322loPI   PO4 5140   0.630   7.878  10.117 -0.4616 -0.1623  0.1809
  322loPI   GL1 5141   0.756   7.951   9.706 -0.3200  0.0037  0.0339
  322loPI   GL2 5142   0.398   7.897   9.607  0.1010  0.2673  0.1923
  322loPI   C1A 5143   1.004   8.266   9.492 -0.1049  0.0270  0.0178
  322loPI   C2A 5144   0.832   8.504   9.188  0.1398  0.1080 -0.0915
  322loPI   C3A 5145   0.831   8.408   8.654  0.1095 -0.1435  0.0324
  322loPI   C4A 5146   1.051   8.532   8.244 -0.0933  0.1346 -0.2065
  322loPI   C5A 5147   1.146   8.303   7.826  0.1927  0.1297  0.1254
  322loPI   C6A 5148   1.349   8.081   7.564  0.0315 -0.1884  0.1796
  322loPI   C1B 5149   0.653   7.853   9.190  0.1695  0.0451 -0.0407
  322loPI   C2B 5150   0.935   8.034   8.963 -0.1206 -0.1566 -0.1698
  322loPI   C3B 5151   0.953   7.873   8.522 -0.5120 -0.0904 -0.4107
  322loPI   C4B 5152   0.990   8.033   8.248  0.1717  0.0700 -0.0293
  323loPI    C1 5153  11.177  10.095  10.151 -0.0939 -0.1103 -0.2401
  323loPI    C2 5154  11.188  10.211   9.769  0.2140 -0.0506 -0.2161
  323loPI    C3 5155  11.517  10.237   9.994 -0.0385  0.1894  0.1354
  323loPI   PO4 5156  11.136   9.812  10.136 -0.1564 -0.0920  0.3297
  323loPI   GL1 5157  11.077   9.678   9.667 -0.3438 -0.1623 -0.1222
  323loPI   GL2 5158  10.777   9.843   9.616 -0.1304 -0.2846  0.2155
  323loPI   C1A 5159  11.003   9.778   9.220 -0.1482  0.0392  0.0900
  323loPI   C2A 5160  10.899   9.734   8.785  0.2507  0.1048 -0.0616
  323loPI   C3A 5161  10.655   9.395   8.623 -0.0561 -0.0538 -0.1410
  323loPI   C4A 5162  10.430   8.960   8.403 -0.0028 -0.1041  0.3232
  323loPI   C5A 5163  10.024   8.765   8.352 -0.1606 -0.1689  0.0342
  323loPI   C6A 5164   9.779   8.743   8.071 -0.2752  0.0429 -0.3103
  323loPI   C1B 5165  10.523   9.606   9.318 -0.0276  0.0100  0.1271
  323loPI   C2B 5166  10.337   9.482   8.950 -0.0638 -0.2246 -0.0729
  323loPI   C3B 5167  10.141   9.443   8.620  0.0322 -0.1094 -0.0755
  323loPI   C4B 5168  10.212   9.531   8.203 -0.2506 -0.1251  0.2080
  324loPI    C1 5169  15.007   8.192  10.427 -0.1340  0.2000  0.0053
  324loPI    C2 5170  14.948   7.901  10.696 -0.1496  0.1303 -0.0730
  324loPI    C3 5171  14.780   8.260  10.749  0.0242  0.1848  0.1212
  324loPI   PO4 5172  14.940   8.152  10.219 -0.0601  0.3087  0.1513
  324loPI   GL1 5173  14.868   8.249   9.837  0.2550  0.0664 -0.0142
  324loPI   GL2 5174  15.016   8.047   9.676  0.1810 -0.2267  0.0720
  324loPI   C1A 5175  15.036   8.491   9.462 -0.1716 -0.2508 -0.2029
  324loPI   C2A 5176  15.295   8.406   9.134  0.2145  0.0571  0.1177
  324loPI   C3A 5177  15.658   8.246   8.776 -0.0463 -0.2491 -0.0676
  324loPI   C4A 5178  15.901   8.048   8.463  0.3098  0.1360 -0.1324
  324loPI   C5A 5179  15.769   7.917   8.096  0.1130  0.3416 -0.2400
  324loPI   C6A 5180  15.564   7.778   7.842 -0.2750 -0.1284  0.1021
  324loPI   C1B 5181  15.059   8.007   9.264 -0.0112  0.1629  0.2989
  324loPI   C2B 5182  15.114   7.935   8.861 -0.0790 -0.1177  0.0626
  324loPI   C3B 5183  15.135   8.302   8.626 -0.1186 -0.1984 -0.2294
  324loPI   C4B 5184  15.327   8.729   8.551 -0.3879  0.3342  0.1486
  325loPI    C1 5185  12.682  17.190  10.031  0.0776  0.1255 -0.1809
  325loPI    C2 5186  12.299  17.203  10.148  0.1200 -0.1653 -0.0007
  325loPI    C3 5187  12.549  17.501  10.245 -0.0102 -0.0755  0.0617
  325loPI   PO4 5188  12.625  17.078   9.753  0.2657 -0.0832  0.1300
  325loPI   GL1 5189  12.824  17.334   9.390 -0.3739  0.3291  0.0788
  325loPI   GL2 5190  12.792  17.701   9.344  0.0280  0.3686  0.0507
  325loPI   C1A 5191  12.814  17.201   8.984  0.1301  0.3219  0.2050
  325loPI   C2A 5192  12.663  16.999   8.702 -0.3350  0.0776  0.1853
  325loPI   C3A 5193  12.686  16.751   8.384  0.4422 -0.1148  0.1872
  325loPI   C4A 5194  12.666  16.844   7.974  0.1026 -0.0364  0.1464
  325loPI   C5A 5195  12.743  16.944   7.498  0.0677 -0.0407 -0.1905
  325loPI   C6A 5196  13.082  17.110   7.228 -0.1315 -0.0592  0.1520
  325loPI   C1B 5197  13.230  17.500   9.055 -0.0282  0.1785  0.2162
  325loPI   C2B 5198  13.544  17.201   8.996 -0.1616 -0.0763  0.0717
  325loPI   C3B 5199  13.827  16.997   8.575 -0.1423 -0.0105 -0.1663
  325loPI   C4B 5200  13.813  17.055   8.118 -0.0264  0.0920 -0.1066
  326loPI    C1 5201  17.845   8.150  10.102 -0.2321 -0.0148 -0.0849
  326loPI    C2 5202  17.863   7.838  10.352 -0.1372 -0.0807 -0.1728
  326loPI    C3 5203  17.635   8.154  10.443 -0.1196 -0.1129 -0.0134
  326loPI   PO4 5204  17.779   8.045   9.868 -0.0510  0.2320 -0.1021
  326loPI   GL1 5205  17.570   8.068   9.554  0.1994  0.0871  0.0047
  326loPI   GL2 5206  17.271   8.004   9.642 -0.0977 -0.0372  0.1712
  326loPI   C1A 5207  17.606   8.064   9.151  0.1446 -0.1961  0.2060
  326loPI   C2A 5208  17.530   8.075   8.745 -0.1761 -0.2697  0.4200
  326loPI   C3A 5209  17.389   8.256   8.331 -0.2942 -0.2261  0.1643
  326loPI   C4A 5210  17.472   7.972   7.985 -0.1845 -0.0306  0.1052
  326loPI   C5A 5211  17.797   7.609   7.877 -0.2841 -0.0059 -0.1837
  326loPI   C6A 5212  17.959   7.357   7.553 -0.2735  0.2974 -0.2989
  326loPI   C1B 5213  17.168   8.006   9.240  0.0622 -0.0787 -0.0710
  326loPI   C2B 5214  17.298   7.704   8.886  0.0769  0.1275  0.2262
  326loPI   C3B 5215  17.228   7.353   8.611 -0.0952  0.0391  0.1964
  326loPI   C4B 5216  16.951   7.038   8.358  0.1118  0.3226  0.2412
  327loPI    C1 5217  15.736  11.781  10.483  0.0753  0.2651  0.1811
  327loPI    C2 5218  15.355  11.858  10.387  0.0968  0.0244 -0.1133
  327loPI    C3 5219  15.616  12.158  10.431 -0.0758  0.1775 -0.1247
  327loPI   PO4 5220  15.823  11.565  10.251 -0.0002 -0.1087  0.0051
  327loPI   GL1 5221  15.809  11.567   9.837 -0.0513  0.2012 -0.0545
  327loPI   GL2 5222  15.550  11.333   9.628 -0.1647 -0.4267 -0.2512
  327loPI   C1A 5223  15.939  11.770   9.466  0.2326 -0.0318  0.0652
  327loPI   C2A 5224  15.709  11.990   9.099 -0.0521 -0.3453  0.4527
  327loPI   C3A 5225  15.888  12.170   8.743 -0.0916 -0.0648  0.1660
  327loPI   C4A 5226  15.927  12.272   8.281  0.0123  0.0490  0.0040
  327loPI   C5A 5227  15.791  12.047   7.978  0.1482 -0.3280 -0.0243
  327loPI   C6A 5228  15.977  11.918   7.564 -0.0115  0.3039  0.0199
  327loPI   C1B 5229  15.379  11.577   9.381 -0.1042 -0.1083 -0.2397
  327loPI   C2B 5230  15.337  11.612   8.969  0.2355 -0.0983  0.3416
  327loPI   C3B 5231  15.224  11.526   8.544 -0.3131 -0.2362  0.2931
  327loPI   C4B 5232  15.010  11.348   8.274  0.0177 -0.0647  0.2756
  328loPI    C1 5233   1.876   9.465  10.294  0.1156 -0.0367  0.2601
  328loPI    C2 5234   1.484   9.394  10.337  0.0673  0.1523  0.1459
  328loPI    C3 5235   1.752   9.139  10.490 -0.0998 -0.0329  0.1340
  328loPI   PO4 5236   1.948   9.547  10.011  0.2874 -0.0560 -0.3230
  328loPI   GL1 5237   2.233   9.398   9.696 -0.1128 -0.2757  0.1844
  328loPI   GL2 5238   2.177   9.686   9.541  0.3040  0.1111  0.2533
  328loPI   C1A 5239   2.526   9.057   9.477 -0.0205 -0.0716  0.4099
  328loPI   C2A 5240   2.590   8.916   9.148 -0.0564  0.0354  0.0664
  328loPI   C3A 5241   2.571   8.710   8.781 -0.0216 -0.0748  0.1951
  328loPI   C4A 5242   2.561   8.433   8.482 -0.0468 -0.2526  0.2525
  328loPI   C5A 5243   2.590   8.255   7.975 -0.0110  0.0109 -0.1442
  328loPI   C6A 5244   2.432   8.077   7.559 -0.0543  0.0264  0.0291
  328loPI   C1B 5245   1.912   9.709   9.227  0.0031 -0.0283 -0.0368
  328loPI   C2B 5246   1.882   9.552   8.872 -0.0480  0.1803 -0.1136
  328loPI   C3B 5247   1.970   9.831   8.558  0.0923  0.0325  0.0338
  328loPI   C4B 5248   1.820   9.839   8.102  0.2668  0.2214 -0.1880
  329loPI    C1 5249   0.579  13.212   9.866 -0.0630  0.2743  0.0926
  329loPI    C2 5250   0.857  13.085  10.124  0.0786  0.0334 -0.1741
  329loPI    C3 5251   0.941  13.108   9.733 -0.1593  0.3184 -0.2124
  329loPI   PO4 5252   0.379  12.935   9.855  0.0706  0.1317 -0.2163
  329loPI   GL1 5253   0.041  12.794   9.657 -0.0087  0.1448 -0.0978
  329loPI   GL2 5254  -0.311  12.669   9.620 -0.1648  0.2807  0.1398
  329loPI   C1A 5255  -0.081  12.995   9.276 -0.0342 -0.2965 -0.0176
  329loPI   C2A 5256   0.033  13.143   8.886  0.0092 -0.0527  0.0755
  329loPI   C3A 5257  -0.050  13.053   8.445  0.0652  0.4581  0.1491
  329loPI   C4A 5258  -0.329  12.881   8.266 -0.0762  0.0502 -0.0632
  329loPI   C5A 5259  -0.468  12.958   7.843  0.0679 -0.0174  0.0220
  329loPI   C6A 5260  -0.825  12.805   7.641 -0.2429  0.0261  0.1432
  329loPI   C1B 5261  -0.548  12.569   9.245  0.0248 -0.2799  0.0256
  329loPI   C2B 5262  -0.798  12.787   8.929 -0.3620  0.1353 -0.1499
  329loPI   C3B 5263  -0.878  13.127   8.671 -0.0459 -0.1650  0.1587
  329loPI   C4B 5264  -0.818  13.103   8.151  0.0007 -0.1016 -0.2535
  330loPI    C1 5265   1.720   9.916  10.494  0.2023  0.0842  0.0405
  330loPI    C2 5266   1.491  10.224  10.606  0.4549  0.2962 -0.0145
  330loPI    C3 5267   1.663   9.991  10.883 -0.0684 -0.0546  0.0294
  330loPI   PO4 5268   1.818  10.079  10.224  0.1974  0.0309 -0.0581
  330loPI   GL1 5269   1.689  10.136   9.750 -0.3898 -0.1493 -0.0130
  330loPI   GL2 5270   1.975  10.169   9.569 -0.2253  0.0038  0.2344
  330loPI   C1A 5271   1.433   9.930   9.433  0.2446  0.0895  0.2302
  330loPI   C2A 5272   1.462   9.863   8.956 -0.2199 -0.2051 -0.1515
  330loPI   C3A 5273   1.472   9.874   8.521  0.4814 -0.3029  0.0282
  330loPI   C4A 5274   1.401  10.106   8.172  0.2063 -0.2166 -0.1638
  330loPI   C5A 5275   1.249  10.410   7.838 -0.0232 -0.2594 -0.0632
  330loPI   C6A 5276   1.310  10.796   7.592  0.0678  0.0741 -0.2263
  330loPI   C1B 5277   1.667  10.426   9.347 -0.2006 -0.0945  0.2569
  330loPI   C2B 5278   1.601  10.768   9.038  0.1785 -0.2843  0.1812
  330loPI   C3B 5279   1.466  10.748   8.587  0.0205 -0.0490  0.1208
  330loPI   C4B 5280   1.259  10.718   8.232  0.2936  0.2141 -0.0498
  331loPI    C1 5281   8.457   3.922   9.898 -0.0933 -0.2197 -0.0468
  331loPI    C2 5282   8.781   4.154   9.865 -0.1784 -0.1234 -0.2197
  331loPI    C3 5283   8.687   3.990  10.218  0.0845 -0.1919 -0.1792
  331loPI   PO4 5284   8.410   3.893   9.622 -0.0259  0.0730  0.0843
  331loPI   GL1 5285   8.317   3.739   9.263  0.0653  0.2082  0.0224
  331loPI   GL2 5286   8.623   3.514   9.338  0.0989  0.0994  0.2331
  331loPI   C1A 5287   7.931   3.740   8.998  0.3449 -0.1158  0.0618
  331loPI   C2A 5288   7.651   3.918   8.755 -0.2422  0.1459 -0.3523
  331loPI   C3A 5289   7.525   4.256   8.518  0.0264 -0.1358 -0.1312
  331loPI   C4A 5290   7.464   4.583   8.234 -0.0091 -0.3506  0.1035
  331loPI   C5A 5291   7.445   4.756   7.816 -0.1434 -0.3467 -0.2009
  331loPI   C6A 5292   7.326   4.914   7.380 -0.4922 -0.0001 -0.0715
  331loPI   C1B 5293   8.711   3.745   8.830 -0.0381  0.0132 -0.0686
  331loPI   C2B 5294   8.591   3.829   8.389  0.1619 -0.0430 -0.0635
  331loPI   C3B 5295   8.543   3.746   7.931  0.0453 -0.0524  0.1283
  331loPI   C4B 5296   8.211   3.634   7.562 -0.2251 -0.0860 -0.0318
  332loPI    C1 5297   3.380   6.264  10.087 -0.0401 -0.0852  0.2039
  332loPI    C2 5298   3.067   6.486  10.200 -0.0035  0.0342  0.0740
  332loPI    C3 5299   3.378   6.439  10.447 -0.0203  0.1111  0.1102
  332loPI   PO4 5300   3.427   6.379   9.851  0.0678  0.2684  0.3513
  332loPI   GL1 5301   3.189   6.477   9.643  0.2157 -0.0089 -0.1232
  332loPI   GL2 5302   2.996   6.338   9.543 -0.1749 -0.0939 -0.1319
  332loPI   C1A 5303   3.243   6.711   9.236  0.1021  0.1030  0.1013
  332loPI   C2A 5304   3.201   6.775   8.872 -0.4472  0.1457  0.0087
  332loPI   C3A 5305   3.159   6.600   8.443 -0.0126  0.0022  0.3227
  332loPI   C4A 5306   3.216   6.627   7.932  0.0745  0.0079 -0.0693
  332loPI   C5A 5307   2.996   6.462   7.539  0.1362  0.2106  0.1389
  332loPI   C6A 5308   3.049   5.984   7.400  0.3468 -0.3435 -0.1051
  332loPI   C1B 5309   2.822   6.495   9.080  0.0322 -0.0932  0.2884
  332loPI   C2B 5310   2.641   6.451   8.707 -0.1013 -0.2971  0.3283
  332loPI   C3B 5311   2.575   6.436   8.347  0.0931 -0.0565  0.2192
  332loPI   C4B 5312   2.797   6.389   8.082 -0.0640  0.2718 -0.0830
  333loPI    C1 5313  10.210   4.170   9.940  0.1683  0.1091 -0.0635
  333loPI    C2 5314  10.390   3.969  10.235 -0.2650 -0.3136 -0.0762
  333loPI    C3 5315  10.035   4.142  10.298 -0.0224  0.2293 -0.1458
  333loPI   PO4 5316  10.228   3.979   9.723  0.1558  0.0115 -0.0472
  333loPI   GL1 5317  10.482   4.004   9.388 -0.1900  0.0220 -0.1503
  333loPI   GL2 5318  10.804   4.018   9.461 -0.0478 -0.3529  0.1803
  333loPI   C1A 5319  10.338   3.894   8.879 -0.0975 -0.0360  0.1039
  333loPI   C2A 5320  10.059   3.799   8.552  0.0982  0.0015 -0.0447
  333loPI   C3A 5321  10.014   3.764   8.106 -0.2379  0.1372 -0.1216
  333loPI   C4A 5322   9.784   3.743   7.742  0.2952  0.2042 -0.5266
  333loPI   C5A 5323   9.594   3.531   7.345 -0.1204 -0.1991 -0.1280
  333loPI   C6A 5324   9.255   3.156   7.330 -0.2205  0.1441  0.2375
  333loPI   C1B 5325  10.834   4.147   9.033 -0.2104 -0.0407 -0.1358
  333loPI   C2B 5326  10.786   3.915   8.581  0.1948 -0.3683 -0.0831
  333loPI   C3B 5327  10.489   3.816   8.274  0.1111  0.0470 -0.0746
  333loPI   C4B 5328  10.443   3.744   7.814  0.0595  0.0482  0.0193
  334loPI    C1 5329   9.835   2.873   9.779 -0.1105 -0.0952  0.0316
  334loPI    C2 5330   9.929   3.138  10.063 -0.0028 -0.1433  0.0413
  334loPI    C3 5331   9.798   2.774  10.165 -0.1988 -0.0780  0.0278
  334loPI   PO4 5332   9.897   3.040   9.547 -0.1600  0.2250 -0.0568
  334loPI   GL1 5333   9.837   3.004   9.178  0.1173 -0.0078  0.0786
  334loPI   GL2 5334   9.551   3.006   9.054  0.0093 -0.2244  0.1090
  334loPI   C1A 5335  10.082   2.758   8.851 -0.2124 -0.2238  0.1098
  334loPI   C2A 5336  10.112   2.595   8.471 -0.1720 -0.0502  0.0101
  334loPI   C3A 5337   9.809   2.575   8.040  0.1837  0.0764  0.1016
  334loPI   C4A 5338   9.847   2.367   7.611 -0.0587 -0.2872  0.3437
  334loPI   C5A 5339  10.029   2.049   7.494  0.2294 -0.1993  0.1444
  334loPI   C6A 5340  10.454   1.970   7.301  0.0716 -0.0682  0.0422
  334loPI   C1B 5341   9.356   3.270   8.912  0.1358 -0.1243  0.0591
  334loPI   C2B 5342   9.232   3.255   8.516  0.1550  0.0007 -0.1077
  334loPI   C3B 5343   8.883   3.416   8.227  0.4034  0.0149 -0.0706
  334loPI   C4B 5344   8.450   3.376   8.259  0.1404 -0.0239  0.0599
  335loPI    C1 5345   7.856   5.925   9.640 -0.0553 -0.0609  0.0827
  335loPI    C2 5346   7.599   5.943   9.946 -0.0402  0.1294  0.0858
  335loPI    C3 5347   7.473   6.022   9.575 -0.0718 -0.1589  0.0324
  335loPI   PO4 5348   7.910   5.604   9.634 -0.2233 -0.0888  0.0016
  335loPI   GL1 5349   7.755   5.449   9.220 -0.1103 -0.0194  0.1800
  335loPI   GL2 5350   7.569   5.730   9.205 -0.0057 -0.3828  0.1660
  335loPI   C1A 5351   8.048   5.555   8.813  0.0044  0.0107  0.1968
  335loPI   C2A 5352   8.369   5.754   8.556  0.2655 -0.0117  0.2420
  335loPI   C3A 5353   8.441   5.856   8.062  0.0510  0.1087  0.2294
  335loPI   C4A 5354   8.357   5.903   7.620  0.0527 -0.1722 -0.0586
  335loPI   C5A 5355   8.009   5.926   7.245  0.1668 -0.1747 -0.2813
  335loPI   C6A 5356   7.721   6.241   7.230 -0.0200  0.1028  0.0253
  335loPI   C1B 5357   7.455   5.850   8.842 -0.2782 -0.0802 -0.0122
  335loPI   C2B 5358   7.568   5.771   8.338  0.0172  0.2832  0.1937
  335loPI   C3B 5359   7.559   5.633   7.943  0.3672 -0.0052 -0.1091
  335loPI   C4B 5360   7.712   5.514   7.595 -0.1459  0.0744  0.1575
  336loPI    C1 5361  18.502   4.354  10.064  0.0874  0.0307 -0.0943
  336loPI    C2 5362  18.507   4.283  10.458 -0.1784  0.0643 -0.0830
  336loPI    C3 5363  18.821   4.180  10.232 -0.1163 -0.1590  0.1019
  336loPI   PO4 5364  18.196   4.250   9.916 -0.2570  0.2224 -0.2915
  336loPI   GL1 5365  18.336   4.197   9.518 -0.2483 -0.0263  0.2502
  336loPI   GL2 5366  18.466   4.442   9.414  0.0106  0.2989 -0.2238
  336loPI   C1A 5367  18.323   3.955   9.156  0.1081 -0.0025  0.2978
  336loPI   C2A 5368  18.259   3.929   8.667  0.1134  0.0765 -0.2811
  336loPI   C3A 5369  18.142   3.834   8.366 -0.3917 -0.1254 -0.2999
  336loPI   C4A 5370  18.141   4.002   8.053  0.0718 -0.2192  0.1345
  336loPI   C5A 5371  18.329   4.231   7.690 -0.2980  0.2297 -0.3285
  336loPI   C6A 5372  18.614   4.200   7.319 -0.0755  0.0537  0.0594
  336loPI   C1B 5373  18.700   4.263   9.030  0.0735 -0.2458 -0.1425
  336loPI   C2B 5374  18.772   4.040   8.676  0.0752 -0.0883 -0.2488
  336loPI   C3B 5375  18.617   4.042   8.290 -0.1081  0.0676 -0.0303
  336loPI   C4B 5376  18.549   3.683   8.011  0.0044  0.0374  0.0397
  337loPI    C1 5377  14.922   7.608  10.123 -0.0156 -0.2290 -0.1910
  337loPI    C2 5378  15.043   7.228  10.148  0.1146 -0.1693  0.1421
  337loPI    C3 5379  14.918   7.420  10.476  0.2525  0.1414  0.0162
  337loPI   PO4 5380  14.804   7.631   9.882 -0.1628  0.0550  0.1418
  337loPI   GL1 5381  14.733   7.682   9.481  0.1795 -0.1471 -0.0856
  337loPI   GL2 5382  14.599   7.365   9.503  0.1078  0.0322  0.1776
  337loPI   C1A 5383  14.620   7.814   9.081  0.2009 -0.3492 -0.0122
  337loPI   C2A 5384  14.685   7.808   8.699 -0.0929 -0.1217 -0.2181
  337loPI   C3A 5385  14.608   7.616   8.278 -0.2533  0.0117 -0.2253
  337loPI   C4A 5386  14.696   7.227   8.004  0.0178  0.2436 -0.1690
  337loPI   C5A 5387  14.935   7.222   7.611  0.2679  0.0770  0.3171
  337loPI   C6A 5388  15.331   7.573   7.427 -0.1769  0.1465  0.3304
  337loPI   C1B 5389  14.694   7.294   9.104 -0.0649  0.0661 -0.3628
  337loPI   C2B 5390  14.724   7.070   8.616 -0.1271 -0.1411  0.5655
  337loPI   C3B 5391  14.765   6.759   8.423  0.1970 -0.0544  0.2030
  337loPI   C4B 5392  14.571   6.696   8.092 -0.0515 -0.1340  0.1639
  338loPI    C1 5393  10.899   7.380  10.309  0.0857  0.1177 -0.1873
  338loPI    C2 5394  11.087   7.067  10.473 -0.0722  0.0225 -0.1863
  338loPI    C3 5395  10.763   7.221  10.650  0.0419  0.2276 -0.1531
  338loPI   PO4 5396  10.913   7.308  10.042  0.4074 -0.2035  0.2549
  338loPI   GL1 5397  10.887   7.024   9.748 -0.4238  0.1889  0.1960
  338loPI   GL2 5398  11.201   7.041   9.610 -0.2763  0.2667  0.3216
  338loPI   C1A 5399  10.771   6.882   9.299  0.1273 -0.0958 -0.0839
  338loPI   C2A 5400  10.961   6.979   8.931 -0.0776 -0.1741 -0.1266
  338loPI   C3A 5401  11.079   7.028   8.503 -0.4046 -0.2983 -0.2057
  338loPI   C4A 5402  10.934   7.214   8.072  0.0987  0.0428  0.1952
  338loPI   C5A 5403  10.993   7.175   7.638  0.0154 -0.2691  0.0622
  338loPI   C6A 5404  10.831   6.869   7.485 -0.1985  0.1991  0.0568
  338loPI   C1B 5405  11.065   7.349   9.269  0.3131  0.4436 -0.4269
  338loPI   C2B 5406  10.978   7.462   8.848 -0.0170  0.0091 -0.0687
  338loPI   C3B 5407  10.961   7.553   8.409  0.1137 -0.2370  0.3119
  338loPI   C4B 5408  10.925   7.807   8.039  0.1407  0.0103  0.1523
  339loPI    C1 5409  11.988   8.165  10.477  0.0146  0.1201 -0.2490
  339loPI    C2 5410  11.622   8.325  10.458 -0.1656 -0.2431  0.0324
  339loPI    C3 5411  11.792   8.254  10.814  0.2462  0.0599 -0.0956
  339loPI   PO4 5412  12.106   8.344  10.231 -0.1088  0.2436  0.2295
  339loPI   GL1 5413  12.175   8.595   9.865  0.1689 -0.0760 -0.2820
  339loPI   GL2 5414  12.292   8.926   9.948 -0.0896 -0.3470 -0.0841
  339loPI   C1A 5415  12.114   8.714   9.461  0.2172 -0.2304 -0.0342
  339loPI   C2A 5416  12.285   8.801   9.060  0.0065 -0.2567 -0.1287
  339loPI   C3A 5417  12.352   8.611   8.689 -0.1524 -0.0790 -0.0977
  339loPI   C4A 5418  12.230   8.590   8.289  0.1897  0.0724 -0.1520
  339loPI   C5A 5419  12.373   8.391   7.902  0.1972  0.0805  0.0929
  339loPI   C6A 5420  12.534   8.101   7.648 -0.2644 -0.2180  0.1495
  339loPI   C1B 5421  12.270   9.129   9.591  0.2107 -0.4165  0.1697
  339loPI   C2B 5422  12.226   9.312   9.188 -0.2757 -0.3480 -0.0104
  339loPI   C3B 5423  12.189   9.488   8.760  0.0105  0.2115  0.0311
  339loPI   C4B 5424  12.224   9.913   8.575  0.0315  0.0330  0.2254
  340loPI    C1 5425  18.135  17.179  10.015  0.0410 -0.0482 -0.0482
  340loPI    C2 5426  18.425  17.395  10.188 -0.0296 -0.0858  0.1197
  340loPI    C3 5427  18.187  17.165  10.412 -0.1746 -0.0737 -0.0201
  340loPI   PO4 5428  18.285  17.063   9.792 -0.3136 -0.4097 -0.0506
  340loPI   GL1 5429  18.637  16.886   9.586  0.0342  0.0843  0.0222
  340loPI   GL2 5430  18.472  16.610   9.616  0.0938 -0.0367  0.0910
  340loPI   C1A 5431  18.500  17.072   9.165 -0.1266  0.0692  0.0514
  340loPI   C2A 5432  18.502  17.030   8.736 -0.0165  0.2085  0.2448
  340loPI   C3A 5433  18.513  17.134   8.293 -0.3747 -0.1469 -0.3312
  340loPI   C4A 5434  18.503  17.197   7.923 -0.1765 -0.1122  0.1219
  340loPI   C5A 5435  18.258  17.052   7.527  0.1489  0.1401 -0.1424
  340loPI   C6A 5436  18.170  16.711   7.449  0.0932  0.0994 -0.0030
  340loPI   C1B 5437  18.496  16.568   9.213 -0.0204 -0.1169  0.3794
  340loPI   C2B 5438  18.439  16.523   8.746  0.0059 -0.1687  0.0837
  340loPI   C3B 5439  18.399  16.484   8.275  0.0447  0.0542 -0.1735
  340loPI   C4B 5440  18.473  16.702   7.965 -0.1132 -0.1529  0.1129
  341loPI    C1 5441  17.758   4.077  10.136 -0.1119  0.1639  0.0683
  341loPI    C2 5442  17.639   3.941  10.493 -0.0056  0.2362  0.1321
  341loPI    C3 5443  18.001   4.106  10.453  0.0207  0.1411 -0.0307
  341loPI   PO4 5444  17.563   3.889  10.012 -0.4260 -0.0263 -0.1137
  341loPI   GL1 5445  17.485   3.959   9.603 -0.0991  0.2082  0.1363
  341loPI   GL2 5446  17.718   4.151   9.572 -0.1132 -0.3976 -0.0690
  341loPI   C1A 5447  17.267   3.883   9.156 -0.2537 -0.4063  0.0937
  341loPI   C2A 5448  17.092   4.088   8.751 -0.5099 -0.2143  0.1678
  341loPI   C3A 5449  17.102   3.968   8.325  0.0437 -0.0073  0.0351
  341loPI   C4A 5450  16.809   3.963   7.994 -0.0766  0.0233 -0.0344
  341loPI   C5A 5451  16.777   3.796   7.569  0.0486  0.0596 -0.1730
  341loPI   C6A 5452  16.846   3.589   7.114  0.0334 -0.1895  0.3549
  341loPI   C1B 5453  17.790   4.151   9.198 -0.1926  0.3121 -0.0782
  341loPI   C2B 5454  18.076   4.333   8.937 -0.1777  0.0863 -0.3332
  341loPI   C3B 5455  18.421   4.398   8.626  0.0021 -0.1320  0.0464
  341loPI   C4B 5456  18.918   4.510   8.506  0.0149 -0.0108 -0.3451
  342loPI    C1 5457   6.265  16.533   9.841 -0.0894 -0.1530 -0.2465
  342loPI    C2 5458   5.988  16.360   9.610 -0.2019 -0.0838 -0.1644
  342loPI    C3 5459   5.935  16.379  10.006 -0.0727 -0.0831 -0.1468
  342loPI   PO4 5460   6.289  16.754   9.657 -0.0030 -0.2181  0.1772
  342loPI   GL1 5461   6.110  16.658   9.249 -0.0086 -0.2782  0.1926
  342loPI   GL2 5462   6.556  16.683   9.220  0.0139 -0.1903  0.0807
  342loPI   C1A 5463   6.106  16.340   8.860  0.0158  0.1788  0.1083
  342loPI   C2A 5464   6.176  15.993   8.592 -0.1722 -0.4197 -0.0875
  342loPI   C3A 5465   6.267  16.061   8.148  0.2939  0.4654 -0.1369
  342loPI   C4A 5466   6.189  16.264   7.749 -0.1187  0.0185 -0.0685
  342loPI   C5A 5467   6.158  16.716   7.606 -0.0334  0.3390 -0.6759
  342loPI   C6A 5468   6.146  17.142   7.527  0.1109 -0.1835 -0.2794
  342loPI   C1B 5469   6.428  16.695   8.807  0.0545 -0.0376 -0.1353
  342loPI   C2B 5470   6.251  16.716   8.496 -0.0645 -0.2369  0.0894
  342loPI   C3B 5471   6.006  16.531   8.224  0.0137 -0.1652  0.3394
  342loPI   C4B 5472   5.758  16.689   7.999 -0.0827 -0.0651  0.0980
  343loPI    C1 5473  13.613   9.988  10.223  0.0142  0.1948  0.0945
  343loPI    C2 5474  13.732   9.779  10.543  0.0078 -0.1014 -0.0936
  343loPI    C3 5475  13.992   9.863  10.250  0.0181  0.1839 -0.0057
  343loPI   PO4 5476  13.293  10.046  10.253  0.1277  0.1895 -0.0992
  343loPI   GL1 5477  13.239  10.353  10.039 -0.3020  0.0829 -0.1363
  343loPI   GL2 5478  12.913  10.526   9.904 -0.1104  0.1730 -0.0786
  343loPI   C1A 5479  13.238  10.212   9.657  0.1635  0.1614  0.1588
  343loPI   C2A 5480  13.366  10.356   9.176 -0.1003  0.0156 -0.0643
  343loPI   C3A 5481  13.541  10.650   8.926  0.0587  0.0292  0.1454
  343loPI   C4A 5482  13.584  10.845   8.609  0.1205  0.3120 -0.1306
  343loPI   C5A 5483  13.527  10.920   8.154  0.1611 -0.0166 -0.0574
  343loPI   C6A 5484  13.357  10.940   7.645  0.3215 -0.0793 -0.2609
  343loPI   C1B 5485  12.838  10.461   9.492  0.2897 -0.0264 -0.1394
  343loPI   C2B 5486  12.926  10.480   8.990 -0.1376 -0.2506 -0.1877
  343loPI   C3B 5487  13.133  10.567   8.517  0.0147  0.1973 -0.3939
  343loPI   C4B 5488  13.163  10.636   8.124  0.0654 -0.0115  0.2441
  344loPI    C1 5489   6.982  13.769  10.270 -0.1245  0.2345 -0.0665
  344loPI    C2 5490   6.691  13.499  10.219 -0.0041  0.0766  0.0706
  344loPI    C3 5491   6.723  13.696  10.566  0.0750  0.0660  0.0696
  344loPI   PO4 5492   6.881  13.955   9.995  0.1096 -0.0073 -0.1006
  344loPI   GL1 5493   6.944  13.935   9.548  0.0938 -0.0682  0.0137
  344loPI   GL2 5494   7.187  13.961   9.197  0.1611  0.2692 -0.0471
  344loPI   C1A 5495   6.669  13.959   9.179 -0.0404  0.0752 -0.1896
  344loPI   C2A 5496   6.616  13.878   8.860  0.0262 -0.0595 -0.1158
  344loPI   C3A 5497   6.514  13.999   8.564  0.1661 -0.2939  0.0447
  344loPI   C4A 5498   6.424  13.930   8.199  0.3598  0.0374  0.0879
  344loPI   C5A 5499   6.610  13.826   7.683 -0.2887 -0.1427  0.1063
  344loPI   C6A 5500   6.242  13.893   7.378  0.0628  0.1636 -0.1284
  344loPI   C1B 5501   7.436  14.305   8.953  0.0978  0.0796 -0.2550
  344loPI   C2B 5502   7.392  14.642   8.558 -0.1274 -0.0320  0.1567
  344loPI   C3B 5503   7.390  14.477   8.221  0.2249  0.0187  0.0205
  344loPI   C4B 5504   7.538  14.279   7.883  0.2616 -0.0915 -0.1619
  345loPI    C1 5505  11.723   7.395  10.070  0.0658 -0.2665  0.3234
  345loPI    C2 5506  11.439   7.114  10.047  0.0265 -0.2054  0.0210
  345loPI    C3 5507  11.357   7.468  10.215 -0.0734 -0.1915 -0.0563
  345loPI   PO4 5508  11.948   7.336   9.967  0.0618  0.0026  0.3800
  345loPI   GL1 5509  12.093   7.587   9.546 -0.0346  0.3826 -0.1403
  345loPI   GL2 5510  12.272   7.788   9.593 -0.5638  0.2938  0.1938
  345loPI   C1A 5511  11.816   7.411   9.245  0.0881 -0.1373  0.0193
  345loPI   C2A 5512  11.505   7.143   9.085  0.0514 -0.1327 -0.1570
  345loPI   C3A 5513  11.469   7.268   8.733  0.2901  0.3169  0.4351
  345loPI   C4A 5514  11.406   7.329   8.245  0.2091  0.0218  0.1629
  345loPI   C5A 5515  11.423   7.391   7.887 -0.2938  0.0149 -0.1168
  345loPI   C6A 5516  11.420   7.356   7.507  0.2395 -0.0088  0.1332
  345loPI   C1B 5517  12.517   7.858   9.187 -0.1154 -0.2365 -0.0082
  345loPI   C2B 5518  12.629   7.835   8.722 -0.2663 -0.0164 -0.0136
  345loPI   C3B 5519  12.411   7.685   8.368 -0.0081  0.0920  0.3236
  345loPI   C4B 5520  12.468   7.552   7.919 -0.3536  0.2063 -0.1279
  346loPI    C1 5521  15.584  16.667   9.872 -0.2340  0.4172  0.0363
  346loPI    C2 5522  15.904  16.676  10.112 -0.0592 -0.0625 -0.1672
  346loPI    C3 5523  15.560  16.518  10.242 -0.0986  0.0903 -0.0835
  346loPI   PO4 5524  15.754  16.591   9.601 -0.0457 -0.2205  0.1578
  346loPI   GL1 5525  15.597  16.491   9.186  0.0749 -0.4486  0.0727
  346loPI   GL2 5526  15.232  16.574   9.087  0.0072  0.0818  0.2872
  346loPI   C1A 5527  15.853  16.607   8.864  0.0589 -0.3372  0.0468
  346loPI   C2A 5528  15.680  16.603   8.493 -0.1056 -0.0932  0.0848
  346loPI   C3A 5529  15.627  16.440   8.033  0.0591 -0.2755 -0.3388
  346loPI   C4A 5530  15.700  16.485   7.619  0.0979 -0.0111 -0.2407
  346loPI   C5A 5531  15.334  16.480   7.415 -0.0176  0.2639  0.0503
  346loPI   C6A 5532  15.199  16.796   7.103  0.2396  0.0847  0.0831
  346loPI   C1B 5533  15.319  16.852   8.764  0.2993 -0.1514  0.2005
  346loPI   C2B 5534  15.421  17.001   8.337 -0.0780  0.1763  0.0935
  346loPI   C3B 5535  15.595  17.009   7.825 -0.3797  0.2047 -0.0514
  346loPI   C4B 5536  15.567  16.918   7.377 -0.3800  0.1290 -0.2145
  347loPI    C1 5537  11.406  11.486  10.215  0.0523  0.0207 -0.0096
  347loPI    C2 5538  11.450  11.132  10.394 -0.1809 -0.1282 -0.2387
  347loPI    C3 5539  11.601  11.462  10.563 -0.0554 -0.3193  0.0303
  347loPI   PO4 5540  11.567  11.478   9.929 -0.0808 -0.0822  0.1497
  347loPI   GL1 5541  11.777  11.390   9.567  0.2566 -0.1186  0.0462
  347loPI   GL2 5542  11.977  11.541   9.689 -0.0598 -0.1120 -0.0125
  347loPI   C1A 5543  11.722  11.475   9.063  0.2116 -0.0414 -0.2220
  347loPI   C2A 5544  11.655  11.322   8.625 -0.0468 -0.0269 -0.1869
  347loPI   C3A 5545  11.401  11.414   8.287 -0.2119 -0.2900  0.2482
  347loPI   C4A 5546  11.228  11.422   7.922  0.3462 -0.1003 -0.2119
  347loPI   C5A 5547  11.212  11.398   7.402 -0.1623  0.0510 -0.4542
  347loPI   C6A 5548  11.458  11.320   7.054 -0.2934  0.1921  0.1791
  347loPI   C1B 5549  12.223  11.284   9.390 -0.1112  0.1943  0.0222
  347loPI   C2B 5550  12.171  11.133   9.002 -0.2065 -0.0288  0.0739
  347loPI   C3B 5551  12.176  11.113   8.669 -0.0493 -0.1201 -0.0515
  347loPI   C4B 5552  12.211  10.883   8.285 -0.0595  0.2086  0.1577
  348loPI    C1 5553   6.105   2.840  10.044  0.0955  0.0685  0.0294
  348loPI    C2 5554   6.131   2.988  10.415 -0.1688 -0.0402  0.0932
  348loPI    C3 5555   5.870   2.696  10.333  0.0581 -0.1859 -0.1248
  348loPI   PO4 5556   6.060   3.017   9.815 -0.1158  0.0779 -0.1804
  348loPI   GL1 5557   6.099   3.034   9.421 -0.1521 -0.3006 -0.0620
  348loPI   GL2 5558   6.436   3.217   9.264 -0.0338 -0.1747 -0.2719
  348loPI   C1A 5559   6.193   2.625   9.128 -0.0089 -0.1250  0.3398
  348loPI   C2A 5560   6.012   2.825   8.782  0.0148 -0.0285 -0.2132
  348loPI   C3A 5561   5.878   3.134   8.470  0.2069  0.2472 -0.3791
  348loPI   C4A 5562   5.970   3.316   8.141 -0.0326 -0.0283 -0.1349
  348loPI   C5A 5563   5.984   3.387   7.609  0.2026 -0.2192  0.1924
  348loPI   C6A 5564   5.931   3.453   7.214 -0.1089 -0.0281 -0.3167
  348loPI   C1B 5565   6.526   3.005   8.869  0.0781  0.0316 -0.2174
  348loPI   C2B 5566   6.814   2.891   8.610 -0.0992 -0.3952  0.0828
  348loPI   C3B 5567   6.868   2.881   8.168 -0.0775  0.2261 -0.0775
  348loPI   C4B 5568   6.514   2.926   7.974 -0.1719  0.0028 -0.0871
  349loPI    C1 5569   0.087  15.066   9.948 -0.0642  0.3389  0.1162
  349loPI    C2 5570  -0.009  14.700  10.079  0.2538  0.1861 -0.0637
  349loPI    C3 5571  -0.258  15.008  10.142 -0.1368 -0.1079 -0.1334
  349loPI   PO4 5572   0.058  15.072   9.708  0.0531 -0.2128 -0.3977
  349loPI   GL1 5573  -0.041  15.104   9.266  0.3688 -0.2126 -0.1387
  349loPI   GL2 5574   0.124  15.112   8.982  0.1450  0.2358 -0.3251
  349loPI   C1A 5575  -0.385  15.120   8.884 -0.1622 -0.2531  0.1452
  349loPI   C2A 5576  -0.454  15.292   8.436 -0.1287  0.5107  0.0431
  349loPI   C3A 5577  -0.352  15.390   7.990 -0.2361 -0.2430  0.2131
  349loPI   C4A 5578  -0.218  15.403   7.561 -0.2749  0.1269 -0.0265
  349loPI   C5A 5579  -0.064  15.792   7.544  0.0354  0.0058 -0.1077
  349loPI   C6A 5580  -0.431  16.001   7.355 -0.0326 -0.3468  0.1471
  349loPI   C1B 5581   0.375  15.086   8.603 -0.1271  0.0208  0.0000
  349loPI   C2B 5582   0.513  15.124   8.212 -0.3927 -0.3247  0.0592
  349loPI   C3B 5583   0.664  15.207   7.774  0.0386 -0.1881 -0.2534
  349loPI   C4B 5584   0.766  15.050   7.444 -0.3044 -0.0942 -0.3046
  350loPI    C1 5585  12.725  15.526   9.980  0.1393 -0.0640  0.0469
  350loPI    C2 5586  12.951  15.813  10.142 -0.1349  0.1179  0.1141
  350loPI    C3 5587  12.620  15.690  10.329 -0.2736  0.0915 -0.1439
  350loPI   PO4 5588  12.781  15.568   9.721 -0.2199  0.3263 -0.1464
  350loPI   GL1 5589  12.744  15.570   9.272 -0.1683 -0.0367  0.1828
  350loPI   GL2 5590  13.025  15.660   9.227  0.0110  0.2610  0.0438
  350loPI   C1A 5591  12.559  15.361   8.970 -0.2417 -0.3255 -0.1585
  350loPI   C2A 5592  12.395  15.118   8.655 -0.0957 -0.1969 -0.2791
  350loPI   C3A 5593  12.335  14.976   8.253 -0.1550  0.1934 -0.4163
  350loPI   C4A 5594  12.464  14.997   7.805 -0.5282 -0.0213  0.0246
  350loPI   C5A 5595  12.478  15.332   7.635 -0.0445 -0.2415 -0.4150
  350loPI   C6A 5596  12.568  15.261   7.224  0.1920  0.0143 -0.1609
  350loPI   C1B 5597  13.226  15.594   8.827  0.2628 -0.1491  0.2496
  350loPI   C2B 5598  13.160  15.560   8.353 -0.1975  0.0681  0.2410
  350loPI   C3B 5599  13.074  15.564   7.951 -0.0513 -0.0471 -0.2331
  350loPI   C4B 5600  12.778  15.720   7.653 -0.0033  0.0920  0.0501
  351loPI    C1 5601  11.733  10.692  10.302 -0.0990  0.0664  0.0522
  351loPI    C2 5602  11.566  10.374  10.478  0.0750 -0.0096  0.0816
  351loPI    C3 5603  11.692  10.682  10.700 -0.0522  0.0608  0.0569
  351loPI   PO4 5604  11.611  10.733  10.091 -0.0822 -0.1480  0.1070
  351loPI   GL1 5605  11.693  10.926   9.682  0.4123  0.3217 -0.4186
  351loPI   GL2 5606  11.371  10.760   9.651 -0.3161  0.1330  0.1418
  351loPI   C1A 5607  11.925  10.931   9.340  0.1628  0.0830  0.0329
  351loPI   C2A 5608  12.023  10.660   8.982 -0.0677 -0.2365 -0.1295
  351loPI   C3A 5609  12.171  10.423   8.584 -0.0957 -0.1751 -0.1741
  351loPI   C4A 5610  12.334  10.303   8.209 -0.2008 -0.0495  0.2672
  351loPI   C5A 5611  12.320  10.120   7.831  0.2718  0.0418  0.1499
  351loPI   C6A 5612  11.949   9.783   7.759  0.2705  0.0669  0.3192
  351loPI   C1B 5613  11.142  10.638   9.333 -0.1376  0.0457 -0.1760
  351loPI   C2B 5614  11.051  10.740   8.901 -0.0885 -0.1295 -0.0844
  351loPI   C3B 5615  10.952  10.731   8.507  0.1530  0.1380 -0.0821
  351loPI   C4B 5616  10.848  10.722   8.031 -0.0664  0.0004 -0.1538
  352loPI    C1 5617   9.519   8.211  10.296 -0.1425 -0.1721  0.1073
  352loPI    C2 5618   9.626   8.099  10.665  0.1709  0.1114  0.1074
  352loPI    C3 5619   9.558   8.485  10.585 -0.0715  0.0303 -0.0913
  352loPI   PO4 5620   9.639   8.023  10.121 -0.3028  0.1504 -0.0629
  352loPI   GL1 5621   9.693   8.201   9.722  0.1161  0.0092  0.1050
  352loPI   GL2 5622   9.360   8.271   9.528  0.2403  0.0138  0.1533
  352loPI   C1A 5623   9.964   8.462   9.409 -0.0534 -0.2265 -0.0671
  352loPI   C2A 5624  10.249   8.549   9.055 -0.1495  0.2640  0.0140
  352loPI   C3A 5625  10.362   8.517   8.649  0.0171 -0.1427  0.3550
  352loPI   C4A 5626  10.366   8.443   8.158 -0.0006  0.1536  0.1490
  352loPI   C5A 5627  10.225   8.440   7.789 -0.3648  0.2029  0.1090
  352loPI   C6A 5628  10.389   8.489   7.484 -0.2603 -0.0510  0.0959
  352loPI   C1B 5629   9.439   8.443   9.135  0.0443  0.1308 -0.2570
  352loPI   C2B 5630   9.694   8.584   8.733 -0.1264  0.5928  0.1104
  352loPI   C3B 5631   9.998   8.926   8.854  0.0321  0.1760 -0.0347
  352loPI   C4B 5632  10.365   9.000   8.961 -0.0558  0.2168  0.0747
  353loPI    C1 5633  15.823  12.599  10.174 -0.0558  0.1411 -0.3512
  353loPI    C2 5634  15.753  12.990  10.123  0.0109  0.1750 -0.1907
  353loPI    C3 5635  16.127  12.849  10.099  0.0251  0.1683  0.0416
  353loPI   PO4 5636  15.526  12.499  10.073  0.3243  0.3563  0.1876
  353loPI   GL1 5637  15.414  12.531   9.727  0.1062  0.1719  0.4753
  353loPI   GL2 5638  15.248  12.198   9.635 -0.0719 -0.0703 -0.1851
  353loPI   C1A 5639  15.530  12.475   9.371 -0.0912  0.1154  0.1625
  353loPI   C2A 5640  15.578  12.483   8.950  0.1064 -0.0787  0.1962
  353loPI   C3A 5641  15.479  12.614   8.532 -0.1840  0.1998 -0.2044
  353loPI   C4A 5642  15.505  12.464   8.068  0.4002  0.2815  0.0765
  353loPI   C5A 5643  15.402  12.721   7.708  0.2565 -0.4175 -0.0386
  353loPI   C6A 5644  15.478  13.107   7.653  0.2267  0.0638  0.0583
  353loPI   C1B 5645  15.190  12.085   9.158  0.0850  0.3080 -0.1187
  353loPI   C2B 5646  15.323  12.112   8.769 -0.1462 -0.0343  0.0213
  353loPI   C3B 5647  15.474  12.056   8.368 -0.1179 -0.1203 -0.0063
  353loPI   C4B 5648  15.377  11.739   8.089 -0.0667  0.3893 -0.2826
  354loPI    C1 5649   0.046  17.647  10.051 -0.1119  0.2183  0.1176
  354loPI    C2 5650  -0.198  17.481  10.321 -0.1074 -0.0730 -0.0526
  354loPI    C3 5651   0.194  17.403  10.332 -0.0429  0.2555  0.1139
  354loPI   PO4 5652  -0.227  17.792   9.874  0.3161  0.1697  0.1290
  354loPI   GL1 5653  -0.406  17.830   9.488  0.3531 -0.0385  0.0319
  354loPI   GL2 5654  -0.634  17.650   9.279  0.0845 -0.1162 -0.3357
  354loPI   C1A 5655  -0.027  17.967   9.226  0.0171 -0.1938  0.0874
  354loPI   C2A 5656  -0.057  18.252   8.792 -0.1497  0.0503 -0.0769
  354loPI   C3A 5657   0.162  18.332   8.407 -0.0096 -0.0498 -0.2983
  354loPI   C4A 5658   0.271  18.301   8.047  0.1986 -0.1135 -0.1384
  354loPI   C5A 5659   0.530  18.261   7.739  0.2490 -0.3453 -0.1337
  354loPI   C6A 5660   0.800  17.939   7.758  0.0219  0.1509  0.2206
  354loPI   C1B 5661  -0.362  17.798   8.897 -0.1444 -0.1577  0.1507
  354loPI   C2B 5662  -0.370  18.011   8.435 -0.2521  0.3374  0.1710
  354loPI   C3B 5663  -0.414  18.270   8.079  0.1337 -0.3703  0.2091
  354loPI   C4B 5664  -0.285  18.426   7.622  0.2461  0.1849  0.3144
  355loPI    C1 5665   2.846  14.159  10.392  0.0658 -0.2803 -0.0907
  355loPI    C2 5666   2.724  13.821  10.568 -0.2064 -0.0906  0.0929
  355loPI    C3 5667   2.632  14.175  10.730  0.2530  0.0709  0.0160
  355loPI   PO4 5668   2.787  14.148  10.215  0.1630 -0.0756 -0.0832
  355loPI   GL1 5669   2.526  14.133   9.815 -0.1631  0.0355  0.0017
  355loPI   GL2 5670   2.681  13.774   9.604 -0.2398  0.1545 -0.1639
  355loPI   C1A 5671   2.630  14.274   9.363  0.3259 -0.4178  0.0879
  355loPI   C2A 5672   2.846  14.399   8.985 -0.0414  0.0181 -0.1682
  355loPI   C3A 5673   2.768  14.429   8.590 -0.2444  0.3390  0.2193
  355loPI   C4A 5674   2.745  14.500   8.163  0.2093  0.3735  0.0320
  355loPI   C5A 5675   2.909  14.636   7.736 -0.1634 -0.0114  0.1663
  355loPI   C6A 5676   2.937  15.050   7.545  0.1919  0.2353  0.2341
  355loPI   C1B 5677   2.752  13.783   9.160 -0.0482  0.0322  0.3479
  355loPI   C2B 5678   2.994  13.891   8.799 -0.2230 -0.1514 -0.2124
  355loPI   C3B 5679   2.920  13.898   8.395 -0.0006  0.0898 -0.4996
  355loPI   C4B 5680   2.935  13.966   7.957 -0.0501  0.0909 -0.2359
  356loPI    C1 5681   5.862   1.290   9.946  0.0208  0.2634 -0.0405
  356loPI    C2 5682   5.628   1.347  10.266  0.0599  0.1579  0.0070
  356loPI    C3 5683   5.914   1.613  10.177 -0.1307  0.3301 -0.0981
  356loPI   PO4 5684   5.747   1.125   9.739  0.0856  0.0460 -0.3254
  356loPI   GL1 5685   5.656   1.123   9.328  0.1722  0.2715 -0.3608
  356loPI   GL2 5686   5.817   0.754   9.319 -0.3436  0.0173 -0.0061
  356loPI   C1A 5687   5.540   1.118   8.948 -0.1088 -0.0291 -0.3328
  356loPI   C2A 5688   5.441   1.452   8.559  0.2420 -0.0094  0.0127
  356loPI   C3A 5689   5.396   1.699   8.216 -0.4731 -0.0159  0.0025
  356loPI   C4A 5690   5.204   2.012   8.006  0.2414  0.0988  0.1670
  356loPI   C5A 5691   4.863   1.953   7.675  0.0356  0.0734 -0.0506
  356loPI   C6A 5692   4.549   2.060   7.358 -0.4483 -0.0920 -0.1369
  356loPI   C1B 5693   5.846   0.757   8.915 -0.1541 -0.1538 -0.1755
  356loPI   C2B 5694   5.555   0.814   8.495 -0.3404  0.0450  0.1227
  356loPI   C3B 5695   5.338   0.992   8.270  0.0877  0.1030  0.0929
  356loPI   C4B 5696   5.357   1.278   8.002 -0.0799 -0.0278  0.1856
  357loPI    C1 5697  17.804  18.961   9.845  0.0283 -0.1282 -0.3891
  357loPI    C2 5698  17.471  18.797   9.994  0.3416 -0.3567  0.0854
  357loPI    C3 5699  17.613  19.138  10.148  0.3226 -0.2505 -0.1272
  357loPI   PO4 5700  17.750  19.073   9.617 -0.2249 -0.1849  0.1322
  357loPI   GL1 5701  17.498  19.209   9.274 -0.2427  0.0367  0.1478
  357loPI   GL2 5702  17.355  19.510   9.304 -0.5178 -0.1519  0.0238
  357loPI   C1A 5703  17.722  19.355   8.996  0.0180 -0.1030  0.1474
  357loPI   C2A 5704  17.970  19.564   8.745 -0.4738  0.0240  0.1927
  357loPI   C3A 5705  18.125  19.478   8.349 -0.2144  0.0768  0.3258
  357loPI   C4A 5706  18.245  19.539   7.981 -0.1483  0.1791  0.1415
  357loPI   C5A 5707  18.317  19.674   7.561  0.1665  0.0861  0.1851
  357loPI   C6A 5708  18.489  19.680   7.062 -0.1364 -0.0443  0.0139
  357loPI   C1B 5709  17.271  19.380   8.845  0.0571 -0.2458 -0.0848
  357loPI   C2B 5710  17.192  19.347   8.340  0.2382 -0.3781 -0.2274
  357loPI   C3B 5711  17.346  19.682   8.067 -0.0971  0.0130  0.1704
  357loPI   C4B 5712  17.380  19.914   7.748  0.1228 -0.2561  0.0720
  358loPI    C1 5713  17.001  15.032   9.995 -0.1521 -0.1692 -0.0583
  358loPI    C2 5714  16.811  14.806  10.266 -0.3592  0.1308  0.0516
  358loPI    C3 5715  17.020  15.126  10.383  0.0145 -0.0541 -0.0935
  358loPI   PO4 5716  17.171  14.822   9.892  0.0720 -0.0092 -0.1536
  358loPI   GL1 5717  17.386  14.914   9.522  0.1061  0.0467 -0.2669
  358loPI   GL2 5718  17.583  15.144   9.689  0.3388  0.2131  0.1390
  358loPI   C1A 5719  17.580  15.169   9.176 -0.1296 -0.1047 -0.0423
  358loPI   C2A 5720  17.627  15.156   8.789  0.0278 -0.0322  0.0952
  358loPI   C3A 5721  17.686  15.470   8.519 -0.2119  0.0043  0.0969
  358loPI   C4A 5722  18.088  15.575   8.236 -0.1786  0.4149  0.1872
  358loPI   C5A 5723  18.307  15.315   7.993  0.2023  0.1517 -0.1532
  358loPI   C6A 5724  18.547  15.093   7.602 -0.1303 -0.0356  0.2265
  358loPI   C1B 5725  17.984  15.022   9.517 -0.0149 -0.0487  0.1274
  358loPI   C2B 5726  18.185  15.145   9.091  0.0267  0.1876  0.0791
  358loPI   C3B 5727  18.170  15.217   8.606  0.0509  0.3024 -0.1445
  358loPI   C4B 5728  17.953  15.051   8.366 -0.2677  0.1430 -0.1923
  359loPI    C1 5729  13.417  16.570  10.030  0.3058  0.1627  0.3059
  359loPI    C2 5730  13.195  16.831  10.235 -0.1141  0.0203  0.0446
  359loPI    C3 5731  13.343  16.508  10.418 -0.3949 -0.0501  0.1523
  359loPI   PO4 5732  13.557  16.755   9.826  0.0436 -0.0081  0.1749
  359loPI   GL1 5733  13.547  16.760   9.396 -0.0585  0.0114 -0.0167
  359loPI   GL2 5734  13.206  16.876   9.226  0.0107 -0.2392 -0.0824
  359loPI   C1A 5735  13.669  16.603   9.063  0.2377 -0.2388 -0.2443
  359loPI   C2A 5736  13.570  16.464   8.666 -0.0571  0.1385  0.2654
  359loPI   C3A 5737  13.571  16.531   8.264  0.0322 -0.1594  0.0202
  359loPI   C4A 5738  13.484  16.653   7.866 -0.0522  0.0257  0.2764
  359loPI   C5A 5739  13.227  16.543   7.442 -0.0868  0.1967 -0.0744
  359loPI   C6A 5740  13.358  16.320   7.134 -0.3877 -0.0139  0.1697
  359loPI   C1B 5741  13.203  16.955   8.696 -0.2974  0.2214  0.0608
  359loPI   C2B 5742  13.309  16.963   8.295 -0.0739 -0.3330  0.0799
  359loPI   C3B 5743  13.205  17.065   7.807 -0.1930  0.3199  0.2252
  359loPI   C4B 5744  13.154  17.490   7.561  0.1206  0.1071  0.1336
  360loPI    C1 5745  10.759  16.081   9.939 -0.0569  0.0847 -0.3152
  360loPI    C2 5746  10.809  16.428  10.132  0.3857 -0.1387 -0.0120
  360loPI    C3 5747  10.701  16.100  10.334  0.0759 -0.2070 -0.2794
  360loPI   PO4 5748  10.779  16.262   9.685  0.0960 -0.2642 -0.1915
  360loPI   GL1 5749  10.640  16.407   9.321 -0.0143 -0.1080 -0.0982
  360loPI   GL2 5750  10.435  16.172   9.195  0.0032  0.0803  0.1236
  360loPI   C1A 5751  10.833  16.380   8.921 -0.0633  0.0974 -0.1180
  360loPI   C2A 5752  10.826  16.219   8.441 -0.0765  0.2179 -0.0776
  360loPI   C3A 5753  10.896  16.089   7.995  0.0703  0.3198  0.0989
  360loPI   C4A 5754  10.871  15.954   7.589  0.3050 -0.2235 -0.1759
  360loPI   C5A 5755  10.632  15.936   7.151 -0.1118 -0.0987 -0.1647
  360loPI   C6A 5756  10.129  16.057   7.043  0.3466 -0.1488 -0.3559
  360loPI   C1B 5757  10.427  16.107   8.789  0.0660 -0.1581  0.2207
  360loPI   C2B 5758  10.352  15.803   8.368  0.2274 -0.4309 -0.0843
  360loPI   C3B 5759  10.241  15.567   8.002  0.0549 -0.1669  0.1796
  360loPI   C4B 5760   9.995  15.262   7.735  0.1091 -0.0060  0.0019
  361loPI    C1 5761   0.236   2.659  10.143 -0.3032  0.2650  0.1087
  361loPI    C2 5762   0.510   2.730  10.425 -0.0352  0.2338 -0.1390
  361loPI    C3 5763   0.250   2.429  10.470  0.2204  0.0188 -0.0775
  361loPI   PO4 5764   0.370   2.719   9.924  0.0630 -0.1602  0.0660
  361loPI   GL1 5765   0.172   2.679   9.505  0.1103  0.2689 -0.0388
  361loPI   GL2 5766   0.576   2.723   9.415  0.0322 -0.2907  0.0574
  361loPI   C1A 5767  -0.111   2.777   9.079 -0.3270 -0.2782  0.1042
  361loPI   C2A 5768  -0.266   2.706   8.678 -0.1987 -0.1300 -0.1168
  361loPI   C3A 5769  -0.264   2.677   8.254 -0.0890  0.2443 -0.0035
  361loPI   C4A 5770  -0.421   2.894   7.871  0.0299 -0.1515  0.1255
  361loPI   C5A 5771  -0.485   3.325   7.611 -0.0533 -0.2044  0.2685
  361loPI   C6A 5772  -0.670   3.752   7.559 -0.0028  0.0251 -0.1479
  361loPI   C1B 5773   0.396   2.656   9.075  0.0514  0.1628  0.0022
  361loPI   C2B 5774   0.288   2.960   8.792 -0.0062  0.0851 -0.1251
  361loPI   C3B 5775   0.214   3.255   8.520  0.2959 -0.0371  0.0979
  361loPI   C4B 5776   0.368   3.719   8.391  0.0165 -0.0949 -0.1260
  362loPI    C1 5777   1.485  13.072  10.072 -0.0003 -0.1335  0.1801
  362loPI    C2 5778   1.487  12.791   9.788 -0.1263  0.1899 -0.1490
  362loPI    C3 5779   1.295  12.725  10.132 -0.0523 -0.1699 -0.1723
  362loPI   PO4 5780   1.337  13.244  10.029  0.0678 -0.0681  0.1143
  362loPI   GL1 5781   1.521  13.314   9.625 -0.1261 -0.0678 -0.0374
  362loPI   GL2 5782   1.805  13.164   9.705 -0.0554 -0.2727 -0.2636
  362loPI   C1A 5783   1.221  13.176   9.328  0.0936 -0.0389 -0.2767
  362loPI   C2A 5784   1.115  13.258   8.951 -0.0917  0.0651  0.1277
  362loPI   C3A 5785   0.867  13.194   8.577  0.1033  0.1050  0.3336
  362loPI   C4A 5786   1.052  12.982   8.201 -0.1395 -0.0244  0.4612
  362loPI   C5A 5787   1.150  12.996   7.813 -0.0425 -0.1965 -0.2235
  362loPI   C6A 5788   0.982  13.068   7.407  0.1401 -0.3452 -0.3351
  362loPI   C1B 5789   1.865  13.252   9.250  0.0303  0.4561 -0.3050
  362loPI   C2B 5790   1.802  13.349   8.866  0.0877  0.0544 -0.0326
  362loPI   C3B 5791   1.937  13.159   8.464 -0.1873  0.1626  0.0108
  362loPI   C4B 5792   1.779  13.143   8.162 -0.0442 -0.0155 -0.0523
  363loPI    C1 5793   4.134   2.553   9.650 -0.0582  0.1853 -0.2233
  363loPI    C2 5794   4.389   2.732   9.400  0.2663 -0.0646 -0.0783
  363loPI    C3 5795   4.247   2.931   9.717  0.0920  0.1526 -0.2890
  363loPI   PO4 5796   4.000   2.402   9.455  0.0643  0.3733  0.3582
  363loPI   GL1 5797   4.132   2.411   9.093  0.0343  0.1039 -0.1002
  363loPI   GL2 5798   4.374   2.536   8.907  0.0722  0.0021  0.1716
  363loPI   C1A 5799   4.113   2.189   8.665  0.0628  0.4413  0.3396
  363loPI   C2A 5800   4.456   1.992   8.436 -0.1412  0.2326 -0.0264
  363loPI   C3A 5801   4.526   1.880   8.079  0.0164 -0.2372 -0.0892
  363loPI   C4A 5802   4.259   1.737   7.736 -0.0647  0.1090  0.1551
  363loPI   C5A 5803   3.907   1.617   7.416  0.2205 -0.1757  0.2054
  363loPI   C6A 5804   3.897   1.600   7.000 -0.3868 -0.1786  0.0325
  363loPI   C1B 5805   4.428   2.528   8.427  0.0244 -0.2941  0.1821
  363loPI   C2B 5806   4.353   2.344   8.142 -0.2262 -0.0982 -0.1257
  363loPI   C3B 5807   4.233   2.284   7.766 -0.0201 -0.2832  0.0973
  363loPI   C4B 5808   4.002   2.408   7.420  0.0083 -0.1768 -0.2091
  364loPI    C1 5809   4.830  18.609   9.877  0.0463  0.1498  0.1950
  364loPI    C2 5810   4.456  18.719   9.966 -0.0553 -0.2287  0.2562
  364loPI    C3 5811   4.668  18.501  10.226  0.0621 -0.3589  0.0540
  364loPI   PO4 5812   4.777  18.407   9.639  0.0884  0.0058  0.2178
  364loPI   GL1 5813   5.034  18.386   9.288 -0.1484 -0.1279 -0.1766
  364loPI   GL2 5814   4.905  18.543   9.179  0.0016  0.1668 -0.0818
  364loPI   C1A 5815   5.299  18.400   8.881 -0.0954  0.0202  0.1320
  364loPI   C2A 5816   5.292  18.476   8.517  0.0629  0.1721  0.2911
  364loPI   C3A 5817   5.241  18.706   8.089 -0.1826 -0.0825 -0.2310
  364loPI   C4A 5818   5.151  18.695   7.651 -0.0112  0.0615 -0.0457
  364loPI   C5A 5819   5.374  18.942   7.422 -0.0856 -0.0591 -0.0568
  364loPI   C6A 5820   5.404  19.151   7.019  0.2901 -0.0571  0.0687
  364loPI   C1B 5821   4.904  18.673   8.720  0.3712 -0.4725  0.2643
  364loPI   C2B 5822   5.095  18.991   8.515  0.2040  0.0940  0.0022
  364loPI   C3B 5823   5.222  19.190   8.086  0.3651  0.1955  0.0787
  364loPI   C4B 5824   5.012  19.199   7.673  0.2336  0.3768 -0.1633
  365loPI    C1 5825  18.507   5.475  10.182  0.0205 -0.0741  0.0343
  365loPI    C2 5826  18.817   5.387  10.419 -0.0202  0.0889  0.1501
  365loPI    C3 5827  18.444   5.360  10.560 -0.0685 -0.2441 -0.0314
  365loPI   PO4 5828  18.559   5.312   9.898  0.0061  0.2523  0.0475
  365loPI   GL1 5829  18.686   5.550   9.554  0.0128 -0.1173  0.1948
  365loPI   GL2 5830  18.666   5.911   9.600 -0.1546  0.0285 -0.1000
  365loPI   C1A 5831  18.489   5.384   9.138  0.0305  0.5550  0.2470
  365loPI   C2A 5832  18.296   5.274   8.727  0.2678  0.2028  0.2796
  365loPI   C3A 5833  18.299   5.355   8.306 -0.3627  0.0556  0.0541
  365loPI   C4A 5834  18.102   5.440   7.901 -0.0317  0.1345 -0.0620
  365loPI   C5A 5835  17.800   5.775   7.841  0.1638  0.0559 -0.0032
  365loPI   C6A 5836  17.461   6.052   7.687 -0.3176 -0.0419  0.0839
  365loPI   C1B 5837  18.851   5.858   9.158 -0.0928  0.1960  0.0265
  365loPI   C2B 5838  18.921   5.876   8.728  0.0326 -0.0950  0.2990
  365loPI   C3B 5839  18.825   6.105   8.343 -0.3899  0.2586  0.1075
  365loPI   C4B 5840  18.832   6.142   7.878 -0.0786 -0.0365 -0.2469
  366loPI    C1 5841  18.970  16.077  10.119  0.1393 -0.0866 -0.0519
  366loPI    C2 5842  18.669  15.824  10.192  0.0414  0.0286 -0.0543
  366loPI    C3 5843  18.645  16.205  10.314  0.2433  0.0048  0.0634
  366loPI   PO4 5844  19.028  16.018   9.915  0.0120  0.2326  0.0184
  366loPI   GL1 5845  19.355  16.216   9.733 -0.1515 -0.2443 -0.0985
  366loPI   GL2 5846  19.367  16.458   9.598 -0.1388  0.2408  0.0332
  366loPI   C1A 5847  19.365  15.996   9.323  0.0462 -0.0844 -0.1734
  366loPI   C2A 5848  19.444  16.011   8.836 -0.0822 -0.2774 -0.1379
  366loPI   C3A 5849  19.413  16.005   8.462 -0.4634  0.0747  0.0352
  366loPI   C4A 5850  19.212  16.006   8.063  0.1671  0.2313  0.2580
  366loPI   C5A 5851  18.784  15.920   7.896 -0.2121  0.1368  0.2261
  366loPI   C6A 5852  18.497  15.636   7.542  0.0705  0.1016 -0.0662
  366loPI   C1B 5853  19.385  16.518   9.098  0.0464  0.3062 -0.0628
  366loPI   C2B 5854  19.358  16.691   8.644  0.0040 -0.0381  0.0361
  366loPI   C3B 5855  19.233  17.131   8.480 -0.0227 -0.0648 -0.1189
  366loPI   C4B 5856  19.350  17.402   8.140  0.1734 -0.0811 -0.2538
  367loPI    C1 5857  11.686  16.469  10.238 -0.3323  0.0055  0.0576
  367loPI    C2 5858  11.702  16.102  10.398 -0.0521  0.0054  0.0349
  367loPI    C3 5859  11.529  16.401  10.599 -0.2603 -0.1321  0.0639
  367loPI   PO4 5860  11.642  16.416   9.979 -0.2585 -0.0155 -0.1920
  367loPI   GL1 5861  11.900  16.560   9.611 -0.0444  0.3415 -0.3055
  367loPI   GL2 5862  11.758  16.257   9.482  0.0842  0.0658  0.2598
  367loPI   C1A 5863  12.044  16.634   9.103 -0.0356 -0.0559 -0.2844
  367loPI   C2A 5864  12.194  16.627   8.609 -0.0522  0.1461 -0.1908
  367loPI   C3A 5865  12.191  16.492   8.250 -0.3432  0.1009  0.2825
  367loPI   C4A 5866  12.198  16.528   7.869 -0.2620 -0.2105  0.6252
  367loPI   C5A 5867  12.229  16.521   7.475 -0.0701  0.0200 -0.0603
  367loPI   C6A 5868  12.319  16.101   7.275 -0.0485  0.4256  0.1019
  367loPI   C1B 5869  11.782  16.031   9.115  0.1047 -0.3066 -0.2558
  367loPI   C2B 5870  11.702  15.883   8.767 -0.4278 -0.0910 -0.1008
  367loPI   C3B 5871  11.723  15.737   8.323  0.1578  0.2942  0.0053
  367loPI   C4B 5872  11.903  15.696   7.867 -0.0899 -0.1442  0.0540
  368loPI    C1 5873  14.484   7.068  10.321  0.0960 -0.1284 -0.1045
  368loPI    C2 5874  14.356   6.949  10.680 -0.2776  0.1456 -0.1417
  368loPI    C3 5875  14.475   7.327  10.625  0.0809  0.0231 -0.2326
  368loPI   PO4 5876  14.272   6.943  10.105  0.2851  0.0113  0.1475
  368loPI   GL1 5877  14.105   7.088   9.670  0.0166  0.0371 -0.2026
  368loPI   GL2 5878  14.298   6.931   9.595  0.1393  0.0318  0.1028
  368loPI   C1A 5879  13.828   7.182   9.341  0.0031 -0.2208  0.1531
  368loPI   C2A 5880  13.715   7.280   8.927 -0.3697 -0.1864 -0.1623
  368loPI   C3A 5881  13.590   7.393   8.464 -0.4397 -0.1398 -0.0766
  368loPI   C4A 5882  13.687   7.236   8.177 -0.0867 -0.0187 -0.1221
  368loPI   C5A 5883  13.673   7.330   7.798  0.0390 -0.0066 -0.0563
  368loPI   C6A 5884  13.798   7.873   7.669  0.3488  0.1384 -0.2292
  368loPI   C1B 5885  14.277   6.968   9.202  0.1964 -0.0059  0.0188
  368loPI   C2B 5886  14.239   7.101   8.810 -0.1325 -0.0133  0.1455
  368loPI   C3B 5887  14.195   7.075   8.291 -0.0887 -0.2040 -0.3393
  368loPI   C4B 5888  14.045   6.967   7.895  0.2002 -0.0451 -0.0238
  369loPI    C1 5889  12.734   3.259  10.147 -0.2980 -0.1439  0.0580
  369loPI    C2 5890  12.899   2.895  10.141  0.1636  0.0593 -0.0204
  369loPI    C3 5891  12.860   3.090  10.487  0.0907  0.0124 -0.0022
  369loPI   PO4 5892  12.796   3.345   9.887 -0.0094 -0.2504 -0.1963
  369loPI   GL1 5893  12.740   3.472   9.593 -0.1176  0.0287  0.1537
  369loPI   GL2 5894  13.005   3.402   9.383 -0.0205 -0.0912  0.0735
  369loPI   C1A 5895  12.601   3.674   9.247  0.1814  0.0156 -0.0047
  369loPI   C2A 5896  12.594   3.697   8.872 -0.0048  0.0330 -0.1073
  369loPI   C3A 5897  12.817   3.682   8.394 -0.0262 -0.0323  0.4032
  369loPI   C4A 5898  12.978   3.726   8.086  0.2110 -0.0483  0.2261
  369loPI   C5A 5899  13.318   3.677   7.774 -0.6405  0.1290 -0.0462
  369loPI   C6A 5900  13.727   3.770   7.498  0.0452 -0.1395 -0.1776
  369loPI   C1B 5901  13.008   3.309   8.996  0.0130 -0.0998  0.0415
  369loPI   C2B 5902  13.136   3.171   8.611 -0.2884 -0.2314  0.0442
  369loPI   C3B 5903  12.921   3.227   8.207  0.0611 -0.3147 -0.1386
  369loPI   C4B 5904  12.985   3.269   7.720  0.0613 -0.2668 -0.6044
  370loPI    C1 5905   9.778   5.750  10.497  0.0362  0.0724  0.0625
  370loPI    C2 5906   9.980   5.803  10.839 -0.0207 -0.0732  0.1192
  370loPI    C3 5907   9.939   5.436  10.685 -0.2048 -0.0395  0.0853
  370loPI   PO4 5908   9.889   5.833  10.302 -0.0083  0.1353  0.0424
  370loPI   GL1 5909   9.819   5.950   9.765 -0.1505 -0.0972  0.2440
  370loPI   GL2 5910   9.710   6.127   9.623 -0.0621 -0.0812  0.0225
  370loPI   C1A 5911   9.906   5.863   9.312  0.1780 -0.0896  0.1100
  370loPI   C2A 5912   9.864   6.016   8.959 -0.0901  0.1647 -0.0296
  370loPI   C3A 5913   9.827   6.085   8.619  0.0309  0.1218 -0.2431
  370loPI   C4A 5914   9.792   6.154   8.227  0.1648 -0.0143  0.0728
  370loPI   C5A 5915   9.582   6.368   7.897  0.0644  0.2279  0.0622
  370loPI   C6A 5916   9.776   6.672   7.741  0.1088 -0.1754  0.1008
  370loPI   C1B 5917   9.718   6.436   9.333 -0.4758  0.1477  0.1770
  370loPI   C2B 5918   9.626   6.555   8.921 -0.0854 -0.0970 -0.2672
  370loPI   C3B 5919   9.912   6.646   8.576  0.1356  0.0580 -0.2615
  370loPI   C4B 5920   9.924   6.688   8.270 -0.1083 -0.1113 -0.0604
  371loPI    C1 5921  12.632   3.891  10.373 -0.0630  0.0056  0.0185
  371loPI    C2 5922  12.904   3.662  10.557  0.0419  0.1224  0.0101
  371loPI    C3 5923  12.829   4.031  10.692  0.0156  0.1556 -0.0946
  371loPI   PO4 5924  12.619   3.836  10.178 -0.3201 -0.2578 -0.2326
  371loPI   GL1 5925  12.574   3.894   9.744  0.0371 -0.2251 -0.0432
  371loPI   GL2 5926  12.600   4.196   9.463 -0.0042 -0.1073 -0.1069
  371loPI   C1A 5927  13.066   3.874   9.406  0.0649 -0.0662 -0.2918
  371loPI   C2A 5928  13.101   3.886   8.894 -0.1802 -0.0066 -0.0810
  371loPI   C3A 5929  13.233   3.998   8.440 -0.0007  0.0500 -0.3211
  371loPI   C4A 5930  13.140   4.153   8.031  0.0614 -0.0045  0.0320
  371loPI   C5A 5931  13.071   4.140   7.611 -0.3203 -0.1704 -0.0717
  371loPI   C6A 5932  13.229   4.298   7.258 -0.0995  0.3052 -0.1795
  371loPI   C1B 5933  12.598   4.194   8.998  0.2705 -0.4305 -0.0577
  371loPI   C2B 5934  12.651   4.124   8.609  0.2583  0.3496 -0.4315
  371loPI   C3B 5935  12.643   4.069   8.115  0.2986  0.2137 -0.0213
  371loPI   C4B 5936  12.627   3.996   7.656 -0.0413  0.1170 -0.1405
  372loPI    C1 5937  14.640  12.069  10.521  0.0281 -0.0911 -0.0168
  372loPI    C2 5938  14.915  12.348  10.602 -0.1119  0.0430 -0.0003
  372loPI    C3 5939  14.985  11.966  10.694  0.0073  0.0981  0.1413
  372loPI   PO4 5940  14.522  12.187  10.314  0.1248 -0.0962  0.3449
  372loPI   GL1 5941  14.700  12.098   9.840  0.2186 -0.2896  0.2832
  372loPI   GL2 5942  14.393  11.827  10.008 -0.1271 -0.4104  0.0727
  372loPI   C1A 5943  14.677  12.095   9.408  0.2074  0.0460 -0.0996
  372loPI   C2A 5944  14.503  12.102   8.936  0.2236 -0.2533 -0.1347
  372loPI   C3A 5945  14.325  12.165   8.551 -0.0006 -0.0330 -0.0129
  372loPI   C4A 5946  14.621  12.311   8.205  0.1106 -0.1023  0.0226
  372loPI   C5A 5947  14.780  12.318   7.808  0.0922 -0.2066  0.0169
  372loPI   C6A 5948  15.236  12.172   7.817  0.1179  0.2118 -0.1536
  372loPI   C1B 5949  14.411  11.701   9.572  0.2829 -0.0821  0.1252
  372loPI   C2B 5950  14.401  11.706   9.173 -0.2209 -0.1355  0.0953
  372loPI   C3B 5951  14.345  11.647   8.771 -0.1555 -0.0964  0.0411
  372loPI   C4B 5952  14.382  11.736   8.249  0.0040  0.1583 -0.2260
  373loPI    C1 5953   2.101  12.727  10.084 -0.1943 -0.0673 -0.0126
  373loPI    C2 5954   1.791  12.759  10.335 -0.1047  0.0766  0.0814
  373loPI    C3 5955   2.164  12.816  10.469 -0.0108 -0.3922  0.0358
  373loPI   PO4 5956   1.992  12.732   9.874  0.0366 -0.0522  0.2461
  373loPI   GL1 5957   1.810  12.472   9.522  0.0948  0.4202 -0.0736
  373loPI   GL2 5958   2.240  12.327   9.481 -0.0549 -0.2512  0.0346
  373loPI   C1A 5959   1.557  12.725   9.245  0.0017  0.2337 -0.3833
  373loPI   C2A 5960   1.505  12.960   8.839 -0.3815  0.0606 -0.2106
  373loPI   C3A 5961   1.400  13.242   8.501 -0.3128  0.0950 -0.1800
  373loPI   C4A 5962   1.338  13.360   8.061 -0.2032 -0.2632 -0.3720
  373loPI   C5A 5963   1.107  13.452   7.716 -0.2853  0.3308  0.0294
  373loPI   C6A 5964   0.906  13.629   7.289  0.2609  0.4269  0.1611
  373loPI   C1B 5965   2.284  12.072   9.139 -0.2986 -0.2649 -0.1155
  373loPI   C2B 5966   2.178  12.186   8.660  0.2328  0.0050  0.1333
  373loPI   C3B 5967   2.197  12.413   8.347  0.1729 -0.0923 -0.0655
  373loPI   C4B 5968   2.274  12.860   8.266  0.2431  0.1854 -0.4436
  374loPI    C1 5969  12.308  11.008  10.372 -0.1679 -0.0275  0.1860
  374loPI    C2 5970  12.604  10.791  10.532 -0.2037 -0.1417  0.0988
  374loPI    C3 5971  12.370  11.014  10.767 -0.1270 -0.1483  0.1820
  374loPI   PO4 5972  12.201  10.742  10.168  0.1341 -0.1305 -0.1418
  374loPI   GL1 5973  12.143  10.696   9.792 -0.0647 -0.1744  0.0252
  374loPI   GL2 5974  11.926  10.444   9.785  0.0607 -0.2601 -0.1592
  374loPI   C1A 5975  12.295  10.562   9.370 -0.2655 -0.1123  0.0320
  374loPI   C2A 5976  12.465  10.301   8.968 -0.5211 -0.2150 -0.0521
  374loPI   C3A 5977  12.723  10.251   8.625  0.0357 -0.0711  0.1671
  374loPI   C4A 5978  13.015  10.155   8.196 -0.0901 -0.3185 -0.2219
  374loPI   C5A 5979  13.357  10.016   8.080 -0.0993  0.0008  0.1733
  374loPI   C6A 5980  13.712  10.034   8.194 -0.0384  0.5444  0.2835
  374loPI   C1B 5981  11.687  10.453   9.431  0.0550 -0.0083  0.1173
  374loPI   C2B 5982  11.779  10.252   8.994  0.1425 -0.2642 -0.3939
  374loPI   C3B 5983  11.740  10.167   8.557  0.4605 -0.0744 -0.0113
  374loPI   C4B 5984  11.873   9.998   8.166 -0.1798  0.2030  0.0881
  375loPI    C1 5985   3.804   6.542  10.149  0.0101 -0.0241 -0.1649
  375loPI    C2 5986   4.177   6.402  10.189 -0.0246 -0.0538  0.0707
  375loPI    C3 5987   3.864   6.158  10.243 -0.0799 -0.0078 -0.0378
  375loPI   PO4 5988   3.848   6.672   9.894  0.0484  0.1044 -0.1176
  375loPI   GL1 5989   3.584   6.713   9.523 -0.1076  0.0983  0.0674
  375loPI   GL2 5990   3.695   6.383   9.386  0.1891 -0.0599  0.1322
  375loPI   C1A 5991   3.723   6.822   9.135 -0.0182 -0.2562 -0.0315
  375loPI   C2A 5992   3.684   6.836   8.685 -0.0785  0.3049 -0.1252
  375loPI   C3A 5993   3.613   6.644   8.217 -0.1557 -0.3993 -0.1995
  375loPI   C4A 5994   3.708   6.708   7.855 -0.2830 -0.0531  0.0896
  375loPI   C5A 5995   3.979   6.667   7.489 -0.0539 -0.1189  0.1948
  375loPI   C6A 5996   4.136   6.973   7.233  0.1476 -0.0989 -0.3682
  375loPI   C1B 5997   3.535   6.332   9.000  0.0414 -0.0042 -0.0153
  375loPI   C2B 5998   3.510   6.089   8.627  0.1189 -0.2473  0.2580
  375loPI   C3B 5999   3.394   6.009   8.232  0.1482 -0.2270 -0.3490
  375loPI   C4B 6000   3.319   6.093   7.827  0.0981 -0.0929 -0.0402
  376loPI    C1 6001   6.837  12.487  10.119  0.1217 -0.0979  0.1556
  376loPI    C2 6002   6.486  12.600  10.274  0.1032  0.1865 -0.0866
  376loPI    C3 6003   6.793  12.518  10.516 -0.0357  0.2510  0.1142
  376loPI   PO4 6004   6.863  12.271   9.932 -0.0923 -0.2223  0.3505
  376loPI   GL1 6005   6.897  12.257   9.451 -0.1479 -0.0139 -0.2069
  376loPI   GL2 6006   7.246  12.310   9.377  0.2833  0.0260  0.1223
  376loPI   C1A 6007   6.772  12.364   8.984 -0.0564  0.4063 -0.0222
  376loPI   C2A 6008   6.809  12.704   8.746 -0.2791 -0.0475 -0.2112
  376loPI   C3A 6009   6.626  13.012   8.427  0.1274  0.5161 -0.0200
  376loPI   C4A 6010   6.454  12.833   7.988 -0.1065 -0.2311 -0.2204
  376loPI   C5A 6011   6.708  12.685   7.655 -0.1024 -0.0641  0.0164
  376loPI   C6A 6012   6.769  12.358   7.436 -0.1895 -0.2940  0.0049
  376loPI   C1B 6013   7.395  12.094   9.081 -0.3871  0.3003  0.0185
  376loPI   C2B 6014   7.562  11.920   8.718 -0.1003 -0.0492  0.1072
  376loPI   C3B 6015   7.722  11.867   8.298 -0.1117 -0.0163  0.2126
  376loPI   C4B 6016   7.989  11.509   8.219 -0.1426 -0.1162 -0.2070
  377loPI    C1 6017   8.045   5.859  10.347  0.0571  0.1605 -0.2314
  377loPI    C2 6018   8.361   6.031  10.521  0.1715 -0.1301 -0.1455
  377loPI    C3 6019   7.998   6.068  10.685  0.1500  0.2386 -0.2662
  377loPI   PO4 6020   8.150   5.813  10.045  0.0323 -0.2558 -0.1878
  377loPI   GL1 6021   8.295   6.108   9.716  0.0140 -0.0171 -0.1047
  377loPI   GL2 6022   8.314   5.845   9.410  0.2395 -0.1480  0.0513
  377loPI   C1A 6023   8.049   6.316   9.467 -0.1956  0.0571 -0.0098
  377loPI   C2A 6024   8.036   6.501   8.994  0.0448  0.1549 -0.4374
  377loPI   C3A 6025   8.021   6.549   8.556 -0.0712  0.0846  0.2956
  377loPI   C4A 6026   7.861   6.555   8.019  0.0813  0.0605 -0.0230
  377loPI   C5A 6027   7.678   6.456   7.668  0.2709 -0.0642 -0.1490
  377loPI   C6A 6028   7.259   6.434   7.495  0.2137  0.1562 -0.1298
  377loPI   C1B 6029   8.078   5.943   9.126 -0.0482  0.1520 -0.0352
  377loPI   C2B 6030   7.912   6.067   8.752  0.0456 -0.4850 -0.0187
  377loPI   C3B 6031   8.051   6.063   8.264  0.0080  0.0298  0.0176
  377loPI   C4B 6032   7.905   6.014   7.851  0.0800 -0.0108 -0.1780
  378loPI    C1 6033   7.221  12.258  10.330  0.0284  0.1190 -0.0544
  378loPI    C2 6034   7.589  12.319  10.475  0.0236  0.1922 -0.0728
  378loPI    C3 6035   7.268  12.429  10.688  0.0034 -0.1504  0.0794
  378loPI   PO4 6036   7.264  12.019  10.104 -0.2316  0.0156  0.0827
  378loPI   GL1 6037   7.374  12.006   9.706  0.0517  0.3440 -0.0492
  378loPI   GL2 6038   7.271  11.806   9.520  0.1128 -0.1306  0.0896
  378loPI   C1A 6039   7.711  12.087   9.424  0.2660 -0.2463  0.1277
  378loPI   C2A 6040   7.955  12.089   9.017  0.0539 -0.2449 -0.1244
  378loPI   C3A 6041   8.073  12.144   8.582 -0.1892  0.1950  0.0522
  378loPI   C4A 6042   8.195  11.924   8.142  0.4888  0.2064 -0.1109
  378loPI   C5A 6043   8.338  11.922   7.751 -0.0941  0.1025  0.2179
  378loPI   C6A 6044   8.442  11.663   7.402  0.1307 -0.5185 -0.1541
  378loPI   C1B 6045   7.283  11.539   9.031 -0.3303 -0.0702  0.0956
  378loPI   C2B 6046   7.417  11.447   8.621 -0.3586  0.4244 -0.0979
  378loPI   C3B 6047   7.480  11.434   8.190  0.2824  0.2327  0.0158
  378loPI   C4B 6048   7.491  11.376   7.789 -0.2851 -0.0207 -0.5108
  379loPI    C1 6049  10.305  17.528  10.248  0.1971 -0.0032 -0.3045
  379loPI    C2 6050  10.573  17.736  10.461 -0.1626  0.0564  0.1027
  379loPI    C3 6051  10.476  17.363  10.569 -0.2243  0.0255 -0.0571
  379loPI   PO4 6052  10.403  17.591   9.924  0.1567 -0.1376 -0.1829
  379loPI   GL1 6053  10.425  17.577   9.504 -0.1639 -0.0483 -0.0216
  379loPI   GL2 6054  10.233  17.730   9.176 -0.0761 -0.0004  0.0084
  379loPI   C1A 6055  10.428  17.266   9.207 -0.3415 -0.2346 -0.0525
  379loPI   C2A 6056  10.283  17.237   8.854  0.2109  0.0501  0.1570
  379loPI   C3A 6057  10.238  16.933   8.440 -0.0310 -0.0710  0.0012
  379loPI   C4A 6058  10.082  16.735   8.109 -0.0434 -0.2821  0.0371
  379loPI   C5A 6059  10.359  16.597   7.939  0.2882 -0.2849 -0.1406
  379loPI   C6A 6060  10.447  16.222   8.060  0.0292  0.0025  0.0315
  379loPI   C1B 6061  10.098  17.694   8.708  0.3410 -0.1888  0.2077
  379loPI   C2B 6062  10.091  17.462   8.244  0.2794 -0.1366 -0.3219
  379loPI   C3B 6063   9.799  17.247   7.990  0.2762  0.4556 -0.0152
  379loPI   C4B 6064   9.963  16.914   7.656 -0.1103 -0.4516 -0.1863
  380loPI    C1 6065  18.387   6.211  10.268 -0.0393  0.1904 -0.0459
  380loPI    C2 6066  18.197   5.970  10.524 -0.0362  0.1327 -0.0977
  380loPI    C3 6067  18.450   6.248  10.661 -0.0174  0.0869 -0.0395
  380loPI   PO4 6068  18.490   5.962  10.030  0.2764 -0.0564 -0.0198
  380loPI   GL1 6069  18.141   5.619   9.874 -0.2468 -0.2267 -0.1650
  380loPI   GL2 6070  17.831   5.588   9.650  0.0318  0.0511 -0.1441
  380loPI   C1A 6071  18.231   5.711   9.439 -0.1692  0.0764  0.0761
  380loPI   C2A 6072  18.336   5.957   9.150 -0.0603  0.1866 -0.3377
  380loPI   C3A 6073  18.345   6.210   8.781 -0.0052  0.2848 -0.3293
  380loPI   C4A 6074  18.457   6.355   8.458 -0.1175 -0.2627  0.1950
  380loPI   C5A 6075  18.403   6.475   8.055 -0.1963  0.1518  0.1263
  380loPI   C6A 6076  18.444   6.467   7.686 -0.1472  0.2042  0.1448
  380loPI   C1B 6077  17.837   5.615   9.118  0.0078 -0.2255 -0.1172
  380loPI   C2B 6078  17.973   5.834   8.720 -0.1400  0.0748  0.3105
  380loPI   C3B 6079  17.883   5.638   8.360  0.0286 -0.2386  0.1942
  380loPI   C4B 6080  17.782   5.214   8.175 -0.2415  0.1749 -0.0776
  381loPI    C1 6081  18.366   9.885  10.311  0.0115 -0.1853  0.1134
  381loPI    C2 6082  18.216   9.536  10.438  0.0468 -0.2968 -0.1456
  381loPI    C3 6083  18.611   9.579  10.392  0.0445 -0.2145 -0.0916
  381loPI   PO4 6084  18.288   9.951  10.080 -0.0199  0.0655  0.4282
  381loPI   GL1 6085  18.312   9.921   9.699 -0.0938  0.0588  0.1881
  381loPI   GL2 6086  18.501   9.769   9.520 -0.0454 -0.0530  0.1599
  381loPI   C1A 6087  18.334  10.232   9.406  0.1739 -0.0338 -0.2190
  381loPI   C2A 6088  18.316  10.204   9.004 -0.1869 -0.0444 -0.0876
  381loPI   C3A 6089  18.331  10.162   8.557  0.3728 -0.0826  0.0130
  381loPI   C4A 6090  18.313  10.432   8.262  0.1633  0.1312 -0.0970
  381loPI   C5A 6091  18.405  10.540   7.846  0.0572  0.0038  0.2281
  381loPI   C6A 6092  18.183  10.520   7.556 -0.0869  0.1625 -0.1150
  381loPI   C1B 6093  18.417   9.641   9.069  0.0792  0.0353  0.0188
  381loPI   C2B 6094  18.231   9.649   8.612 -0.4882  0.0190  0.2665
  381loPI   C3B 6095  18.072   9.792   8.296 -0.2415 -0.1377 -0.0750
  381loPI   C4B 6096  18.130  10.060   7.944 -0.1475 -0.0782 -0.0451
  382loPI    C1 6097  15.361  16.186   9.907 -0.4696  0.2922 -0.4717
  382loPI    C2 6098  15.107  15.903  10.029  0.1186 -0.0342  0.0533
  382loPI    C3 6099  15.080  16.273  10.178 -0.0117 -0.0810  0.1482
  382loPI   PO4 6100  15.353  16.154   9.632 -0.0109 -0.1599 -0.2052
  382loPI   GL1 6101  15.292  16.099   9.310 -0.2696 -0.0900 -0.1512
  382loPI   GL2 6102  14.897  16.212   9.248  0.2020 -0.0515  0.2992
  382loPI   C1A 6103  15.202  15.898   8.903  0.1131 -0.1482  0.0052
  382loPI   C2A 6104  14.917  16.060   8.623 -0.1133 -0.1078 -0.0488
  382loPI   C3A 6105  14.837  16.112   8.157  0.0626  0.1688 -0.4286
  382loPI   C4A 6106  14.603  15.852   7.945 -0.0404  0.3294 -0.0069
  382loPI   C5A 6107  14.636  15.647   7.559 -0.2161  0.3072  0.0861
  382loPI   C6A 6108  14.370  15.635   7.123 -0.0563  0.1931 -0.2155
  382loPI   C1B 6109  14.712  16.498   8.895 -0.1811 -0.0286  0.1746
  382loPI   C2B 6110  14.693  16.593   8.506  0.0003 -0.3380  0.1929
  382loPI   C3B 6111  14.635  16.564   8.034  0.1548  0.3839  0.1187
  382loPI   C4B 6112  14.853  16.375   7.715 -0.1543  0.2600  0.4440
  383loPI    C1 6113  11.001   5.558  10.088 -0.4265  0.1181 -0.1080
  383loPI    C2 6114  10.945   5.537  10.484 -0.3243 -0.0552 -0.1015
  383loPI    C3 6115  11.154   5.840  10.327  0.0550 -0.2433  0.0277
  383loPI   PO4 6116  10.729   5.491   9.951 -0.0640 -0.1617 -0.0960
  383loPI   GL1 6117  10.440   5.582   9.553  0.0138  0.0960  0.1174
  383loPI   GL2 6118  10.199   5.531   9.383  0.1208  0.2054 -0.0169
  383loPI   C1A 6119  10.685   5.513   9.251 -0.3243 -0.0317  0.1319
  383loPI   C2A 6120  10.653   5.527   8.784 -0.0605 -0.0412  0.0034
  383loPI   C3A 6121  10.751   5.499   8.328 -0.0961  0.2138  0.0642
  383loPI   C4A 6122  10.853   5.517   7.950  0.0226 -0.4636  0.1057
  383loPI   C5A 6123  10.782   5.383   7.620 -0.0764  0.0076 -0.1219
  383loPI   C6A 6124  10.993   5.265   7.291  0.2974  0.1006  0.0005
  383loPI   C1B 6125  10.236   5.400   9.003  0.1395 -0.0603 -0.3714
  383loPI   C2B 6126  10.269   5.263   8.515  0.0532  0.1995 -0.0075
  383loPI   C3B 6127  10.355   5.314   8.052  0.3035 -0.0493  0.2423
  383loPI   C4B 6128  10.275   5.572   7.671 -0.1795  0.1352 -0.1157
  384loPI    C1 6129   4.338  16.681  10.220 -0.0670 -0.1810  0.3071
  384loPI    C2 6130   4.393  17.076  10.250  0.4481 -0.2264  0.0659
  384loPI    C3 6131   4.167  16.885  10.518 -0.1664  0.2910 -0.0607
  384loPI   PO4 6132   4.416  16.620   9.956  0.0460 -0.2784 -0.2032
  384loPI   GL1 6133   4.310  16.204   9.816 -0.2959 -0.1177 -0.1583
  384loPI   GL2 6134   4.037  16.028   9.948 -0.0200 -0.1389 -0.1640
  384loPI   C1A 6135   4.290  16.324   9.386  0.2163  0.4299  0.1325
  384loPI   C2A 6136   4.275  16.254   8.918  0.2245 -0.0829  0.0094
  384loPI   C3A 6137   4.468  16.018   8.673 -0.0981 -0.1048 -0.1483
  384loPI   C4A 6138   4.482  15.732   8.327 -0.1357 -0.0151 -0.2566
  384loPI   C5A 6139   4.563  15.700   7.798 -0.2054 -0.4108 -0.2686
  384loPI   C6A 6140   4.308  15.366   7.441  0.3759  0.0643 -0.0234
  384loPI   C1B 6141   3.931  15.928   9.492 -0.0239 -0.0931 -0.0296
  384loPI   C2B 6142   4.051  15.851   9.114  0.1151 -0.2296  0.0553
  384loPI   C3B 6143   4.144  15.631   8.706 -0.2426 -0.2488  0.2311
  384loPI   C4B 6144   3.931  15.608   8.309  0.1201  0.0411 -0.0787
  385loPI    C1 6145   2.982   1.763  10.038 -0.0241  0.3079  0.0270
  385loPI    C2 6146   2.834   2.103  10.188 -0.1638  0.1574  0.2360
  385loPI    C3 6147   3.123   1.908  10.384 -0.1116  0.1343  0.1367
  385loPI   PO4 6148   3.074   1.864   9.705  0.0154  0.1063 -0.0307
  385loPI   GL1 6149   3.172   2.024   9.379 -0.1951 -0.0278 -0.0899
  385loPI   GL2 6150   3.405   1.814   9.309 -0.2111  0.1453 -0.2366
  385loPI   C1A 6151   3.109   1.940   8.955  0.3829  0.1417 -0.2752
  385loPI   C2A 6152   3.332   1.799   8.571 -0.0016  0.1958  0.1251
  385loPI   C3A 6153   3.523   1.698   8.198 -0.4125 -0.2508  0.1671
  385loPI   C4A 6154   3.439   1.629   7.830 -0.1955  0.3079 -0.0039
  385loPI   C5A 6155   3.524   1.327   7.528 -0.0601 -0.1354  0.1257
  385loPI   C6A 6156   3.722   1.152   7.323 -0.0919  0.0021  0.0070
  385loPI   C1B 6157   3.430   1.497   8.987  0.4542  0.0255  0.1543
  385loPI   C2B 6158   3.479   1.296   8.554 -0.0679  0.1341  0.0766
  385loPI   C3B 6159   3.463   1.236   8.129  0.0405 -0.3186  0.0502
  385loPI   C4B 6160   3.475   0.930   7.841  0.0751  0.0658  0.2333
  386loPI    C1 6161  18.092   7.142  10.175 -0.2332  0.0423  0.0439
  386loPI    C2 6162  18.172   7.139  10.567 -0.1304 -0.1605  0.0231
  386loPI    C3 6163  18.264   7.460  10.347  0.1488 -0.1863  0.0982
  386loPI   PO4 6164  17.838   7.051  10.036  0.1366 -0.0605 -0.0359
  386loPI   GL1 6165  17.760   7.111   9.677  0.0015 -0.1234 -0.0284
  386loPI   GL2 6166  17.628   7.482   9.556 -0.1980  0.0760  0.1337
  386loPI   C1A 6167  17.764   6.837   9.248  0.1214 -0.1937  0.0558
  386loPI   C2A 6168  17.758   6.807   8.730 -0.2710  0.1249 -0.0986
  386loPI   C3A 6169  17.517   6.853   8.453  0.3908 -0.3309 -0.1059
  386loPI   C4A 6170  17.367   7.219   8.154 -0.0836 -0.2871 -0.1437
  386loPI   C5A 6171  17.479   7.203   7.661  0.5023 -0.1452 -0.0242
  386loPI   C6A 6172  17.546   7.272   7.215  0.2246  0.0688  0.3393
  386loPI   C1B 6173  17.407   7.554   9.368  0.1716  0.2820 -0.1670
  386loPI   C2B 6174  17.309   7.211   9.089 -0.1635  0.1091 -0.1627
  386loPI   C3B 6175  17.183   6.883   8.819  0.1370  0.0755 -0.2642
  386loPI   C4B 6176  16.849   6.646   8.652  0.0929 -0.2138  0.1347
  387loPI    C1 6177   7.320  14.966   9.997 -0.1223  0.1149  0.1771
  387loPI    C2 6178   7.668  14.840  10.149 -0.0775 -0.1131 -0.1055
  387loPI    C3 6179   7.326  14.763  10.341  0.0033 -0.1356  0.0304
  387loPI   PO4 6180   7.399  15.233   9.784  0.2111 -0.0021 -0.4722
  387loPI   GL1 6181   7.353  15.344   9.350 -0.0806  0.2282 -0.2806
  387loPI   GL2 6182   7.583  15.167   9.301  0.1828 -0.1071 -0.0454
  387loPI   C1A 6183   7.313  15.139   8.875 -0.4619  0.0712 -0.1734
  387loPI   C2A 6184   7.644  15.235   8.574  0.0972  0.0794  0.0738
  387loPI   C3A 6185   7.992  15.361   8.352 -0.2498  0.3020  0.1985
  387loPI   C4A 6186   7.871  15.227   7.837 -0.2105 -0.3347 -0.0906
  387loPI   C5A 6187   7.977  15.361   7.411 -0.0454  0.2562  0.1223
  387loPI   C6A 6188   8.105  15.203   7.057 -0.4071 -0.4265  0.1254
  387loPI   C1B 6189   7.873  14.950   8.861 -0.2371 -0.1944  0.0144
  387loPI   C2B 6190   7.888  14.705   8.424 -0.0109 -0.0891 -0.0683
  387loPI   C3B 6191   7.713  14.770   8.079 -0.1433 -0.2577 -0.3117
  387loPI   C4B 6192   7.607  14.787   7.671  0.0347 -0.2033  0.0199
  388loPI    C1 6193  12.700   2.564   9.757 -0.1046  0.0309 -0.0500
  388loPI    C2 6194  12.833   2.383  10.088  0.1221  0.1176 -0.0916
  388loPI    C3 6195  12.453   2.507  10.067  0.0720 -0.0001  0.0868
  388loPI   PO4 6196  12.807   2.397   9.539 -0.2255 -0.0060 -0.3397
  388loPI   GL1 6197  13.014   2.380   9.185 -0.0025 -0.2651 -0.1929
  388loPI   GL2 6198  13.206   2.221   9.249 -0.0315 -0.0501  0.1678
  388loPI   C1A 6199  13.194   2.485   8.837 -0.1665 -0.2213  0.1970
  388loPI   C2A 6200  13.314   2.549   8.457 -0.2465 -0.0908 -0.0007
  388loPI   C3A 6201  13.354   2.533   8.023  0.0305 -0.1500  0.2953
  388loPI   C4A 6202  13.383   2.307   7.620  0.2531 -0.1727 -0.3801
  388loPI   C5A 6203  13.447   2.180   7.181 -0.3626  0.0580  0.0635
  388loPI   C6A 6204  13.384   2.023   6.807  0.0035  0.2346 -0.1070
  388loPI   C1B 6205  13.027   1.916   8.917  0.2931  0.1201  0.2119
  388loPI   C2B 6206  12.833   1.786   8.579 -0.0716  0.4049 -0.0578
  388loPI   C3B 6207  12.533   1.869   8.255  0.1836  0.2088  0.2070
  388loPI   C4B 6208  12.670   2.058   7.901  0.0101 -0.2594 -0.0143
  389loPI    C1 6209   5.894   5.754   9.928 -0.1935 -0.0841 -0.1892
  389loPI    C2 6210   6.226   5.597  10.085 -0.2025  0.0353 -0.0488
  389loPI    C3 6211   5.871   5.523  10.254 -0.2060  0.2102  0.0226
  389loPI   PO4 6212   5.823   5.755   9.653  0.0668  0.0664 -0.2750
  389loPI   GL1 6213   6.091   5.634   9.416 -0.0168  0.0613 -0.0604
  389loPI   GL2 6214   6.279   5.349   9.267 -0.0116 -0.0843  0.1593
  389loPI   C1A 6215   5.786   5.604   9.020 -0.0745  0.0810 -0.0649
  389loPI   C2A 6216   5.621   5.390   8.614  0.1532 -0.0218  0.1865
  389loPI   C3A 6217   5.487   5.101   8.204  0.4022  0.3587 -0.1701
  389loPI   C4A 6218   5.332   5.067   7.749  0.0971 -0.1073 -0.2232
  389loPI   C5A 6219   5.036   5.300   7.740 -0.0593 -0.0147 -0.1318
  389loPI   C6A 6220   4.879   5.595   7.540 -0.0019 -0.0218  0.0049
  389loPI   C1B 6221   6.214   5.382   8.803 -0.0263 -0.1556 -0.0209
  389loPI   C2B 6222   6.196   5.541   8.271 -0.1943 -0.0440 -0.0196
  389loPI   C3B 6223   6.121   5.696   7.828  0.2046  0.1211  0.2534
  389loPI   C4B 6224   5.842   5.894   7.672 -0.1050 -0.2709  0.0842
  390loPI    C1 6225  16.008  15.720  10.228 -0.0137 -0.0725 -0.0237
  390loPI    C2 6226  15.974  16.095  10.363 -0.2313 -0.0331 -0.1815
  390loPI    C3 6227  15.937  15.788  10.616 -0.2251  0.0479 -0.0814
  390loPI   PO4 6228  15.916  15.713   9.988  0.1032 -0.0350 -0.1395
  390loPI   GL1 6229  15.923  15.437   9.600 -0.1175  0.2712 -0.0051
  390loPI   GL2 6230  15.739  15.759   9.457 -0.3269  0.1906 -0.4406
  390loPI   C1A 6231  15.912  15.430   9.133  0.1035 -0.0180  0.1749
  390loPI   C2A 6232  15.805  15.411   8.687  0.2218 -0.1913 -0.1275
  390loPI   C3A 6233  15.700  15.476   8.229 -0.2163 -0.1028  0.0094
  390loPI   C4A 6234  15.859  15.536   7.857  0.2623 -0.3763 -0.1816
  390loPI   C5A 6235  15.991  15.723   7.481 -0.2338  0.1475 -0.0441
  390loPI   C6A 6236  15.995  16.160   7.413 -0.0573 -0.0500  0.5796
  390loPI   C1B 6237  15.751  15.961   9.092 -0.0078  0.0634  0.1139
  390loPI   C2B 6238  15.471  16.234   8.738 -0.0028 -0.0081  0.0256
  390loPI   C3B 6239  15.237  16.414   8.431 -0.0241  0.2969 -0.4170
  390loPI   C4B 6240  15.117  16.658   8.099 -0.0399  0.3069 -0.1411
  391loPI    C1 6241   1.454   0.552   9.606  0.1757  0.2736 -0.1264
  391loPI    C2 6242   1.442   0.942   9.695 -0.2367  0.2025  0.1579
  391loPI    C3 6243   1.149   0.699   9.820  0.1375 -0.2444  0.1922
  391loPI   PO4 6244   1.620   0.622   9.384 -0.1640 -0.0311  0.4067
  391loPI   GL1 6245   1.708   0.942   9.002  0.1731  0.0640 -0.1311
  391loPI   GL2 6246   1.798   0.737   8.798  0.3524  0.0109  0.1167
  391loPI   C1A 6247   1.532   1.231   8.629  0.0173  0.1144  0.0052
  391loPI   C2A 6248   1.493   1.196   8.116  0.2410  0.1823 -0.0779
  391loPI   C3A 6249   1.383   1.231   7.733 -0.1822 -0.2401 -0.1634
  391loPI   C4A 6250   1.345   1.388   7.311 -0.3880 -0.0227  0.1576
  391loPI   C5A 6251   1.122   1.757   7.154  0.0103  0.0214  0.0445
  391loPI   C6A 6252   0.790   2.006   7.165  0.3622 -0.1691  0.3630
  391loPI   C1B 6253   1.827   0.887   8.338  0.1589 -0.0448  0.0581
  391loPI   C2B 6254   1.643   0.832   7.846 -0.0055  0.3197 -0.0415
  391loPI   C3B 6255   1.732   0.954   7.433  0.1798  0.1192 -0.0680
  391loPI   C4B 6256   1.804   1.077   7.086  0.1956 -0.3249 -0.2114
  392loPI    C1 6257  14.241   0.501   9.782  0.0818  0.0280 -0.0520
  392loPI    C2 6258  14.112   0.823   9.583 -0.1207  0.2532  0.4276
  392loPI    C3 6259  14.346   0.868   9.904  0.4615 -0.1173  0.0732
  392loPI   PO4 6260  14.263   0.308   9.610 -0.2739 -0.0846  0.4424
  392loPI   GL1 6261  14.175   0.469   9.216 -0.0579  0.0681 -0.0180
  392loPI   GL2 6262  14.526   0.304   9.195  0.0608 -0.0184 -0.0505
  392loPI   C1A 6263  14.407   0.693   8.911 -0.2864 -0.2418  0.1711
  392loPI   C2A 6264  14.658   0.906   8.626  0.0947  0.0583 -0.3216
  392loPI   C3A 6265  14.845   0.965   8.126  0.1217 -0.1862  0.0654
  392loPI   C4A 6266  14.877   0.775   7.709  0.2088 -0.3236 -0.4063
  392loPI   C5A 6267  14.666   0.603   7.439  0.0817 -0.1807 -0.1046
  392loPI   C6A 6268  14.633   0.126   7.250 -0.6591 -0.0666  0.2386
  392loPI   C1B 6269  14.332   0.221   8.817  0.0109  0.1119  0.0508
  392loPI   C2B 6270  14.378   0.344   8.530 -0.0239  0.0889 -0.1398
  392loPI   C3B 6271  14.366   0.624   8.176 -0.1133  0.0481 -0.0622
  392loPI   C4B 6272  14.367   0.882   7.753 -0.0846  0.1077 -0.1995
  393loPI    C1 6273   3.342  13.898   9.803 -0.0970 -0.1791  0.0939
  393loPI    C2 6274   3.247  14.196  10.052  0.0233 -0.0666  0.0067
  393loPI    C3 6275   3.036  14.140   9.717  0.0881  0.0084 -0.0470
  393loPI   PO4 6276   3.423  13.603   9.908 -0.0530  0.0692  0.3801
  393loPI   GL1 6277   3.510  13.320   9.680 -0.2602  0.0365 -0.2797
  393loPI   GL2 6278   3.163  13.475   9.523  0.2357 -0.2866  0.4642
  393loPI   C1A 6279   3.505  13.003   9.311  0.1737 -0.1477 -0.1101
  393loPI   C2A 6280   3.372  12.870   8.834  0.1611 -0.2566  0.0333
  393loPI   C3A 6281   3.073  12.968   8.537 -0.2165 -0.0835  0.2120
  393loPI   C4A 6282   2.785  13.047   8.279  0.0471  0.0648  0.0202
  393loPI   C5A 6283   2.952  13.076   7.826 -0.0252  0.1974 -0.0408
  393loPI   C6A 6284   2.965  13.225   7.424 -0.1030  0.0353 -0.0155
  393loPI   C1B 6285   3.303  13.486   9.207  0.0581  0.3915  0.0627
  393loPI   C2B 6286   3.198  13.437   8.756  0.0192 -0.2070  0.0111
  393loPI   C3B 6287   3.183  13.472   8.400 -0.1475 -0.0129  0.1293
  393loPI   C4B 6288   2.998  13.495   8.081  0.0686 -0.2490 -0.0349
  394loPI    C1 6289  12.233  15.466  10.042 -0.0208 -0.1867 -0.3194
  394loPI    C2 6290  11.901  15.262  10.133  0.0813 -0.2185 -0.0079
  394loPI    C3 6291  12.179  15.328  10.413  0.1366  0.1884 -0.1517
  394loPI   PO4 6292  12.172  15.616   9.859  0.1056  0.3076 -0.3108
  394loPI   GL1 6293  12.331  15.822   9.426 -0.0500  0.0095  0.0581
  394loPI   GL2 6294  12.225  16.192   9.360 -0.1879  0.1434  0.1417
  394loPI   C1A 6295  12.156  15.651   9.048 -0.2031 -0.0943  0.0790
  394loPI   C2A 6296  12.202  15.574   8.671 -0.4068  0.1321 -0.0499
  394loPI   C3A 6297  12.196  15.435   8.264 -0.0285  0.3987 -0.0805
  394loPI   C4A 6298  12.004  15.227   7.882  0.0201  0.0059 -0.0087
  394loPI   C5A 6299  12.020  15.391   7.423  0.0416  0.1326 -0.1506
  394loPI   C6A 6300  12.222  15.618   7.112  0.1665 -0.0558  0.0411
  394loPI   C1B 6301  12.262  16.202   8.928  0.1394 -0.1595  0.0030
  394loPI   C2B 6302  12.143  16.075   8.567 -0.1681 -0.3075 -0.1353
  394loPI   C3B 6303  12.310  15.930   8.204 -0.1242  0.4172 -0.1672
  394loPI   C4B 6304  12.424  16.070   7.817 -0.3417  0.1664 -0.1901
  395loPI    C1 6305  18.064  10.618   9.837 -0.1348 -0.1171 -0.3086
  395loPI    C2 6306  18.146  10.429  10.180 -0.2241  0.2881 -0.0567
  395loPI    C3 6307  18.392  10.390   9.866 -0.1416 -0.0868  0.0485
  395loPI   PO4 6308  17.847  10.613   9.774  0.0663 -0.0088  0.2986
  395loPI   GL1 6309  17.674  10.839   9.542 -0.3334  0.0369 -0.0114
  395loPI   GL2 6310  17.574  11.114   9.632 -0.1650 -0.2370  0.0812
  395loPI   C1A 6311  17.691  10.855   9.226 -0.0539  0.0805  0.2581
  395loPI   C2A 6312  17.787  11.115   8.795 -0.3377 -0.2257 -0.1592
  395loPI   C3A 6313  17.766  11.285   8.395 -0.1720  0.1131 -0.1284
  395loPI   C4A 6314  18.079  11.436   8.167 -0.0566  0.6236  0.0230
  395loPI   C5A 6315  18.440  11.632   7.887  0.1083 -0.1770  0.0254
  395loPI   C6A 6316  18.573  11.897   7.554  0.1126 -0.0912  0.3731
  395loPI   C1B 6317  17.411  11.267   9.088 -0.0295 -0.0648  0.3359
  395loPI   C2B 6318  17.530  11.520   8.780 -0.3481  0.0385  0.1978
  395loPI   C3B 6319  17.816  11.783   8.481 -0.0205 -0.2783 -0.3524
  395loPI   C4B 6320  18.101  11.904   8.227  0.0557  0.0421 -0.0144
  396loPI    C1 6321   2.799  18.755  10.071  0.0797  0.0630 -0.2213
  396loPI    C2 6322   2.915  18.444  10.295 -0.4118  0.0397  0.0137
  396loPI    C3 6323   3.013  18.817  10.403 -0.1404 -0.0075 -0.0635
  396loPI   PO4 6324   2.900  18.734   9.777  0.1011 -0.1140 -0.0431
  396loPI   GL1 6325   2.997  18.473   9.352  0.5620 -0.0756  0.0575
  396loPI   GL2 6326   2.895  18.866   9.257 -0.1466 -0.0198  0.3480
  396loPI   C1A 6327   2.944  18.396   9.005  0.1491  0.1176 -0.1544
  396loPI   C2A 6328   2.965  18.381   8.552  0.0067 -0.0988 -0.2657
  396loPI   C3A 6329   3.096  18.062   8.264 -0.3447  0.2202  0.0120
  396loPI   C4A 6330   3.105  17.894   7.911  0.1782  0.1233  0.2143
  396loPI   C5A 6331   3.215  17.570   7.538 -0.1138 -0.2053  0.1636
  396loPI   C6A 6332   3.391  17.147   7.476 -0.1295 -0.4539 -0.0415
  396loPI   C1B 6333   2.579  18.936   8.992 -0.0659 -0.2641  0.2905
  396loPI   C2B 6334   2.608  18.813   8.598 -0.3694 -0.1603 -0.2088
  396loPI   C3B 6335   2.619  18.557   8.181 -0.1289 -0.1547 -0.2567
  396loPI   C4B 6336   2.811  18.326   7.892  0.4366 -0.2118  0.0391
  397loPI    C1 6337   2.872  16.097  10.139 -0.1113  0.3886  0.0421
  397loPI    C2 6338   3.168  16.009  10.393 -0.1191  0.2238 -0.0045
  397loPI    C3 6339   2.908  16.301  10.481 -0.1083  0.1834  0.1652
  397loPI   PO4 6340   2.940  16.064   9.989  0.1587  0.0560  0.0678
  397loPI   GL1 6341   2.880  16.288   9.653 -0.1443  0.0679 -0.1112
  397loPI   GL2 6342   3.140  16.391   9.607  0.0123 -0.3214 -0.0466
  397loPI   C1A 6343   2.993  15.993   9.343 -0.2726  0.0352  0.1971
  397loPI   C2A 6344   3.067  15.935   8.870  0.0507  0.0469 -0.0594
  397loPI   C3A 6345   2.962  15.984   8.459 -0.0612 -0.0633  0.0047
  397loPI   C4A 6346   3.108  15.798   8.058  0.1603  0.0496  0.0224
  397loPI   C5A 6347   3.219  15.549   7.655 -0.4284 -0.0269  0.0609
  397loPI   C6A 6348   3.312  15.312   7.277 -0.1138  0.0928 -0.1065
  397loPI   C1B 6349   3.348  16.376   9.246 -0.1217  0.2925  0.2628
  397loPI   C2B 6350   3.585  16.117   8.867 -0.0738 -0.4027  0.2253
  397loPI   C3B 6351   3.941  16.039   8.533  0.2434  0.3796 -0.1361
  397loPI   C4B 6352   4.221  16.148   8.178  0.1338 -0.0644 -0.0438
  398loPI    C1 6353  18.681   6.634  10.156 -0.2020 -0.0490 -0.2060
  398loPI    C2 6354  18.861   6.702  10.507 -0.0237  0.2652 -0.3534
  398loPI    C3 6355  18.849   6.331  10.357  0.2648  0.1955 -0.2126
  398loPI   PO4 6356  18.756   6.785   9.989 -0.0545  0.2105  0.1323
  398loPI   GL1 6357  18.996   6.737   9.661  0.0587 -0.0652 -0.1176
  398loPI   GL2 6358  19.010   6.996   9.477  0.1827 -0.2658  0.0713
  398loPI   C1A 6359  19.357   6.617   9.421 -0.2678 -0.0725 -0.1079
  398loPI   C2A 6360  19.582   6.590   9.003  0.1727  0.2073  0.0492
  398loPI   C3A 6361  19.582   6.653   8.580  0.0157 -0.2209  0.2351
  398loPI   C4A 6362  19.345   6.825   8.281 -0.1598  0.2647 -0.1226
  398loPI   C5A 6363  19.242   7.061   8.013 -0.1808  0.3092 -0.0921
  398loPI   C6A 6364  19.008   7.243   7.715  0.0458 -0.2804  0.0606
  398loPI   C1B 6365  18.580   7.015   9.210 -0.2118 -0.3686  0.1157
  398loPI   C2B 6366  18.569   7.081   8.814 -0.0855  0.1786 -0.0352
  398loPI   C3B 6367  18.351   6.957   8.409 -0.2164  0.2878  0.1431
  398loPI   C4B 6368  18.496   7.002   7.973  0.2361 -0.3704 -0.0503
  399loPI    C1 6369  16.530  16.912   9.888 -0.1494 -0.0471  0.0745
  399loPI    C2 6370  16.772  17.189  10.044  0.0411  0.0250 -0.3346
  399loPI    C3 6371  16.789  16.811  10.175  0.2592  0.0644 -0.2451
  399loPI   PO4 6372  16.512  16.922   9.638 -0.1147 -0.2240 -0.3383
  399loPI   GL1 6373  16.446  17.109   9.184 -0.0073 -0.0239  0.0585
  399loPI   GL2 6374  16.137  17.175   9.064  0.1617 -0.2639 -0.0530
  399loPI   C1A 6375  16.427  16.862   8.836  0.2909 -0.0654  0.1781
  399loPI   C2A 6376  16.215  16.645   8.538  0.2411  0.2904 -0.1259
  399loPI   C3A 6377  16.048  16.293   8.327 -0.2463  0.0152 -0.0065
  399loPI   C4A 6378  16.038  16.034   7.943  0.3326  0.1179 -0.3221
  399loPI   C5A 6379  15.667  15.964   7.746  0.0819  0.0588  0.3040
  399loPI   C6A 6380  15.275  16.071   7.811  0.0888 -0.0681 -0.1154
  399loPI   C1B 6381  16.041  17.456   8.709  0.3297 -0.2762  0.0765
  399loPI   C2B 6382  15.660  17.475   8.364  0.2154 -0.1990 -0.1147
  399loPI   C3B 6383  15.797  17.590   7.906  0.1154  0.0828 -0.2139
  399loPI   C4B 6384  15.890  17.843   7.610  0.0119 -0.0858 -0.0700
  400loPI    C1 6385  17.662   8.515   9.671  0.0568 -0.1239  0.0809
  400loPI    C2 6386  17.731   8.683  10.027 -0.1927 -0.2431  0.1879
  400loPI    C3 6387  17.420   8.435   9.979 -0.0375 -0.3944 -0.0594
  400loPI   PO4 6388  17.920   8.457   9.600 -0.0819  0.2748  0.4412
  400loPI   GL1 6389  18.256   8.453   9.259  0.0314  0.1921  0.0230
  400loPI   GL2 6390  18.496   8.434   9.470  0.1182 -0.0721  0.1360
  400loPI   C1A 6391  18.048   8.453   8.908 -0.2839  0.1982 -0.2099
  400loPI   C2A 6392  18.012   8.356   8.533 -0.2683  0.0708  0.0214
  400loPI   C3A 6393  17.921   8.449   8.144 -0.5787 -0.3533 -0.1289
  400loPI   C4A 6394  18.091   8.639   7.752  0.1280  0.2412  0.1417
  400loPI   C5A 6395  18.447   8.652   7.464  0.1719 -0.2629 -0.0557
  400loPI   C6A 6396  18.705   8.718   7.159  0.0611 -0.0947  0.1917
  400loPI   C1B 6397  18.833   8.427   9.032 -0.1038  0.1616  0.1479
  400loPI   C2B 6398  19.021   8.405   8.622  0.0322  0.4130  0.4585
  400loPI   C3B 6399  18.725   8.333   8.290  0.2892 -0.2388 -0.2493
  400loPI   C4B 6400  18.465   8.622   8.118 -0.2308 -0.1095  0.0573
  401loPI    C1 6401   3.627   9.452  10.516  0.3996  0.0936  0.0429
  401loPI    C2 6402   3.768   9.793  10.671  0.2377  0.0654  0.2566
  401loPI    C3 6403   3.850   9.444  10.848  0.1785  0.0185  0.1922
  401loPI   PO4 6404   3.633   9.513  10.263 -0.5014 -0.4099  0.0569
  401loPI   GL1 6405   3.841   9.615   9.934  0.0813 -0.3333  0.1115
  401loPI   GL2 6406   3.862   9.946   9.770  0.0790 -0.4327  0.3825
  401loPI   C1A 6407   3.763   9.517   9.482 -0.1961  0.1986  0.0308
  401loPI   C2A 6408   3.476   9.503   9.173  0.0047 -0.1650  0.1815
  401loPI   C3A 6409   3.052   9.654   9.080  0.1104  0.2366  0.0402
  401loPI   C4A 6410   2.705   9.796   8.915  0.0871 -0.1147  0.1138
  401loPI   C5A 6411   2.465   9.790   8.550  0.3021  0.2714 -0.3069
  401loPI   C6A 6412   2.296   9.670   8.155 -0.0787  0.0223 -0.2037
  401loPI   C1B 6413   3.849   9.988   9.259  0.2614  0.3922 -0.3341
  401loPI   C2B 6414   3.896   9.907   8.893 -0.0459  0.2095  0.3860
  401loPI   C3B 6415   3.946  10.084   8.489  0.3513 -0.0667 -0.0112
  401loPI   C4B 6416   3.762   9.933   8.000 -0.2449 -0.1464  0.2728
  402loPI    C1 6417  17.388  12.103  10.270  0.0489 -0.0592  0.0132
  402loPI    C2 6418  17.170  12.433  10.324 -0.0607 -0.1325  0.0214
  402loPI    C3 6419  17.084  12.101  10.530  0.0468 -0.1673  0.0105
  402loPI   PO4 6420  17.479  12.062  10.046  0.1200  0.0512 -0.1410
  402loPI   GL1 6421  17.352  12.035   9.620  0.0912  0.1275  0.3933
  402loPI   GL2 6422  17.026  11.883   9.554 -0.0816 -0.2266  0.1593
  402loPI   C1A 6423  17.328  12.227   9.274  0.3368 -0.0305  0.2277
  402loPI   C2A 6424  17.143  12.538   9.041  0.0913  0.3862 -0.2013
  402loPI   C3A 6425  16.858  12.553   8.639  0.1212 -0.1025  0.1368
  402loPI   C4A 6426  16.757  12.784   8.264  0.0262  0.0964 -0.2856
  402loPI   C5A 6427  16.857  12.822   7.917 -0.1489  0.0983  0.0500
  402loPI   C6A 6428  16.926  12.982   7.496  0.1205  0.0223  0.1008
  402loPI   C1B 6429  16.843  12.000   9.199  0.0642 -0.0904 -0.0154
  402loPI   C2B 6430  16.754  12.071   8.792  0.1415  0.1368 -0.2976
  402loPI   C3B 6431  16.911  12.119   8.438 -0.0359  0.0143  0.1528
  402loPI   C4B 6432  16.816  12.241   8.082 -0.0040  0.0367  0.1769
  403loPI    C1 6433  17.156  15.554  10.160 -0.0041  0.1192  0.1561
  403loPI    C2 6434  16.933  15.670  10.471 -0.2892 -0.2935  0.1123
  403loPI    C3 6435  17.314  15.561  10.527 -0.2059  0.0535  0.2450
  403loPI   PO4 6436  16.979  15.604   9.990  0.2416 -0.2178  0.3538
  403loPI   GL1 6437  16.913  15.505   9.551  0.1583 -0.0588 -0.2492
  403loPI   GL2 6438  17.221  15.511   9.391 -0.0633 -0.0114  0.0333
  403loPI   C1A 6439  16.747  15.373   9.190  0.0861 -0.1364  0.0193
  403loPI   C2A 6440  16.408  15.324   9.102 -0.0474 -0.0908  0.0719
  403loPI   C3A 6441  16.292  15.614   8.812 -0.0349 -0.0291 -0.1713
  403loPI   C4A 6442  15.963  15.941   8.686 -0.0912  0.0426  0.1106
  403loPI   C5A 6443  15.674  15.939   8.368 -0.2145 -0.0018  0.1425
  403loPI   C6A 6444  15.292  15.901   8.266 -0.2445 -0.3573  0.0713
  403loPI   C1B 6445  17.382  15.646   8.894 -0.2491  0.1441 -0.0508
  403loPI   C2B 6446  17.402  15.859   8.413 -0.0044 -0.1542 -0.0544
  403loPI   C3B 6447  17.275  15.585   8.067  0.3085 -0.0457  0.1411
  403loPI   C4B 6448  17.475  15.413   7.677 -0.2034 -0.1748 -0.0561
  404loPI    C1 6449   4.242  12.398  10.006 -0.1580  0.3676 -0.0780
  404loPI    C2 6450   4.403  12.508  10.355  0.0400  0.2079 -0.1167
  404loPI    C3 6451   4.083  12.701  10.212 -0.2038  0.1085  0.2772
  404loPI   PO4 6452   4.416  12.383   9.824  0.4367 -0.0292  0.0327
  404loPI   GL1 6453   4.463  12.261   9.370 -0.3703 -0.3724 -0.1932
  404loPI   GL2 6454   4.138  12.195   9.185 -0.1919  0.0607 -0.3807
  404loPI   C1A 6455   4.605  12.318   8.955 -0.0886  0.1263 -0.2399
  404loPI   C2A 6456   4.694  12.361   8.559  0.4298  0.4603  0.0390
  404loPI   C3A 6457   4.552  12.209   8.198 -0.0690  0.4643 -0.0797
  404loPI   C4A 6458   4.530  11.950   7.899 -0.3007  0.0336 -0.1032
  404loPI   C5A 6459   4.854  11.651   7.861 -0.1398 -0.1584 -0.0799
  404loPI   C6A 6460   5.095  11.323   7.968  0.0319  0.2410 -0.4130
  404loPI   C1B 6461   4.161  12.193   8.667 -0.1586  0.0697 -0.0976
  404loPI   C2B 6462   4.090  12.129   8.267  0.0998  0.2403 -0.1089
  404loPI   C3B 6463   3.954  12.215   7.876 -0.2978  0.3076 -0.2097
  404loPI   C4B 6464   3.794  12.243   7.450  0.1462  0.3843  0.1318
  405loPI    C1 6465   3.390   1.288   9.898 -0.1323  0.1746 -0.0546
  405loPI    C2 6466   3.618   1.605   9.810 -0.0723  0.1285 -0.0662
  405loPI    C3 6467   3.467   1.563  10.178 -0.1191  0.1947 -0.0777
  405loPI   PO4 6468   3.081   1.336   9.681  0.0247  0.1017  0.1043
  405loPI   GL1 6469   2.986   1.429   9.240 -0.0700  0.0159  0.2986
  405loPI   GL2 6470   3.092   1.118   9.186 -0.0874  0.1774  0.2318
  405loPI   C1A 6471   2.868   1.523   8.936 -0.0774 -0.0411  0.3537
  405loPI   C2A 6472   2.983   1.498   8.519  0.2430  0.1789  0.1709
  405loPI   C3A 6473   2.946   1.686   8.089 -0.4060  0.0326 -0.2980
  405loPI   C4A 6474   2.877   1.530   7.713  0.1861  0.0135  0.1321
  405loPI   C5A 6475   3.003   1.146   7.357  0.0249 -0.2508  0.1897
  405loPI   C6A 6476   2.793   0.940   7.143 -0.2422  0.0620  0.0900
  405loPI   C1B 6477   3.038   1.073   8.767 -0.2127 -0.1354  0.0756
  405loPI   C2B 6478   3.046   1.020   8.319 -0.0638 -0.1200  0.2732
  405loPI   C3B 6479   2.964   1.053   7.896 -0.1370  0.2362  0.2941
  405loPI   C4B 6480   2.578   1.158   7.602 -0.2102  0.4181 -0.1331
  406loPI    C1 6481  17.071  17.962   9.604  0.0829  0.1841 -0.5276
  406loPI    C2 6482  16.740  17.805   9.764  0.4642 -0.2187 -0.1031
  406loPI    C3 6483  16.770  18.201   9.715 -0.0452 -0.1703 -0.0803
  406loPI   PO4 6484  17.174  17.794   9.441  0.1628  0.1989 -0.1658
  406loPI   GL1 6485  17.605  17.864   9.076 -0.0698  0.0634  0.0691
  406loPI   GL2 6486  17.834  18.048   9.009 -0.2723 -0.0709  0.0338
  406loPI   C1A 6487  17.828  17.639   8.688  0.0937 -0.0123  0.2592
  406loPI   C2A 6488  17.757  17.408   8.370  0.3456  0.0703  0.1604
  406loPI   C3A 6489  17.450  17.199   8.055 -0.2294  0.0182  0.3213
  406loPI   C4A 6490  17.214  17.093   7.637  0.2011 -0.1476 -0.0525
  406loPI   C5A 6491  17.059  17.175   7.229  0.3030  0.0700  0.1224
  406loPI   C6A 6492  16.936  17.531   6.891  0.3316 -0.4138 -0.0603
  406loPI   C1B 6493  17.845  18.211   8.626 -0.1205  0.1345  0.0665
  406loPI   C2B 6494  17.838  17.963   8.294 -0.0390  0.0476 -0.0452
  406loPI   C3B 6495  17.702  17.839   7.778  0.1894 -0.1460  0.2449
  406loPI   C4B 6496  17.676  18.071   7.393  0.0470  0.0974  0.2003
  407loPI    C1 6497   4.317  13.244   9.959  0.0664 -0.2403 -0.1188
  407loPI    C2 6498   4.084  13.250  10.284  0.0052  0.1621 -0.1654
  407loPI    C3 6499   4.429  13.048  10.289 -0.1630 -0.1277  0.0287
  407loPI   PO4 6500   4.275  13.106   9.726  0.3552  0.2197  0.2259
  407loPI   GL1 6501   4.456  12.929   9.390  0.2408  0.2703  0.0298
  407loPI   GL2 6502   4.325  12.709   9.183  0.0935 -0.0679  0.0843
  407loPI   C1A 6503   4.447  13.151   8.956  0.2405  0.0004 -0.4705
  407loPI   C2A 6504   4.277  13.195   8.607 -0.0524  0.1746  0.1765
  407loPI   C3A 6505   3.976  13.215   8.244  0.4782  0.0944  0.3979
  407loPI   C4A 6506   3.747  13.200   7.908 -0.0397 -0.0776 -0.0231
  407loPI   C5A 6507   3.639  13.203   7.663  0.1940  0.4098  0.4320
  407loPI   C6A 6508   3.451  13.311   7.262  0.3493 -0.2160 -0.0527
  407loPI   C1B 6509   4.304  12.727   8.731 -0.0347 -0.0584  0.1344
  407loPI   C2B 6510   4.503  12.772   8.336  0.2858 -0.0469  0.2446
  407loPI   C3B 6511   4.835  12.635   8.112 -0.2041  0.0395  0.0068
  407loPI   C4B 6512   4.763  12.517   7.772  0.1606 -0.2233 -0.1955
  408loPI    C1 6513  10.342  15.596   9.986 -0.0277 -0.3563  0.1388
  408loPI    C2 6514  10.020  15.567   9.749 -0.0554 -0.0742  0.1384
  408loPI    C3 6515   9.986  15.723  10.116  0.0349 -0.2782  0.2353
  408loPI   PO4 6516  10.501  15.529   9.759 -0.2177 -0.0286 -0.0978
  408loPI   GL1 6517  10.360  15.553   9.378  0.0307 -0.0194  0.2890
  408loPI   GL2 6518  10.577  15.642   9.190 -0.1081  0.2719  0.0177
  408loPI   C1A 6519  10.275  15.489   8.824  0.2516 -0.0816 -0.2173
  408loPI   C2A 6520   9.948  15.491   8.457  0.0685 -0.0021 -0.3920
  408loPI   C3A 6521   9.651  15.337   8.134  0.2835 -0.1221 -0.1833
  408loPI   C4A 6522   9.429  14.960   7.965  0.1434 -0.2065 -0.2832
  408loPI   C5A 6523   9.617  14.779   7.475  0.0478  0.2575  0.0788
  408loPI   C6A 6524   9.397  14.796   7.083 -0.0888 -0.3422  0.2286
  408loPI   C1B 6525  10.807  15.764   8.765  0.0204 -0.1827  0.1476
  408loPI   C2B 6526  10.808  15.707   8.321 -0.0025 -0.1987  0.3026
  408loPI   C3B 6527  10.806  15.583   7.922  0.3836  0.2037 -0.0363
  408loPI   C4B 6528  10.547  15.549   7.543 -0.3957  0.3876  0.0705
  409loPI    C1 6529   7.938  11.150   9.872  0.0061 -0.1262  0.0203
  409loPI    C2 6530   7.905  11.021  10.249 -0.0956 -0.3054 -0.0488
  409loPI    C3 6531   8.211  10.899  10.022  0.0042 -0.1425 -0.0034
  409loPI   PO4 6532   7.824  11.431   9.923 -0.2164 -0.0103 -0.3197
  409loPI   GL1 6533   7.760  11.636   9.609  0.0320  0.0526 -0.2187
  409loPI   GL2 6534   8.063  11.426   9.473 -0.0751  0.0347  0.1308
  409loPI   C1A 6535   7.739  11.682   9.149 -0.1719 -0.1039  0.2291
  409loPI   C2A 6536   7.960  11.634   8.749  0.2231 -0.2006 -0.1501
  409loPI   C3A 6537   8.351  11.307   8.598  0.0606  0.0294 -0.2468
  409loPI   C4A 6538   8.839  11.345   8.520 -0.0699  0.0178  0.0761
  409loPI   C5A 6539   9.082  11.615   8.348 -0.0991 -0.2839 -0.1046
  409loPI   C6A 6540   9.344  11.693   7.968  0.0784  0.1627 -0.0075
  409loPI   C1B 6541   8.337  11.433   9.126 -0.1163 -0.2533 -0.2724
  409loPI   C2B 6542   8.774  11.608   8.988  0.1672  0.2394  0.1654
  409loPI   C3B 6543   8.957  11.942   8.884  0.0918  0.2590 -0.0131
  409loPI   C4B 6544   9.037  12.108   8.547  0.1432  0.2202 -0.0611
  410loPI    C1 6545   4.932   8.615   9.936  0.0196  0.0267  0.0442
  410loPI    C2 6546   4.739   8.522  10.273  0.0218 -0.0609  0.0216
  410loPI    C3 6547   5.115   8.399  10.218 -0.0477 -0.2223 -0.0996
  410loPI   PO4 6548   4.813   8.587   9.726 -0.1113 -0.2691  0.1865
  410loPI   GL1 6549   4.874   8.728   9.334  0.0173  0.1217  0.2477
  410loPI   GL2 6550   4.835   9.002   9.371 -0.2766  0.2255 -0.4769
  410loPI   C1A 6551   4.666   8.788   8.904 -0.1242 -0.0886 -0.1371
  410loPI   C2A 6552   4.721   8.720   8.497 -0.1512  0.0212  0.1189
  410loPI   C3A 6553   4.464   8.858   8.253 -0.2767 -0.2760 -0.0732
  410loPI   C4A 6554   4.470   8.837   7.812 -0.1230 -0.0228 -0.1883
  410loPI   C5A 6555   4.025   8.794   7.544 -0.4122 -0.1447  0.1921
  410loPI   C6A 6556   4.004   8.569   7.154  0.2232  0.0082  0.2499
  410loPI   C1B 6557   4.949   9.198   9.055  0.0645 -0.0036  0.1480
  410loPI   C2B 6558   4.902   9.167   8.640 -0.2087 -0.1294  0.0696
  410loPI   C3B 6559   4.895   9.105   8.109 -0.4003  0.0551 -0.2298
  410loPI   C4B 6560   5.047   8.848   7.894 -0.1218  0.0031  0.3944
  411loPI    C1 6561  16.010  14.168   9.891 -0.1491 -0.1687  0.1165
  411loPI    C2 6562  15.902  14.182  10.276 -0.0644  0.1417  0.1311
  411loPI    C3 6563  15.820  14.490  10.034  0.0983  0.0513 -0.0415
  411loPI   PO4 6564  16.313  14.229   9.901 -0.1289  0.0371  0.2407
  411loPI   GL1 6565  16.700  14.255   9.457  0.0654  0.2692 -0.0158
  411loPI   GL2 6566  16.511  14.520   9.449 -0.2980  0.3475  0.4028
  411loPI   C1A 6567  16.620  14.042   9.194  0.3510 -0.0720  0.3130
  411loPI   C2A 6568  16.719  13.997   8.753 -0.0704 -0.2142 -0.1051
  411loPI   C3A 6569  16.955  13.890   8.398 -0.2105  0.1029  0.4565
  411loPI   C4A 6570  17.141  13.882   8.027 -0.0272 -0.0308 -0.1954
  411loPI   C5A 6571  17.008  14.040   7.668 -0.0062  0.3296  0.0815
  411loPI   C6A 6572  17.276  14.075   7.483 -0.1066 -0.0297  0.1196
  411loPI   C1B 6573  16.363  14.453   9.052  0.0901 -0.1213  0.0933
  411loPI   C2B 6574  16.349  14.320   8.639  0.0961 -0.0281  0.0462
  411loPI   C3B 6575  16.471  14.260   8.325 -0.0511  0.0709  0.1790
  411loPI   C4B 6576  16.645  14.240   7.851 -0.0282  0.0103 -0.1688
  412loPI    C1 6577   9.383  17.942  10.049  0.0047 -0.1404 -0.0563
  412loPI    C2 6578   9.040  17.739  10.013 -0.1306  0.0653  0.0501
  412loPI    C3 6579   9.142  17.900  10.365  0.0810 -0.0016  0.0213
  412loPI   PO4 6580   9.407  18.015   9.874 -0.1915 -0.1226 -0.3364
  412loPI   GL1 6581   9.528  17.977   9.444 -0.0972 -0.0003 -0.1375
  412loPI   GL2 6582   9.775  17.845   9.460  0.0927 -0.0964  0.0080
  412loPI   C1A 6583   9.463  18.310   9.035 -0.1172  0.2690  0.3162
  412loPI   C2A 6584   9.361  18.603   8.725  0.3040  0.1975 -0.0990
  412loPI   C3A 6585   9.195  18.542   8.293 -0.3440  0.0366 -0.4082
  412loPI   C4A 6586   8.957  18.547   8.047  0.1277 -0.0352  0.3534
  412loPI   C5A 6587   8.626  18.677   8.232 -0.0353  0.0571 -0.1917
  412loPI   C6A 6588   8.351  19.009   8.459  0.0157  0.1075 -0.2821
  412loPI   C1B 6589   9.893  18.025   9.052 -0.0124  0.3106  0.2753
  412loPI   C2B 6590   9.970  18.204   8.657  0.0259 -0.3622  0.1074
  412loPI   C3B 6591  10.185  18.389   8.303  0.0615  0.0084  0.1729
  412loPI   C4B 6592  10.342  18.302   7.940  0.3267 -0.3207  0.2513
  413loPI    C1 6593  10.649  10.396  10.202  0.4105  0.0393 -0.0807
  413loPI    C2 6594  10.441  10.698  10.041  0.0483 -0.1167  0.0835
  413loPI    C3 6595  10.703  10.769  10.335  0.2096  0.0782 -0.1048
  413loPI   PO4 6596  10.735  10.289  10.015  0.0651  0.2218  0.2252
  413loPI   GL1 6597  10.765  10.525   9.655  0.1809  0.3139  0.0128
  413loPI   GL2 6598  10.862  10.769   9.706  0.0072  0.0823 -0.0969
  413loPI   C1A 6599  10.842  10.273   9.382 -0.0673 -0.1607 -0.0818
  413loPI   C2A 6600  11.122  10.221   9.021  0.3386 -0.1784 -0.0350
  413loPI   C3A 6601  11.344  10.352   8.811  0.2388  0.0458 -0.0471
  413loPI   C4A 6602  11.293  10.369   8.361  0.2224 -0.1984  0.2367
  413loPI   C5A 6603  11.350  10.458   7.962 -0.1819  0.2973 -0.1382
  413loPI   C6A 6604  11.161  10.493   7.503 -0.1607 -0.0324  0.1762
  413loPI   C1B 6605  10.715  10.953   9.253 -0.2103  0.2554  0.0199
  413loPI   C2B 6606  10.636  11.024   8.915 -0.3316  0.0005  0.0349
  413loPI   C3B 6607  10.450  11.189   8.595 -0.3408  0.2571  0.0422
  413loPI   C4B 6608  10.190  11.161   8.243 -0.0562 -0.0625  0.1025
  414loPI    C1 6609   6.390  17.249  10.109 -0.1066 -0.1831  0.0278
  414loPI    C2 6610   6.149  16.930  10.102 -0.2108 -0.1029 -0.0584
  414loPI    C3 6611   6.544  16.883  10.057 -0.1920 -0.2502  0.2342
  414loPI   PO4 6612   6.243  17.480   9.905 -0.0859  0.2572  0.0775
  414loPI   GL1 6613   6.419  17.659   9.548 -0.3533  0.1770  0.0412
  414loPI   GL2 6614   6.199  17.756   9.380  0.0624 -0.0737  0.1501
  414loPI   C1A 6615   6.324  17.307   9.230 -0.1726  0.0458  0.2554
  414loPI   C2A 6616   6.205  17.168   8.787 -0.0404  0.0041  0.0648
  414loPI   C3A 6617   5.905  17.050   8.409 -0.0561  0.1040  0.1268
  414loPI   C4A 6618   5.823  17.188   8.015 -0.2362  0.1058  0.0586
  414loPI   C5A 6619   5.673  17.485   7.736 -0.0963 -0.1966 -0.4558
  414loPI   C6A 6620   5.474  17.449   7.352  0.0094 -0.2643 -0.3251
  414loPI   C1B 6621   6.084  17.677   8.945  0.0179  0.1159 -0.0117
  414loPI   C2B 6622   6.035  17.623   8.531  0.1960  0.0333 -0.0478
  414loPI   C3B 6623   5.941  17.643   8.163 -0.0718 -0.2094  0.0135
  414loPI   C4B 6624   6.292  17.594   7.790  0.3673 -0.0494 -0.4814
  415loPI    C1 6625   8.143   6.434  10.274  0.0288 -0.1617  0.0407
  415loPI    C2 6626   7.928   6.358   9.945 -0.1318  0.1697  0.0650
  415loPI    C3 6627   7.774   6.284  10.307 -0.0199 -0.0361  0.0722
  415loPI   PO4 6628   8.279   6.674  10.160 -0.0796  0.1383 -0.0205
  415loPI   GL1 6629   8.237   6.735   9.727  0.2479 -0.3092  0.2461
  415loPI   GL2 6630   8.604   6.668   9.706 -0.1205 -0.0911  0.0023
  415loPI   C1A 6631   8.275   6.754   9.329  0.0488 -0.0975  0.1279
  415loPI   C2A 6632   8.449   6.738   8.858  0.1385  0.1116  0.2511
  415loPI   C3A 6633   8.811   6.776   8.574  0.2322  0.0169  0.1820
  415loPI   C4A 6634   9.060   6.904   8.227 -0.1343  0.2272 -0.0786
  415loPI   C5A 6635   9.345   6.791   7.892  0.0157  0.2304  0.1608
  415loPI   C6A 6636   9.439   6.803   7.397 -0.3074  0.0769  0.4971
  415loPI   C1B 6637   8.741   6.728   9.355  0.0280  0.2311  0.3058
  415loPI   C2B 6638   9.035   6.924   9.045  0.0914  0.2514 -0.0529
  415loPI   C3B 6639   9.277   6.811   8.694  0.0108 -0.1027 -0.1395
  415loPI   C4B 6640   9.429   6.460   8.418 -0.0562 -0.1627 -0.0973
  416loPI    C1 6641   8.789  11.253   9.824 -0.1057 -0.1345 -0.1489
  416loPI    C2 6642   8.540  11.050   9.586 -0.2738 -0.1192  0.0119
  416loPI    C3 6643   8.409  11.370   9.787 -0.0613  0.0326 -0.0872
  416loPI   PO4 6644   9.023  11.264   9.656 -0.1559 -0.1076  0.0179
  416loPI   GL1 6645   9.192  11.068   9.277  0.0299 -0.0045  0.0532
  416loPI   GL2 6646   9.467  11.050   9.204 -0.1394 -0.2591  0.0793
  416loPI   C1A 6647   9.113  10.902   8.804 -0.0597 -0.3334  0.0605
  416loPI   C2A 6648   9.350  10.792   8.358  0.0745 -0.0501  0.1714
  416loPI   C3A 6649   9.408  10.787   7.943  0.3550 -0.3525  0.1230
  416loPI   C4A 6650   9.370  11.156   7.619  0.1353  0.1601  0.0290
  416loPI   C5A 6651   9.263  11.640   7.452  0.1065  0.0073  0.1216
  416loPI   C6A 6652   8.959  11.992   7.488  0.1782 -0.0848 -0.1465
  416loPI   C1B 6653   9.594  10.932   8.828  0.1077 -0.3290  0.1053
  416loPI   C2B 6654   9.823  10.966   8.479 -0.0698 -0.3378  0.0805
  416loPI   C3B 6655   9.864  10.723   8.114 -0.1998  0.2324  0.0629
  416loPI   C4B 6656  10.010  10.596   7.618  0.0389  0.0415 -0.2102
  417loPI    C1 6657  10.957   1.908   9.868 -0.0210  0.1362 -0.1817
  417loPI    C2 6658  10.733   2.124  10.119 -0.2179 -0.1097 -0.1410
  417loPI    C3 6659  11.094   1.995  10.233 -0.1795  0.0346 -0.0968
  417loPI   PO4 6660  10.962   2.084   9.567  0.1157 -0.0383 -0.3335
  417loPI   GL1 6661  10.865   1.910   9.242 -0.0701  0.0842  0.1774
  417loPI   GL2 6662  10.636   1.708   9.291  0.0548 -0.1607  0.0011
  417loPI   C1A 6663  11.200   1.917   8.949  0.2375 -0.1273  0.1333
  417loPI   C2A 6664  11.219   1.816   8.482  0.1403  0.1291 -0.3043
  417loPI   C3A 6665  11.224   1.876   8.093  0.0409 -0.0559 -0.0807
  417loPI   C4A 6666  11.280   1.950   7.793 -0.1719 -0.0853 -0.0300
  417loPI   C5A 6667  11.699   2.117   7.679  0.1689  0.0864  0.0186
  417loPI   C6A 6668  12.045   2.399   7.510  0.0073 -0.0736  0.4588
  417loPI   C1B 6669  10.287   1.891   9.057  0.0519  0.0207 -0.0966
  417loPI   C2B 6670  10.148   1.936   8.673  0.2954 -0.1257 -0.0906
  417loPI   C3B 6671   9.866   2.210   8.386 -0.2710 -0.0149  0.1275
  417loPI   C4B 6672   9.784   2.014   7.987  0.1611 -0.0473  0.2755
  418loPI    C1 6673   6.029  14.272  10.237 -0.3181 -0.1110  0.0170
  418loPI    C2 6674   6.347  14.454  10.397 -0.3047  0.0474 -0.1854
  418loPI    C3 6675   5.982  14.517  10.550 -0.2022 -0.4114  0.2744
  418loPI   PO4 6676   6.089  14.283   9.973 -0.0978 -0.0503  0.0230
  418loPI   GL1 6677   6.183  14.363   9.582  0.3062  0.2653 -0.1530
  418loPI   GL2 6678   6.135  14.088   9.367 -0.0196 -0.2517 -0.3250
  418loPI   C1A 6679   6.335  14.501   9.255 -0.1228 -0.1984 -0.5677
  418loPI   C2A 6680   6.436  14.484   8.647  0.2096  0.1896  0.0001
  418loPI   C3A 6681   6.375  14.465   8.229  0.3120  0.2109  0.2361
  418loPI   C4A 6682   6.337  14.273   7.829 -0.0131 -0.0892 -0.3474
  418loPI   C5A 6683   6.110  14.321   7.312  0.2485 -0.0279  0.1223
  418loPI   C6A 6684   5.783  14.195   6.989  0.0288 -0.0496  0.1260
  418loPI   C1B 6685   6.181  14.153   8.901  0.1033 -0.1037  0.0410
  418loPI   C2B 6686   6.016  14.238   8.481  0.2091 -0.0722  0.1684
  418loPI   C3B 6687   5.893  14.058   8.133  0.1761  0.2357  0.3050
  418loPI   C4B 6688   5.855  14.000   7.654  0.0640  0.0735 -0.0668
  419loPI    C1 6689   6.544   6.007   9.941 -0.1433 -0.0249  0.2538
  419loPI    C2 6690   6.472   6.352  10.130 -0.1179 -0.0196  0.2539
  419loPI    C3 6691   6.800   6.312   9.905 -0.3078  0.0815 -0.0470
  419loPI   PO4 6692   6.293   6.040   9.801 -0.0408  0.0328  0.0745
  419loPI   GL1 6693   6.110   6.132   9.329 -0.0562 -0.1107  0.1403
  419loPI   GL2 6694   5.786   6.088   9.254 -0.1484 -0.3937  0.1988
  419loPI   C1A 6695   5.995   6.181   8.779  0.0696  0.0469  0.0465
  419loPI   C2A 6696   5.774   5.840   8.588 -0.1819  0.0643  0.0500
  419loPI   C3A 6697   5.653   5.617   8.107  0.0929 -0.1329  0.1322
  419loPI   C4A 6698   5.814   5.300   7.806 -0.0722  0.0890  0.0150
  419loPI   C5A 6699   6.048   5.017   7.459  0.0251  0.1150  0.2134
  419loPI   C6A 6700   6.365   5.166   7.261  0.0386  0.0476 -0.2219
  419loPI   C1B 6701   5.584   6.322   8.997 -0.0953  0.0408 -0.0071
  419loPI   C2B 6702   5.367   6.519   8.664  0.0486 -0.0169 -0.1143
  419loPI   C3B 6703   5.480   6.710   8.326  0.2053  0.0295 -0.1501
  419loPI   C4B 6704   5.596   7.040   8.425 -0.1466  0.0797 -0.0815
  420loPI    C1 6705   9.641   1.781   9.715  0.0748  0.0754  0.0892
  420loPI    C2 6706   9.449   1.563   9.989  0.0479  0.1769  0.1516
  420loPI    C3 6707   9.602   1.919  10.088  0.3301  0.0666  0.1213
  420loPI   PO4 6708   9.548   1.763   9.466  0.1127  0.3482 -0.0210
  420loPI   GL1 6709   9.441   1.474   9.066 -0.3226 -0.3324 -0.0125
  420loPI   GL2 6710   9.818   1.723   9.039  0.0507 -0.2879  0.2985
  420loPI   C1A 6711   9.412   1.226   8.620  0.1835  0.0063 -0.0926
  420loPI   C2A 6712   9.252   1.207   8.209  0.1065  0.1346  0.0902
  420loPI   C3A 6713   9.009   1.061   7.824  0.0350 -0.1238  0.2972
  420loPI   C4A 6714   8.800   0.765   7.579 -0.1988 -0.1273  0.0895
  420loPI   C5A 6715   8.504   0.513   7.486  0.0034 -0.0942 -0.1136
  420loPI   C6A 6716   8.226   0.236   7.631 -0.2570 -0.1814 -0.3754
  420loPI   C1B 6717   9.568   1.854   8.735  0.0915  0.1601 -0.6042
  420loPI   C2B 6718   9.529   1.752   8.343  0.5529  0.0043  0.4252
  420loPI   C3B 6719   9.502   1.587   8.039 -0.1972 -0.0480 -0.0966
  420loPI   C4B 6720   9.478   1.747   7.598 -0.0271 -0.3779  0.1913
  421loPI    C1 6721   5.183  12.808   9.940  0.0819 -0.1580 -0.0214
  421loPI    C2 6722   5.440  12.578  10.143  0.0589 -0.0985  0.0760
  421loPI    C3 6723   5.064  12.621  10.273  0.0517 -0.0378  0.0358
  421loPI   PO4 6724   5.325  13.095   9.790  0.2074  0.1814 -0.0981
  421loPI   GL1 6725   5.316  13.274   9.379 -0.0364 -0.1857 -0.0466
  421loPI   GL2 6726   5.522  13.059   9.334 -0.1299  0.1627 -0.2275
  421loPI   C1A 6727   5.426  13.533   9.044  0.3345  0.0125 -0.1020
  421loPI   C2A 6728   5.343  13.851   8.808 -0.2191  0.0898  0.2666
  421loPI   C3A 6729   4.922  14.053   8.731 -0.0650 -0.0352 -0.1168
  421loPI   C4A 6730   4.664  14.176   8.487 -0.1505  0.0566  0.2713
  421loPI   C5A 6731   4.365  14.111   8.334  0.0399 -0.0167  0.0609
  421loPI   C6A 6732   4.232  14.246   7.966 -0.3838  0.0132  0.0379
  421loPI   C1B 6733   5.397  12.999   8.959 -0.0480 -0.1183 -0.1277
  421loPI   C2B 6734   5.332  13.246   8.618  0.2049  0.2061 -0.1929
  421loPI   C3B 6735   5.172  13.593   8.439  0.3764 -0.1473  0.0897
  421loPI   C4B 6736   4.974  13.837   8.224 -0.2256 -0.1638 -0.0365
  422loPI    C1 6737  17.401  17.073   9.617 -0.0851  0.0348 -0.1098
  422loPI    C2 6738  17.800  17.101   9.606 -0.1009  0.2166 -0.2914
  422loPI    C3 6739  17.603  17.180   9.945  0.0370 -0.1856 -0.1111
  422loPI   PO4 6740  17.292  17.278   9.471 -0.0906  0.2533 -0.3060
  422loPI   GL1 6741  17.281  17.431   9.033 -0.2668 -0.2501 -0.1703
  422loPI   GL2 6742  17.013  17.474   9.076 -0.1851  0.1213 -0.2301
  422loPI   C1A 6743  17.274  17.348   8.621  0.0331 -0.0009 -0.2375
  422loPI   C2A 6744  16.981  17.346   8.291 -0.3076  0.0833  0.1622
  422loPI   C3A 6745  16.805  17.321   7.926  0.0669 -0.0058  0.1658
  422loPI   C4A 6746  16.702  17.060   7.543 -0.1386  0.0531 -0.0445
  422loPI   C5A 6747  16.400  17.016   7.255  0.0367  0.0099  0.3409
  422loPI   C6A 6748  16.125  17.253   7.085  0.1364  0.1968 -0.0602
  422loPI   C1B 6749  16.839  17.144   8.742  0.3242  0.1783  0.0705
  422loPI   C2B 6750  16.406  17.167   8.410 -0.0546 -0.0870 -0.1373
  422loPI   C3B 6751  16.203  17.327   8.124  0.0068 -0.0102  0.0688
  422loPI   C4B 6752  16.332  17.555   7.763  0.2215  0.3041  0.2469
  423loPI    C1 6753   1.165  18.570  10.073 -0.1437  0.1590 -0.1494
  423loPI    C2 6754   1.003  18.906  10.220  0.2452  0.2292  0.1330
  423loPI    C3 6755   0.960  18.560  10.417  0.2753  0.2112  0.1080
  423loPI   PO4 6756   0.963  18.507   9.811  0.2471 -0.0052  0.0692
  423loPI   GL1 6757   0.854  18.450   9.312 -0.2432 -0.3698  0.1916
  423loPI   GL2 6758   0.717  18.747   9.156 -0.0551  0.0954 -0.2081
  423loPI   C1A 6759   0.980  18.129   8.962 -0.0511  0.1110  0.1252
  423loPI   C2A 6760   1.014  18.239   8.563 -0.1279 -0.0297  0.1848
  423loPI   C3A 6761   0.681  18.199   8.269 -0.0361 -0.2029 -0.1375
  423loPI   C4A 6762   0.483  17.852   8.097  0.3440  0.0288  0.0073
  423loPI   C5A 6763   0.373  17.586   7.684  0.1649  0.2338  0.1216
  423loPI   C6A 6764   0.280  17.180   7.486  0.3129 -0.0104 -0.1276
  423loPI   C1B 6765   0.502  19.124   8.949  0.1414 -0.0654  0.1533
  423loPI   C2B 6766   0.367  19.471   8.633  0.1008  0.1181 -0.0099
  423loPI   C3B 6767   0.561  19.624   8.221 -0.1094  0.0832  0.0462
  423loPI   C4B 6768   0.641  19.826   7.801 -0.2313 -0.0032 -0.1057
  424loPI    C1 6769  16.459   4.430  10.253 -0.2107  0.1596  0.1107
  424loPI    C2 6770  16.837   4.307  10.298 -0.2988 -0.1359  0.0648
  424loPI    C3 6771  16.622   4.416  10.618 -0.1215  0.2052  0.0728
  424loPI   PO4 6772  16.527   4.528   9.900 -0.1738  0.1784  0.1823
  424loPI   GL1 6773  16.267   4.598   9.590  0.0025 -0.2171  0.0743
  424loPI   GL2 6774  16.048   4.800   9.535  0.1670 -0.1055  0.0601
  424loPI   C1A 6775  16.367   4.380   9.247  0.2274 -0.3476  0.0116
  424loPI   C2A 6776  16.453   4.524   8.797 -0.2079  0.3332  0.0322
  424loPI   C3A 6777  16.582   4.272   8.381 -0.1061 -0.0979  0.1459
  424loPI   C4A 6778  16.469   4.354   7.997 -0.0548  0.2156 -0.1425
  424loPI   C5A 6779  16.367   4.580   7.518 -0.0448 -0.0536 -0.1096
  424loPI   C6A 6780  16.219   4.759   7.102  0.0652  0.1323 -0.0934
  424loPI   C1B 6781  16.079   4.735   9.115  0.0200  0.0351  0.1872
  424loPI   C2B 6782  15.992   4.884   8.638 -0.0647 -0.0899 -0.0623
  424loPI   C3B 6783  16.178   4.972   8.289  0.4400  0.1043 -0.0786
  424loPI   C4B 6784  16.411   4.884   7.939  0.0975 -0.0067 -0.0122
  425loPI    C1 6785  10.165  14.142   9.376  0.2310 -0.0617 -0.1289
  425loPI    C2 6786  10.372  14.085   9.714 -0.0270 -0.2491  0.0011
  425loPI    C3 6787  10.321  14.455   9.570 -0.0678 -0.1493  0.2668
  425loPI   PO4 6788  10.391  13.939   9.231  0.0009 -0.0537 -0.0252
  425loPI   GL1 6789  10.134  13.845   8.861  0.0433  0.1055  0.1524
  425loPI   GL2 6790   9.843  13.995   9.015 -0.0094  0.0614  0.4152
  425loPI   C1A 6791  10.182  13.989   8.480  0.0257  0.0486  0.1973
  425loPI   C2A 6792  10.327  13.988   8.042  0.1292 -0.3156  0.1902
  425loPI   C3A 6793  10.367  13.852   7.657  0.2577  0.0256  0.0299
  425loPI   C4A 6794  10.601  13.573   7.280  0.3985 -0.0325  0.2525
  425loPI   C5A 6795  10.900  13.379   7.078  0.0604  0.2494 -0.0114
  425loPI   C6A 6796  11.011  13.190   6.641  0.2217  0.2537  0.2431
  425loPI   C1B 6797   9.684  13.933   8.617 -0.0895 -0.3367  0.1429
  425loPI   C2B 6798   9.502  13.621   8.435 -0.3264 -0.1111  0.0682
  425loPI   C3B 6799   9.581  13.369   8.186  0.0781  0.0883 -0.1839
  425loPI   C4B 6800   9.902  13.123   8.083  0.1973 -0.2753 -0.1797
  426loPI    C1 6801  15.402  15.613   9.820  0.1819  0.0048  0.0322
  426loPI    C2 6802  15.202  15.470  10.136  0.0744  0.5868  0.2390
  426loPI    C3 6803  15.563  15.324  10.045 -0.0632  0.1390  0.3886
  426loPI   PO4 6804  15.272  15.577   9.653 -0.2953  0.1188  0.1742
  426loPI   GL1 6805  14.982  15.642   9.301 -0.3226 -0.2333  0.1703
  426loPI   GL2 6806  14.898  15.348   9.369 -0.0292  0.1323 -0.0319
  426loPI   C1A 6807  14.832  15.556   8.885  0.2708 -0.4244 -0.0458
  426loPI   C2A 6808  14.761  15.640   8.488 -0.0078  0.1232 -0.1735
  426loPI   C3A 6809  14.738  15.329   8.122 -0.0513  0.1341  0.0649
  426loPI   C4A 6810  14.405  15.110   7.861 -0.0831 -0.1163 -0.0310
  426loPI   C5A 6811  14.298  14.629   7.778 -0.0460 -0.1909  0.3198
  426loPI   C6A 6812  14.128  14.368   7.417 -0.1692 -0.0086 -0.3040
  426loPI   C1B 6813  14.534  15.212   9.135  0.0706 -0.2411 -0.4385
  426loPI   C2B 6814  14.502  15.164   8.611 -0.1026  0.3718 -0.1133
  426loPI   C3B 6815  14.253  14.944   8.310  0.1592  0.2852  0.1143
  426loPI   C4B 6816  13.844  14.818   8.289  0.2507 -0.0551  0.1031
  427loPI    C1 6817  12.722  18.690   9.456 -0.1178  0.0382  0.1843
  427loPI    C2 6818  12.717  18.915   9.787 -0.0391 -0.1329  0.3034
  427loPI    C3 6819  13.065  18.786   9.638 -0.0346  0.3403 -0.1220
  427loPI   PO4 6820  12.524  18.486   9.485 -0.0659  0.0977 -0.1140
  427loPI   GL1 6821  12.544  18.322   9.165  0.2408  0.0314 -0.0524
  427loPI   GL2 6822  12.276  18.524   9.082 -0.1015  0.1073 -0.2475
  427loPI   C1A 6823  12.536  18.243   8.766  0.2181  0.0695 -0.0222
  427loPI   C2A 6824  12.612  17.965   8.452 -0.0919  0.2122  0.2113
  427loPI   C3A 6825  12.602  17.665   8.064 -0.0365  0.0040 -0.0273
  427loPI   C4A 6826  12.481  17.257   7.819  0.1663  0.0206  0.2255
  427loPI   C5A 6827  12.103  17.056   7.636  0.1509 -0.0442 -0.0162
  427loPI   C6A 6828  11.749  17.104   7.479  0.1750 -0.0575 -0.0349
  427loPI   C1B 6829  12.060  18.382   8.736  0.0917  0.2215  0.0229
  427loPI   C2B 6830  11.864  18.208   8.383 -0.1511 -0.1306  0.2992
  427loPI   C3B 6831  12.133  18.279   7.976  0.1724 -0.0113 -0.2049
  427loPI   C4B 6832  12.407  18.067   7.888 -0.2322 -0.3201  0.0895
  428loPI    C1 6833  12.272  13.466  10.012  0.4538  0.0536  0.1355
  428loPI    C2 6834  12.357  13.764  10.265  0.1331 -0.0262  0.3444
  428loPI    C3 6835  12.179  13.432  10.400 -0.2504  0.0219 -0.0215
  428loPI   PO4 6836  12.233  13.614   9.762 -0.1375 -0.1866  0.0920
  428loPI   GL1 6837  12.185  13.569   9.365 -0.0435 -0.0855  0.3411
  428loPI   GL2 6838  12.570  13.794   9.391 -0.2794 -0.2562  0.1626
  428loPI   C1A 6839  12.317  13.630   8.978 -0.2278  0.0144 -0.3883
  428loPI   C2A 6840  12.271  13.715   8.478 -0.2064 -0.0555 -0.2157
  428loPI   C3A 6841  12.369  13.573   8.029 -0.2649 -0.0351 -0.0979
  428loPI   C4A 6842  12.431  13.289   7.813 -0.2186 -0.0397 -0.0815
  428loPI   C5A 6843  12.206  12.912   7.589 -0.0968  0.1953  0.2791
  428loPI   C6A 6844  11.835  13.038   7.391  0.1609  0.0545  0.0839
  428loPI   C1B 6845  12.844  13.669   9.086 -0.0941  0.2836 -0.1588
  428loPI   C2B 6846  13.071  13.840   8.882  0.0014  0.2488 -0.0865
  428loPI   C3B 6847  13.109  13.775   8.408  0.0783  0.1906  0.1063
  428loPI   C4B 6848  13.350  13.925   8.052 -0.0860 -0.0520 -0.1372
  429loPI    C1 6849   4.542  13.852  10.060  0.0999  0.1907  0.0335
  429loPI    C2 6850   4.562  13.531  10.298 -0.1650  0.1045 -0.0563
  429loPI    C3 6851   4.848  13.811  10.314 -0.0240 -0.0485  0.1470
  429loPI   PO4 6852   4.409  13.709   9.851  0.4569 -0.0131  0.0606
  429loPI   GL1 6853   4.146  13.848   9.603 -0.0185  0.1195  0.1839
  429loPI   GL2 6854   3.802  13.972   9.676 -0.3889 -0.2054  0.1068
  429loPI   C1A 6855   4.095  13.821   9.072  0.0475 -0.2384 -0.3362
  429loPI   C2A 6856   4.041  13.643   8.742  0.3598 -0.0567  0.3035
  429loPI   C3A 6857   4.110  13.678   8.335  0.1450 -0.3828 -0.1375
  429loPI   C4A 6858   4.038  13.708   7.837  0.2222 -0.0155  0.1145
  429loPI   C5A 6859   3.665  13.697   7.547 -0.1268 -0.2219  0.0260
  429loPI   C6A 6860   3.251  13.619   7.605  0.0625 -0.0115 -0.2541
  429loPI   C1B 6861   3.653  13.899   9.284  0.0200  0.1071 -0.2154
  429loPI   C2B 6862   3.532  13.771   8.811  0.0497 -0.3289  0.2031
  429loPI   C3B 6863   3.626  13.676   8.416  0.1986  0.2204  0.2464
  429loPI   C4B 6864   3.505  13.705   8.026 -0.1530 -0.3734  0.1577
  430loPI    C1 6865  17.672  16.458  10.267  0.0265  0.0243  0.0377
  430loPI    C2 6866  17.818  16.830  10.262  0.0444  0.0183  0.1064
  430loPI    C3 6867  17.735  16.653  10.611 -0.0237 -0.0186  0.0716
  430loPI   PO4 6868  17.756  16.233  10.058  0.0028 -0.0738 -0.1937
  430loPI   GL1 6869  17.618  16.153   9.666 -0.4145  0.0251 -0.1492
  430loPI   GL2 6870  17.885  15.938   9.678  0.0309  0.1779  0.0028
  430loPI   C1A 6871  17.668  16.012   9.227 -0.0588  0.4142  0.2180
  430loPI   C2A 6872  17.752  15.926   8.781 -0.1256 -0.2197 -0.2633
  430loPI   C3A 6873  17.885  16.041   8.390  0.2384  0.1285 -0.0350
  430loPI   C4A 6874  17.559  16.189   8.080 -0.1128 -0.0321  0.2788
  430loPI   C5A 6875  17.337  16.425   7.782 -0.0836 -0.1216  0.0804
  430loPI   C6A 6876  17.257  16.669   7.330  0.1000 -0.0743  0.1561
  430loPI   C1B 6877  17.931  15.554   9.458  0.0283 -0.1577 -0.2208
  430loPI   C2B 6878  17.873  15.538   9.022 -0.1559  0.0116 -0.1919
  430loPI   C3B 6879  18.146  15.696   8.710 -0.1265  0.3020  0.0585
  430loPI   C4B 6880  18.341  16.084   8.619  0.0547  0.0085  0.0685
  431loPI    C1 6881  16.782   0.589   9.750  0.0705 -0.1920 -0.0510
  431loPI    C2 6882  17.179   0.632   9.730  0.0466  0.0454 -0.0513
  431loPI    C3 6883  16.984   0.731  10.065 -0.0283  0.0620 -0.0995
  431loPI   PO4 6884  16.840   0.323   9.509 -0.1424  0.0881  0.1934
  431loPI   GL1 6885  16.863   0.351   9.137  0.0739  0.4628 -0.0045
  431loPI   GL2 6886  16.552   0.596   9.114  0.1415 -0.0484  0.0666
  431loPI   C1A 6887  16.799   0.330   8.739  0.0259  0.1186  0.1586
  431loPI   C2A 6888  16.687   0.314   8.255  0.0137 -0.2448  0.0905
  431loPI   C3A 6889  16.844   0.536   7.851  0.1681 -0.1070 -0.0128
  431loPI   C4A 6890  16.810   0.883   7.583  0.0010 -0.0223  0.1811
  431loPI   C5A 6891  16.680   1.100   7.137  0.1090  0.0516 -0.1001
  431loPI   C6A 6892  16.598   0.943   6.703 -0.1357 -0.1117  0.0196
  431loPI   C1B 6893  16.532   0.686   8.664  0.1170 -0.4215  0.0828
  431loPI   C2B 6894  16.538   0.785   8.203  0.1210  0.0522 -0.0572
  431loPI   C3B 6895  16.336   0.780   7.820 -0.0483  0.3440 -0.1891
  431loPI   C4B 6896  16.295   0.719   7.404  0.0324 -0.1040  0.0930
  432loPI    C1 6897   7.781  18.507   9.990 -0.1604 -0.0081  0.1071
  432loPI    C2 6898   8.102  18.269  10.021 -0.0072  0.1740 -0.0534
  432loPI    C3 6899   7.847  18.303  10.328  0.1499  0.0611  0.0914
  432loPI   PO4 6900   7.713  18.430   9.748 -0.1719 -0.0672 -0.2348
  432loPI   GL1 6901   7.465  18.517   9.438 -0.2376  0.3317 -0.2653
  432loPI   GL2 6902   7.212  18.709   9.286 -0.3102  0.0143 -0.3342
  432loPI   C1A 6903   7.481  18.232   8.998  0.1963 -0.0891 -0.1398
  432loPI   C2A 6904   7.363  18.241   8.576  0.0604 -0.2397  0.1264
  432loPI   C3A 6905   7.430  18.336   8.131 -0.2167  0.1834 -0.1217
  432loPI   C4A 6906   7.679  18.312   7.800  0.1366  0.3852  0.1413
  432loPI   C5A 6907   7.857  18.261   7.466 -0.2606  0.0475 -0.3519
  432loPI   C6A 6908   8.298  18.301   7.338 -0.3637  0.1110 -0.0669
  432loPI   C1B 6909   7.275  18.668   8.864  0.2083  0.1912  0.1644
  432loPI   C2B 6910   7.270  18.702   8.422 -0.0057 -0.2364  0.0514
  432loPI   C3B 6911   7.015  18.874   8.164  0.0242  0.2010 -0.1623
  432loPI   C4B 6912   7.095  18.695   7.864  0.2574 -0.3603  0.0814
  433loPI    C1 6913   6.718   7.208  10.301 -0.0763 -0.0961 -0.0270
  433loPI    C2 6914   6.996   7.407  10.508 -0.0459 -0.2056  0.0384
  433loPI    C3 6915   6.709   7.208  10.701 -0.0551 -0.2550 -0.0260
  433loPI   PO4 6916   6.694   7.402  10.046 -0.1127  0.2311 -0.0718
  433loPI   GL1 6917   6.896   7.240   9.709 -0.0743 -0.3358  0.2614
  433loPI   GL2 6918   7.216   7.335   9.532 -0.0216  0.1593  0.0731
  433loPI   C1A 6919   6.919   7.057   9.268 -0.0012 -0.1836  0.1395
  433loPI   C2A 6920   6.871   7.178   8.931 -0.0678  0.0584  0.5027
  433loPI   C3A 6921   6.921   7.123   8.470 -0.0701 -0.0981  0.2120
  433loPI   C4A 6922   6.763   7.208   8.048  0.2084 -0.2379  0.0276
  433loPI   C5A 6923   6.488   7.547   7.802  0.2036 -0.0032  0.0838
  433loPI   C6A 6924   6.474   7.571   7.412 -0.2140  0.1255  0.2376
  433loPI   C1B 6925   7.329   7.278   9.132  0.0206  0.1665 -0.2814
  433loPI   C2B 6926   7.278   7.392   8.718 -0.2205  0.3543 -0.1261
  433loPI   C3B 6927   7.379   7.325   8.308 -0.0480  0.2311 -0.0821
  433loPI   C4B 6928   7.287   7.134   8.048  0.0517 -0.3092 -0.0200
  434loPI    C1 6929   1.969   6.553  10.187 -0.1473 -0.0323 -0.2726
  434loPI    C2 6930   1.978   6.951  10.149  0.2500 -0.0045  0.0558
  434loPI    C3 6931   1.729   6.781  10.412 -0.1206  0.0038 -0.2807
  434loPI   PO4 6932   2.172   6.477  10.107 -0.0938 -0.4056 -0.0528
  434loPI   GL1 6933   2.415   6.361   9.718  0.0764  0.1301 -0.0408
  434loPI   GL2 6934   2.610   6.380   9.827 -0.0329  0.0985 -0.3069
  434loPI   C1A 6935   2.356   6.491   9.312 -0.1265 -0.0954 -0.1120
  434loPI   C2A 6936   2.318   6.836   8.927 -0.1316 -0.2747  0.0926
  434loPI   C3A 6937   2.192   7.011   8.556  0.2479 -0.1093  0.0513
  434loPI   C4A 6938   2.345   6.874   8.163 -0.2088 -0.1642 -0.1018
  434loPI   C5A 6939   2.376   6.686   7.747 -0.0491 -0.3122 -0.0306
  434loPI   C6A 6940   2.583   6.231   7.556  0.1186  0.0129 -0.1624
  434loPI   C1B 6941   2.615   6.067   9.369 -0.2825 -0.2021  0.0536
  434loPI   C2B 6942   2.540   6.042   8.954 -0.3281  0.1871 -0.0458
  434loPI   C3B 6943   2.373   6.050   8.593 -0.0225 -0.1789  0.0049
  434loPI   C4B 6944   2.072   6.091   8.489  0.1244 -0.2775  0.1131
  435loPI    C1 6945  16.328  14.731  10.031 -0.1521  0.0229  0.0687
  435loPI    C2 6946  16.307  14.870  10.405 -0.3799  0.0127  0.0608
  435loPI    C3 6947  16.283  14.476  10.336  0.1101 -0.0243  0.0703
  435loPI   PO4 6948  16.421  14.959   9.887  0.1430  0.1427 -0.2759
  435loPI   GL1 6949  16.601  15.023   9.545  0.3603 -0.6643  0.2011
  435loPI   GL2 6950  16.841  15.032   9.509 -0.1211  0.0575 -0.0478
  435loPI   C1A 6951  16.688  14.892   9.094  0.3908  0.0593 -0.0415
  435loPI   C2A 6952  16.730  15.050   8.780  0.0791  0.0407 -0.2727
  435loPI   C3A 6953  16.444  15.211   8.535  0.0273  0.0022  0.2676
  435loPI   C4A 6954  16.332  15.289   8.080  0.2401  0.1873 -0.0623
  435loPI   C5A 6955  16.367  15.664   7.914  0.1485 -0.3732 -0.1289
  435loPI   C6A 6956  16.285  15.710   8.336  0.0907  0.0172  0.1818
  435loPI   C1B 6957  17.145  14.975   9.088 -0.2094 -0.2669  0.3762
  435loPI   C2B 6958  17.214  14.879   8.741 -0.3033 -0.0896  0.2107
  435loPI   C3B 6959  17.173  14.883   8.313 -0.0294 -0.1751 -0.0866
  435loPI   C4B 6960  17.197  15.019   7.861 -0.1940 -0.1058  0.3247
  436loPI    C1 6961  13.259   5.615  10.126 -0.0791 -0.1303  0.0062
  436loPI    C2 6962  12.869   5.535  10.097 -0.0591 -0.2272  0.0005
  436loPI    C3 6963  13.082   5.382  10.399 -0.0527 -0.0666  0.0783
  436loPI   PO4 6964  13.336   5.580   9.950 -0.3694  0.0444  0.2198
  436loPI   GL1 6965  13.462   5.692   9.595 -0.0136 -0.1048  0.1162
  436loPI   GL2 6966  13.761   5.797   9.613  0.0297  0.2173  0.2071
  436loPI   C1A 6967  13.329   5.842   9.139 -0.0225  0.0056 -0.1329
  436loPI   C2A 6968  13.181   5.636   8.824  0.0614  0.2204  0.1846
  436loPI   C3A 6969  12.923   5.714   8.557 -0.2283  0.0237  0.0813
  436loPI   C4A 6970  12.638   5.846   8.346 -0.0741  0.0423 -0.0318
  436loPI   C5A 6971  12.343   5.746   8.046  0.0687 -0.1729 -0.0613
  436loPI   C6A 6972  11.957   5.652   8.006  0.2142 -0.0316 -0.1131
  436loPI   C1B 6973  13.700   5.449   9.187  0.0097  0.0915 -0.1556
  436loPI   C2B 6974  13.440   5.086   9.192 -0.3577 -0.0067 -0.0260
  436loPI   C3B 6975  13.252   4.870   9.023  0.0464 -0.2840  0.1121
  436loPI   C4B 6976  13.073   4.953   8.687  0.1179  0.1956 -0.0737
  437loPI    C1 6977  12.484   7.872  10.322  0.0163 -0.0501  0.1999
  437loPI    C2 6978  12.766   7.945  10.596 -0.1677  0.1204  0.3466
  437loPI    C3 6979  12.452   8.190  10.563 -0.1228  0.1306 -0.0527
  437loPI   PO4 6980  12.558   7.874  10.101  0.2613  0.1374  0.2400
  437loPI   GL1 6981  12.687   8.088   9.701  0.1018 -0.2974  0.0290
  437loPI   GL2 6982  12.441   8.215   9.668 -0.2305 -0.0329  0.0689
  437loPI   C1A 6983  12.972   7.930   9.397 -0.0795 -0.2715 -0.1726
  437loPI   C2A 6984  13.239   8.108   9.182 -0.2984  0.2455 -0.0722
  437loPI   C3A 6985  13.301   8.277   8.762 -0.1480  0.1926  0.3186
  437loPI   C4A 6986  13.148   8.664   8.582 -0.1582  0.0744 -0.1448
  437loPI   C5A 6987  13.095   8.871   8.229  0.0026  0.0777 -0.1146
  437loPI   C6A 6988  13.080   9.059   7.806 -0.1078 -0.0469  0.1270
  437loPI   C1B 6989  12.298   8.321   9.324  0.2843  0.0008  0.0345
  437loPI   C2B 6990  12.245   8.209   8.929  0.1168 -0.0739  0.3774
  437loPI   C3B 6991  12.103   8.050   8.478 -0.2188  0.0950  0.1061
  437loPI   C4B 6992  12.170   7.891   8.012 -0.3215 -0.0308  0.3320
  438loPI    C1 6993   5.622  15.890   9.933 -0.0763 -0.1098  0.0240
  438loPI    C2 6994   5.573  15.542  10.124  0.0511  0.0043  0.2687
  438loPI    C3 6995   5.863  15.793  10.237  0.0068  0.1588  0.0458
  438loPI   PO4 6996   5.668  15.882   9.663  0.1256  0.0475  0.1805
  438loPI   GL1 6997   5.416  16.209   9.378 -0.0040 -0.0661  0.2059
  438loPI   GL2 6998   5.233  15.933   9.365  0.0990  0.0475 -0.2066
  438loPI   C1A 6999   5.220  16.252   8.998  0.1735 -0.1444  0.1112
  438loPI   C2A 7000   5.164  16.078   8.714  0.3622  0.2047 -0.4201
  438loPI   C3A 7001   4.854  16.044   8.306  0.0479 -0.1910  0.0149
  438loPI   C4A 7002   4.697  16.188   7.894 -0.1850  0.1883  0.1454
  438loPI   C5A 7003   4.839  16.237   7.417 -0.2842 -0.2710  0.0575
  438loPI   C6A 7004   4.938  16.099   7.054 -0.2810 -0.2817 -0.1026
  438loPI   C1B 7005   5.254  15.660   8.966  0.1880  0.1815  0.1413
  438loPI   C2B 7006   5.445  15.285   8.807  0.1395 -0.1766 -0.0607
  438loPI   C3B 7007   5.440  14.901   8.595  0.1489 -0.0548 -0.1553
  438loPI   C4B 7008   5.472  14.619   8.247 -0.2315  0.0532 -0.0512
  439loPI    C1 7009   4.667   8.021  10.192 -0.0443  0.0208  0.2096
  439loPI    C2 7010   5.000   7.847  10.331 -0.0912 -0.2034  0.0471
  439loPI    C3 7011   4.760   8.048  10.580  0.1383 -0.0836  0.1743
  439loPI   PO4 7012   4.715   8.116   9.948  0.2671  0.0599 -0.1981
  439loPI   GL1 7013   4.632   8.167   9.513  0.4357 -0.0710  0.1643
  439loPI   GL2 7014   4.469   7.826   9.452  0.0762 -0.1773  0.0173
  439loPI   C1A 7015   4.738   8.174   9.039 -0.0376  0.1797  0.1907
  439loPI   C2A 7016   4.794   7.942   8.704 -0.1293  0.0886  0.3301
  439loPI   C3A 7017   4.659   7.769   8.287 -0.4228 -0.0610 -0.0167
  439loPI   C4A 7018   4.185   7.985   8.178  0.0431 -0.0388  0.3716
  439loPI   C5A 7019   3.865   7.916   7.829 -0.1771 -0.0969 -0.1034
  439loPI   C6A 7020   3.950   8.110   7.459  0.1826 -0.1509  0.2638
  439loPI   C1B 7021   4.285   8.007   9.026  0.0952  0.1137  0.0656
  439loPI   C2B 7022   4.335   8.005   8.640  0.2568 -0.0650  0.0103
  439loPI   C3B 7023   4.645   8.267   8.336 -0.4713  0.2783  0.6187
  439loPI   C4B 7024   4.754   8.490   8.063 -0.1379 -0.0557 -0.2971
  440loPI    C1 7025  18.383   3.788  10.351  0.2219 -0.2113 -0.2579
  440loPI    C2 7026  18.681   3.638  10.571 -0.0118  0.0062  0.2234
  440loPI    C3 7027  18.337   3.437  10.538  0.0765 -0.1007 -0.0820
  440loPI   PO4 7028  18.493   3.856  10.025  0.1995  0.0500 -0.3285
  440loPI   GL1 7029  18.573   3.772   9.648  0.3861  0.2406 -0.1796
  440loPI   GL2 7030  18.566   3.459   9.680 -0.1583  0.1056  0.0758
  440loPI   C1A 7031  18.755   3.828   9.305  0.2203 -0.2036 -0.0259
  440loPI   C2A 7032  18.649   3.593   8.937  0.1031  0.0992 -0.0360
  440loPI   C3A 7033  18.547   3.501   8.498 -0.1589 -0.0434 -0.1018
  440loPI   C4A 7034  18.441   3.089   8.208  0.3597 -0.2446 -0.0650
  440loPI   C5A 7035  18.118   2.715   8.184  0.0260 -0.2785  0.4107
  440loPI   C6A 7036  17.939   2.541   7.894 -0.0188 -0.2423  0.0797
  440loPI   C1B 7037  18.885   3.307   9.299  0.1034 -0.0249  0.3473
  440loPI   C2B 7038  18.887   3.190   8.809  0.0960  0.2211 -0.1266
  440loPI   C3B 7039  18.902   3.172   8.365  0.1043  0.2256  0.1914
  440loPI   C4B 7040  19.320   3.106   8.057 -0.2295 -0.0571  0.0796
  441loPI    C1 7041   0.111   4.459  10.351  0.0734 -0.1511  0.0090
  441loPI    C2 7042   0.449   4.274  10.460  0.1019  0.0655  0.2983
  441loPI    C3 7043   0.313   4.586  10.671 -0.1408  0.1461  0.0305
  441loPI   PO4 7044   0.045   4.508  10.104  0.2417 -0.0983  0.1593
  441loPI   GL1 7045   0.129   4.473   9.688 -0.1640  0.0690  0.1797
  441loPI   GL2 7046   0.230   4.784   9.705  0.0885 -0.1566 -0.0835
  441loPI   C1A 7047  -0.085   4.211   9.352 -0.0104 -0.1673  0.1921
  441loPI   C2A 7048   0.069   4.137   8.975  0.1228  0.4114  0.0548
  441loPI   C3A 7049   0.182   4.149   8.522  0.0060 -0.1698 -0.1345
  441loPI   C4A 7050   0.025   4.150   8.207  0.0317  0.1035  0.1118
  441loPI   C5A 7051  -0.292   4.196   7.856  0.2479 -0.0404  0.0218
  441loPI   C6A 7052  -0.363   4.610   7.687 -0.1150 -0.3890  0.0188
  441loPI   C1B 7053   0.248   4.950   9.351 -0.1538  0.2197 -0.0170
  441loPI   C2B 7054   0.486   4.871   9.019 -0.3205 -0.1206  0.0569
  441loPI   C3B 7055   0.536   4.881   8.534 -0.3193 -0.0684  0.1508
  441loPI   C4B 7056   0.560   5.160   8.149  0.2173 -0.0173 -0.0721
  442loPI    C1 7057   7.878  13.504   9.944 -0.1044  0.0764 -0.3104
  442loPI    C2 7058   7.514  13.541  10.104 -0.0390  0.0076 -0.1433
  442loPI    C3 7059   7.837  13.650  10.314  0.0735 -0.4182 -0.0861
  442loPI   PO4 7060   7.847  13.221   9.853 -0.1138 -0.0408  0.1911
  442loPI   GL1 7061   7.592  12.992   9.409 -0.3215 -0.2342  0.0346
  442loPI   GL2 7062   7.404  12.770   9.398 -0.0090 -0.4113 -0.1084
  442loPI   C1A 7063   7.594  13.015   8.949 -0.1785  0.0504  0.2519
  442loPI   C2A 7064   7.857  13.023   8.528 -0.4756 -0.1582  0.0951
  442loPI   C3A 7065   7.755  13.157   8.087  0.2552  0.2470 -0.0212
  442loPI   C4A 7066   7.492  13.165   7.663 -0.0061 -0.0614  0.2247
  442loPI   C5A 7067   7.355  13.045   7.239 -0.0045 -0.1698 -0.1374
  442loPI   C6A 7068   6.929  12.760   7.145  0.1104 -0.1740 -0.0786
  442loPI   C1B 7069   7.770  12.527   9.185 -0.0814 -0.3756  0.2702
  442loPI   C2B 7070   7.700  12.520   8.705  0.3140  0.3513 -0.0776
  442loPI   C3B 7071   7.720  12.665   8.267  0.0917  0.3007 -0.3305
  442loPI   C4B 7072   7.582  12.671   7.867  0.0727 -0.0140 -0.1162
  443loPI    C1 7073  11.670   0.557   9.818  0.0820 -0.0020  0.1312
  443loPI    C2 7074  11.316   0.681   9.959  0.0432  0.0313  0.0058
  443loPI    C3 7075  11.627   0.638  10.207 -0.0801 -0.1118  0.1373
  443loPI   PO4 7076  11.726   0.652   9.548 -0.1648 -0.0947  0.1558
  443loPI   GL1 7077  11.606   0.841   9.162 -0.0653 -0.0818  0.2265
  443loPI   GL2 7078  11.713   1.123   9.214 -0.1058 -0.2808  0.1359
  443loPI   C1A 7079  11.558   0.901   8.631 -0.4442 -0.0759 -0.2903
  443loPI   C2A 7080  11.563   0.904   8.191  0.1478 -0.1547  0.0423
  443loPI   C3A 7081  11.375   1.152   7.881  0.0867  0.0629 -0.2720
  443loPI   C4A 7082  11.065   0.986   7.638  0.2093 -0.0328 -0.0563
  443loPI   C5A 7083  10.785   0.802   7.608 -0.1152  0.1700  0.1584
  443loPI   C6A 7084  10.385   0.690   7.488  0.2661 -0.1336 -0.0442
  443loPI   C1B 7085  11.914   1.325   8.871  0.1760  0.1762 -0.1703
  443loPI   C2B 7086  12.028   1.172   8.476 -0.0273 -0.2323  0.2756
  443loPI   C3B 7087  11.966   1.076   7.923  0.0237 -0.2658 -0.1921
  443loPI   C4B 7088  12.013   0.946   7.508  0.3485 -0.3150 -0.1742
  444loPI    C1 7089   5.797   8.027   9.974  0.0445 -0.3321  0.1462
  444loPI    C2 7090   5.725   8.347  10.202 -0.0882 -0.1330 -0.1687
  444loPI    C3 7091   5.619   7.983  10.330 -0.1666 -0.0245  0.0825
  444loPI   PO4 7092   5.916   8.065   9.850 -0.1321 -0.0030 -0.0403
  444loPI   GL1 7093   6.176   7.923   9.538  0.2421 -0.1038 -0.1944
  444loPI   GL2 7094   6.145   8.088   9.383 -0.0463  0.0146 -0.4719
  444loPI   C1A 7095   6.104   7.709   9.145  0.0710  0.3478  0.0460
  444loPI   C2A 7096   6.095   7.783   8.805 -0.1118  0.1240 -0.0991
  444loPI   C3A 7097   6.277   7.867   8.541 -0.0881  0.0310  0.3821
  444loPI   C4A 7098   6.303   7.920   8.087  0.2036 -0.1840  0.2634
  444loPI   C5A 7099   6.304   8.066   7.616 -0.0025 -0.0644 -0.3025
  444loPI   C6A 7100   6.180   7.970   7.235 -0.2334  0.1909 -0.0518
  444loPI   C1B 7101   6.171   8.246   8.920  0.1497 -0.1596 -0.0417
  444loPI   C2B 7102   6.125   8.400   8.514 -0.1134 -0.0319 -0.1602
  444loPI   C3B 7103   6.017   8.350   8.162  0.0644 -0.2795 -0.1932
  444loPI   C4B 7104   5.832   8.357   7.762 -0.0059 -0.2494  0.4080
  445loPI    C1 7105   2.079   0.034   9.807  0.1197  0.0016  0.2011
  445loPI    C2 7106   1.970   0.380   9.638  0.2262 -0.0605  0.0026
  445loPI    C3 7107   2.186   0.381   9.975 -0.0324  0.0639  0.1711
  445loPI   PO4 7108   1.849  -0.173   9.737 -0.0849  0.0015  0.0892
  445loPI   GL1 7109   2.000  -0.522   9.445  0.0652 -0.1150 -0.0551
  445loPI   GL2 7110   1.736  -0.293   9.271 -0.3738 -0.2119  0.2326
  445loPI   C1A 7111   1.849  -0.832   9.091 -0.3741 -0.1227  0.1288
  445loPI   C2A 7112   1.814  -0.956   8.651  0.0612  0.1200 -0.0841
  445loPI   C3A 7113   1.983  -1.084   8.311  0.0404  0.1307  0.0538
  445loPI   C4A 7114   2.120  -1.371   8.021 -0.2109 -0.0119  0.0721
  445loPI   C5A 7115   2.575  -1.334   7.798 -0.3423  0.0231  0.1505
  445loPI   C6A 7116   2.681  -1.496   7.442 -0.4867  0.2745 -0.2779
  445loPI   C1B 7117   1.683  -0.315   8.957  0.5005 -0.3949  0.3875
  445loPI   C2B 7118   1.765  -0.339   8.513 -0.1708  0.1116 -0.1021
  445loPI   C3B 7119   1.835  -0.075   8.286  0.2657 -0.1124  0.0851
  445loPI   C4B 7120   1.850  -0.059   7.803  0.0707 -0.2640 -0.2102
  446loPI    C1 7121   2.345   1.750  10.059  0.2019  0.0655 -0.0573
  446loPI    C2 7122   2.583   1.618  10.352  0.0690  0.1613  0.0961
  446loPI    C3 7123   2.231   1.440  10.286  0.0982  0.1407 -0.0056
  446loPI   PO4 7124   2.428   1.828   9.941 -0.0602  0.3567 -0.0208
  446loPI   GL1 7125   2.219   2.060   9.610  0.1841 -0.0188 -0.2476
  446loPI   GL2 7126   2.093   2.302   9.503  0.0661 -0.1221  0.0442
  446loPI   C1A 7127   2.121   1.803   9.277  0.0989  0.1986  0.1222
  446loPI   C2A 7128   2.225   1.854   8.936 -0.1194  0.1778 -0.0094
  446loPI   C3A 7129   2.633   1.974   8.761  0.0672 -0.2969  0.0107
  446loPI   C4A 7130   2.789   2.056   8.450 -0.2898 -0.2115  0.0075
  446loPI   C5A 7131   3.162   2.136   8.199  0.1228 -0.1725 -0.0677
  446loPI   C6A 7132   3.281   2.074   7.822  0.1271 -0.1911  0.0201
  446loPI   C1B 7133   2.065   2.320   9.011 -0.3339  0.0675 -0.2472
  446loPI   C2B 7134   2.256   2.273   8.645  0.2184 -0.0733  0.1870
  446loPI   C3B 7135   2.363   2.380   8.209 -0.5955 -0.0998  0.3086
  446loPI   C4B 7136   2.251   2.761   8.050 -0.0541 -0.1076  0.0440
  447loPI    C1 7137   3.118  11.820  10.337  0.2097 -0.0748 -0.1220
  447loPI    C2 7138   3.121  11.420  10.320  0.2825 -0.0892  0.1711
  447loPI    C3 7139   2.821  11.611  10.505  0.1396  0.0030 -0.1487
  447loPI   PO4 7140   3.143  11.880  10.048 -0.1470 -0.0718  0.3656
  447loPI   GL1 7141   3.255  12.004   9.620  0.1638 -0.0997  0.0087
  447loPI   GL2 7142   3.519  12.093   9.512 -0.0837  0.1336  0.1017
  447loPI   C1A 7143   3.337  11.604   9.347 -0.0795  0.0614  0.0728
  447loPI   C2A 7144   3.533  11.376   8.983  0.0602  0.2461  0.0718
  447loPI   C3A 7145   3.517  11.407   8.588  0.0289  0.4151 -0.1099
  447loPI   C4A 7146   3.150  11.176   8.333  0.0278 -0.0377 -0.1734
  447loPI   C5A 7147   3.042  11.268   7.886 -0.0441 -0.1546 -0.0083
  447loPI   C6A 7148   3.463  11.193   7.593  0.0819 -0.1841  0.4997
  447loPI   C1B 7149   3.682  12.021   9.006  0.1035  0.1707 -0.0523
  447loPI   C2B 7150   3.674  12.282   8.532 -0.1231 -0.2337  0.0003
  447loPI   C3B 7151   3.487  12.569   8.439  0.1171  0.1024  0.2746
  447loPI   C4B 7152   3.162  12.625   8.082  0.1308  0.1906  0.0939
  448loPI    C1 7153   4.614   6.381   9.886 -0.1402 -0.0271  0.0463
  448loPI    C2 7154   4.676   6.152  10.208 -0.2427 -0.1530 -0.0226
  448loPI    C3 7155   4.672   6.551  10.243 -0.2207 -0.1653  0.1257
  448loPI   PO4 7156   4.415   6.288   9.751 -0.1001 -0.1855  0.1475
  448loPI   GL1 7157   4.168   6.564   9.480  0.2270 -0.1110  0.1981
  448loPI   GL2 7158   4.267   6.385   9.223 -0.1646  0.1406 -0.2911
  448loPI   C1A 7159   4.261   6.916   9.176 -0.1242 -0.2746  0.1699
  448loPI   C2A 7160   4.038   7.149   8.827  0.2675  0.0933  0.2411
  448loPI   C3A 7161   3.825   7.278   8.487 -0.2224  0.0414  0.0872
  448loPI   C4A 7162   3.634   7.512   8.122  0.1720  0.3048  0.0979
  448loPI   C5A 7163   3.433   7.644   7.783  0.2642 -0.1227 -0.1337
  448loPI   C6A 7164   3.565   7.598   7.417  0.0094  0.0347  0.2689
  448loPI   C1B 7165   4.082   6.633   8.850  0.3503 -0.0558  0.0330
  448loPI   C2B 7166   4.102   6.806   8.508 -0.0723  0.3541  0.0895
  448loPI   C3B 7167   4.067   7.015   8.088  0.0868 -0.0009  0.2082
  448loPI   C4B 7168   4.291   6.940   7.724  0.2014 -0.3273 -0.2091
  449loPI    C1 7169  15.980  13.367  10.364 -0.0090  0.2022  0.0687
  449loPI    C2 7170  16.047  13.724  10.531  0.3417  0.1256  0.1001
  449loPI    C3 7171  16.050  13.394  10.757 -0.0686  0.1068  0.0864
  449loPI   PO4 7172  16.122  13.323  10.108  0.3240  0.3771  0.1500
  449loPI   GL1 7173  16.084  13.282   9.852 -0.0191 -0.2342 -0.1364
  449loPI   GL2 7174  16.046  13.325   9.551  0.0627  0.1185  0.0829
  449loPI   C1A 7175  15.676  13.026   9.651  0.3459  0.2245  0.3789
  449loPI   C2A 7176  15.302  12.918   9.307 -0.0165  0.0070 -0.2063
  449loPI   C3A 7177  15.215  12.889   8.923 -0.0199  0.2475 -0.1205
  449loPI   C4A 7178  15.165  13.109   8.514  0.3975  0.0799 -0.0804
  449loPI   C5A 7179  14.949  13.119   8.054 -0.0304  0.0809  0.1505
  449loPI   C6A 7180  14.936  13.065   7.582 -0.0538 -0.1450 -0.0124
  449loPI   C1B 7181  16.005  13.148   9.250  0.3643  0.0766 -0.1210
  449loPI   C2B 7182  15.706  13.175   8.945  0.1743  0.1319 -0.6566
  449loPI   C3B 7183  15.638  13.132   8.537  0.0075  0.0141  0.1896
  449loPI   C4B 7184  15.420  12.982   8.126 -0.1088  0.0132  0.0619
  450loPI    C1 7185   8.646   8.249  10.131 -0.0880 -0.0738  0.0155
  450loPI    C2 7186   8.340   8.507  10.146 -0.0480 -0.0146 -0.1591
  450loPI    C3 7187   8.456   8.314  10.477 -0.2410  0.0008 -0.0814
  450loPI   PO4 7188   8.577   8.080   9.929  0.1084 -0.0086  0.3730
  450loPI   GL1 7189   8.477   8.190   9.614 -0.1599 -0.0530 -0.2221
  450loPI   GL2 7190   8.833   8.193   9.478  0.1446 -0.0596 -0.1618
  450loPI   C1A 7191   8.409   8.260   9.158  0.1469  0.0814 -0.0461
  450loPI   C2A 7192   8.543   8.192   8.707  0.4743  0.0926  0.2833
  450loPI   C3A 7193   8.829   8.409   8.385 -0.1330  0.1252 -0.3847
  450loPI   C4A 7194   8.713   8.483   7.966  0.1825 -0.2473  0.2959
  450loPI   C5A 7195   8.660   8.771   7.661  0.2571  0.2312 -0.5196
  450loPI   C6A 7196   8.696   9.193   7.664 -0.3394 -0.0381  0.3352
  450loPI   C1B 7197   8.968   8.154   9.114  0.0882 -0.0956 -0.1030
  450loPI   C2B 7198   9.153   8.146   8.735  0.0999 -0.0040 -0.0443
  450loPI   C3B 7199   9.483   8.324   8.383  0.0038 -0.2389 -0.0727
  450loPI   C4B 7200   9.864   8.255   8.171 -0.0849 -0.1773 -0.0031
  451loPI    C1 7201   7.253   3.300  10.064 -0.1088  0.1254 -0.2161
  451loPI    C2 7202   6.867   3.197  10.045 -0.1280  0.1614 -0.0423
  451loPI    C3 7203   7.007   3.385  10.368  0.0996 -0.1151  0.0241
  451loPI   PO4 7204   7.347   3.257   9.809  0.2262 -0.2067 -0.2971
  451loPI   GL1 7205   7.264   3.279   9.452 -0.3027  0.0047 -0.0375
  451loPI   GL2 7206   6.938   3.188   9.425  0.1359  0.2641  0.1960
  451loPI   C1A 7207   7.624   3.229   9.194 -0.0223 -0.0736  0.0969
  451loPI   C2A 7208   7.804   3.263   8.848  0.0958  0.0790  0.2735
  451loPI   C3A 7209   7.629   3.550   8.415 -0.1647  0.0854 -0.2326
  451loPI   C4A 7210   7.570   3.840   8.270  0.0461 -0.1966 -0.0224
  451loPI   C5A 7211   7.612   4.144   7.915 -0.2794 -0.1719 -0.0902
  451loPI   C6A 7212   7.828   4.101   7.531  0.1563  0.1149 -0.2120
  451loPI   C1B 7213   7.046   3.033   9.077  0.0419  0.1178  0.5125
  451loPI   C2B 7214   7.234   3.043   8.734 -0.6650 -0.0666  0.2250
  451loPI   C3B 7215   7.410   3.033   8.371  0.0275 -0.0212 -0.6522
  451loPI   C4B 7216   7.438   3.056   7.984  0.2779 -0.3475 -0.1629
  452loPI    C1 7217   0.027   8.631  10.018  0.1889 -0.0013  0.0119
  452loPI    C2 7218  -0.062   8.968  10.215  0.2594 -0.0063  0.0526
  452loPI    C3 7219   0.187   8.700  10.378  0.0076 -0.1960  0.1324
  452loPI   PO4 7220   0.118   8.666   9.803  0.3718 -0.1993 -0.0361
  452loPI   GL1 7221   0.362   8.767   9.507  0.3039  0.1534  0.2134
  452loPI   GL2 7222   0.550   8.837   9.375 -0.1800 -0.1459 -0.0122
  452loPI   C1A 7223   0.381   8.299   9.297  0.0179  0.0433 -0.3499
  452loPI   C2A 7224   0.389   8.092   8.845 -0.3239 -0.4969  0.1094
  452loPI   C3A 7225   0.470   8.039   8.387 -0.3458  0.0766  0.1696
  452loPI   C4A 7226   0.588   8.273   8.067 -0.1249  0.0986  0.1441
  452loPI   C5A 7227   0.651   8.387   7.667  0.2119  0.2059 -0.0620
  452loPI   C6A 7228   0.856   8.195   7.357  0.1313  0.0750  0.1307
  452loPI   C1B 7229   0.700   8.868   8.939  0.1610  0.1242  0.3906
  452loPI   C2B 7230   0.703   8.845   8.408  0.1070 -0.1135 -0.1576
  452loPI   C3B 7231   0.724   8.777   7.996  0.0572  0.1336  0.0833
  452loPI   C4B 7232   0.410   8.967   7.649 -0.1716  0.1327 -0.0497
  453loPI    C1 7233   2.250  14.642  10.110  0.2626 -0.0933  0.0758
  453loPI    C2 7234   2.078  14.667  10.470  0.1289  0.0165  0.0053
  453loPI    C3 7235   2.475  14.623  10.440  0.1387 -0.0101  0.1657
  453loPI   PO4 7236   2.079  14.524   9.972 -0.2362  0.2166  0.1330
  453loPI   GL1 7237   2.051  14.435   9.580 -0.1174  0.2456  0.0747
  453loPI   GL2 7238   2.391  14.654   9.649 -0.2053  0.2684  0.0827
  453loPI   C1A 7239   2.207  14.435   9.146  0.3438  0.2067  0.0261
  453loPI   C2A 7240   2.127  14.465   8.780  0.1562 -0.3214 -0.1360
  453loPI   C3A 7241   2.234  14.452   8.311  0.0069  0.0253 -0.1571
  453loPI   C4A 7242   2.321  14.491   7.955 -0.0876  0.1636 -0.1771
  453loPI   C5A 7243   2.488  14.393   7.571 -0.4946  0.1877  0.2527
  453loPI   C6A 7244   2.984  14.151   7.419 -0.3553  0.1638 -0.0099
  453loPI   C1B 7245   2.507  14.767   9.234 -0.0474 -0.3216 -0.1988
  453loPI   C2B 7246   2.526  14.789   8.855  0.0721 -0.2454  0.0917
  453loPI   C3B 7247   2.508  14.921   8.467 -0.1165  0.0996  0.1513
  453loPI   C4B 7248   2.539  14.934   7.973  0.0187  0.1425  0.0632
  454loPI    C1 7249  18.671   7.246  10.628  0.0915  0.0505 -0.2293
  454loPI    C2 7250  18.687   7.645  10.618  0.2710  0.0408 -0.3988
  454loPI    C3 7251  18.888   7.444  10.899 -0.2043  0.0856 -0.0142
  454loPI   PO4 7252  18.686   7.169  10.337 -0.0409  0.2899  0.0146
  454loPI   GL1 7253  18.467   7.230   9.885  0.0588 -0.0844  0.1655
  454loPI   GL2 7254  18.392   7.018   9.687 -0.0604  0.0469  0.1327
  454loPI   C1A 7255  18.549   7.473   9.434  0.3349 -0.1335 -0.1061
  454loPI   C2A 7256  18.378   7.513   9.034  0.0563 -0.1729  0.1355
  454loPI   C3A 7257  18.130   7.136   8.803  0.5385  0.3854 -0.1363
  454loPI   C4A 7258  18.327   6.672   8.785  0.1552  0.3761  0.2582
  454loPI   C5A 7259  18.750   6.500   8.902 -0.2106 -0.0287 -0.0541
  454loPI   C6A 7260  19.096   6.749   8.937 -0.3020  0.0003  0.0267
  454loPI   C1B 7261  18.139   7.154   9.335  0.1720 -0.0037  0.0463
  454loPI   C2B 7262  17.806   7.464   9.080  0.1874 -0.0527  0.1591
  454loPI   C3B 7263  17.718   7.387   8.546 -0.1029  0.2425  0.2418
  454loPI   C4B 7264  17.544   7.704   8.411  0.1584  0.0355 -0.0246
  455loPI    C1 7265  12.996   1.182   9.815  0.1176 -0.1242  0.1222
  455loPI    C2 7266  12.959   0.913  10.109  0.1110 -0.1182  0.1268
  455loPI    C3 7267  12.971   1.304  10.195 -0.2302 -0.0968  0.0937
  455loPI   PO4 7268  13.133   1.112   9.654 -0.3605  0.2006  0.3122
  455loPI   GL1 7269  13.195   0.930   9.305  0.1842  0.2009  0.0062
  455loPI   GL2 7270  13.209   0.615   9.349 -0.3040  0.1829  0.0134
  455loPI   C1A 7271  13.341   0.991   8.906 -0.0592 -0.0450 -0.0586
  455loPI   C2A 7272  13.449   1.065   8.520 -0.2068  0.2169 -0.0651
  455loPI   C3A 7273  13.632   1.254   8.286 -0.0375 -0.0458 -0.1906
  455loPI   C4A 7274  13.641   1.589   7.899 -0.0634  0.0731 -0.1504
  455loPI   C5A 7275  13.308   1.800   7.724  0.0749 -0.0622 -0.0685
  455loPI   C6A 7276  13.000   1.934   7.405 -0.1837 -0.0810 -0.0510
  455loPI   C1B 7277  13.056   0.622   8.867  0.0937  0.0958  0.0639
  455loPI   C2B 7278  13.003   0.768   8.509  0.2480  0.3469 -0.1201
  455loPI   C3B 7279  12.877   0.648   8.043  0.0985 -0.2467 -0.1705
  455loPI   C4B 7280  12.866   0.538   7.602  0.2317  0.0213  0.1459
  456loPI    C1 7281   0.268   7.522  10.210  0.0543  0.2747  0.0814
  456loPI    C2 7282  -0.044   7.425  10.441  0.0541 -0.0060 -0.0328
  456loPI    C3 7283   0.319   7.471  10.604  0.0566 -0.2160  0.0241
  456loPI   PO4 7284   0.153   7.648  10.043 -0.1467 -0.3031 -0.0011
  456loPI   GL1 7285  -0.034   7.517   9.676 -0.0535 -0.1525 -0.2314
  456loPI   GL2 7286  -0.135   7.818   9.632 -0.1064 -0.1459 -0.2900
  456loPI   C1A 7287  -0.155   7.433   9.180  0.1204 -0.1946  0.3681
  456loPI   C2A 7288  -0.366   7.543   8.752 -0.0802  0.0630 -0.4351
  456loPI   C3A 7289  -0.698   7.453   8.533 -0.1429 -0.2012  0.2018
  456loPI   C4A 7290  -1.033   7.456   8.245  0.2106  0.1575  0.1518
  456loPI   C5A 7291  -1.209   7.134   8.104  0.1837  0.2317  0.3509
  456loPI   C6A 7292  -1.195   6.654   8.259 -0.2323 -0.0894  0.2383
  456loPI   C1B 7293   0.062   7.936   9.204  0.1100 -0.1040  0.1177
  456loPI   C2B 7294  -0.065   7.937   8.749  0.2435  0.2560 -0.1580
  456loPI   C3B 7295   0.119   7.609   8.551 -0.1625 -0.2341 -0.2692
  456loPI   C4B 7296   0.407   7.282   8.342 -0.0647  0.1311  0.2448
  457loPI    C1 7297   0.911   1.420   9.934  0.1241 -0.1345  0.2194
  457loPI    C2 7298   0.564   1.326  10.111 -0.0343  0.0347  0.0031
  457loPI    C3 7299   0.748   1.671  10.199  0.0159  0.0021  0.0260
  457loPI   PO4 7300   1.009   1.236   9.804 -0.2309  0.2303  0.3932
  457loPI   GL1 7301   1.010   1.005   9.383  0.0500  0.0392 -0.1806
  457loPI   GL2 7302   1.174   0.752   9.257  0.0432  0.3963 -0.0043
  457loPI   C1A 7303   0.937   1.312   9.064  0.2822 -0.3954 -0.0321
  457loPI   C2A 7304   0.916   1.267   8.663 -0.0303 -0.0897 -0.0741
  457loPI   C3A 7305   0.975   1.278   8.250  0.4092 -0.0697 -0.1120
  457loPI   C4A 7306   1.147   1.611   7.956  0.2189  0.0203  0.3428
  457loPI   C5A 7307   1.513   1.703   7.628 -0.0429 -0.0074 -0.1285
  457loPI   C6A 7308   1.840   1.671   7.328 -0.0258 -0.2090 -0.0368
  457loPI   C1B 7309   1.224   0.940   8.837 -0.0348 -0.0667 -0.2531
  457loPI   C2B 7310   1.263   0.912   8.403  0.0066  0.1455  0.0663
  457loPI   C3B 7311   1.181   0.768   7.912 -0.0353  0.3192 -0.0517
  457loPI   C4B 7312   1.207   0.804   7.523  0.1020 -0.0169  0.3027
  458loPI    C1 7313   0.963  14.461  10.078  0.2565 -0.0408  0.1907
  458loPI    C2 7314   0.698  14.331  10.349  0.1183 -0.0440  0.0558
  458loPI    C3 7315   0.925  14.651  10.428 -0.2004  0.1956  0.0213
  458loPI   PO4 7316   0.808  14.452   9.852  0.0315  0.2884 -0.2044
  458loPI   GL1 7317   0.642  14.419   9.453 -0.1857 -0.0026  0.0997
  458loPI   GL2 7318   0.865  14.716   9.454  0.0413  0.1121  0.3100
  458loPI   C1A 7319   0.786  14.315   9.084 -0.2037  0.2328  0.0049
  458loPI   C2A 7320   0.666  14.134   8.717  0.2480 -0.1113  0.0495
  458loPI   C3A 7321   0.625  14.058   8.332  0.0057  0.2151  0.1701
  458loPI   C4A 7322   0.575  14.310   8.021  0.1915  0.1964 -0.1048
  458loPI   C5A 7323   0.279  14.367   7.747  0.6802 -0.3858 -0.1649
  458loPI   C6A 7324  -0.027  14.566   7.584 -0.0320  0.0332 -0.1053
  458loPI   C1B 7325   1.130  14.682   9.025  0.1067  0.2439  0.1437
  458loPI   C2B 7326   1.226  14.413   8.647 -0.0833 -0.1903  0.0302
  458loPI   C3B 7327   1.293  14.195   8.253  0.2262  0.1728 -0.0517
  458loPI   C4B 7328   1.428  14.248   7.827  0.1676 -0.0035  0.0336
  459loPI    C1 7329  12.257  18.897   9.478  0.0485 -0.1045  0.0742
  459loPI    C2 7330  12.214  19.092   9.824  0.0200 -0.0648  0.0483
  459loPI    C3 7331  12.419  19.260   9.525  0.0026 -0.0782  0.0287
  459loPI   PO4 7332  12.022  18.633   9.582  0.2477  0.2252  0.1037
  459loPI   GL1 7333  11.759  18.331   9.287 -0.0055 -0.4428 -0.3445
  459loPI   GL2 7334  11.614  18.634   9.209 -0.0018  0.0311  0.1723
  459loPI   C1A 7335  11.834  18.003   8.952  0.2261 -0.2487  0.0672
  459loPI   C2A 7336  12.112  17.777   8.524 -0.1379  0.0590 -0.0449
  459loPI   C3A 7337  12.109  17.568   8.136  0.3252 -0.1092 -0.0409
  459loPI   C4A 7338  12.137  17.603   7.699  0.3616  0.1149  0.4191
  459loPI   C5A 7339  12.074  17.730   7.240 -0.0897 -0.1248 -0.1500
  459loPI   C6A 7340  12.351  17.624   6.928 -0.1455 -0.0964  0.0153
  459loPI   C1B 7341  11.616  18.558   8.778 -0.0671  0.2620 -0.3152
  459loPI   C2B 7342  11.514  18.612   8.335  0.0955  0.0317 -0.1928
  459loPI   C3B 7343  11.660  18.542   7.923 -0.2224 -0.2209 -0.3139
  459loPI   C4B 7344  11.536  18.587   7.578 -0.1091  0.0392  0.0561
  460loPI    C1 7345   8.620  14.721   9.841  0.0243  0.2068  0.2044
  460loPI    C2 7346   8.860  14.403   9.801 -0.1574  0.1073 -0.1322
  460loPI    C3 7347   8.607  14.425  10.109 -0.2232 -0.1299 -0.1671
  460loPI   PO4 7348   8.542  14.757   9.556  0.2813 -0.0152 -0.2439
  460loPI   GL1 7349   8.465  14.611   9.208 -0.3293 -0.1046 -0.1321
  460loPI   GL2 7350   8.622  14.840   9.043 -0.0721 -0.2399  0.5029
  460loPI   C1A 7351   8.407  14.472   8.828  0.0861 -0.0911  0.1102
  460loPI   C2A 7352   8.264  14.308   8.417 -0.1825 -0.2279 -0.0756
  460loPI   C3A 7353   8.031  14.342   8.073  0.2612  0.0800  0.1632
  460loPI   C4A 7354   7.955  14.064   7.769 -0.2173 -0.1651 -0.1889
  460loPI   C5A 7355   8.293  14.024   7.492 -0.0423 -0.3685 -0.0743
  460loPI   C6A 7356   8.312  13.796   7.034  0.0483 -0.1831  0.0449
  460loPI   C1B 7357   8.808  14.652   8.598  0.2520 -0.2549 -0.0391
  460loPI   C2B 7358   8.579  14.688   8.249 -0.5147 -0.2613 -0.0057
  460loPI   C3B 7359   8.761  14.667   7.856  0.0474  0.0726 -0.1991
  460loPI   C4B 7360   9.127  14.812   7.617 -0.0457  0.1282 -0.1716
  461loPI    C1 7361   0.410  11.042  10.417 -0.1987 -0.1320  0.0150
  461loPI    C2 7362   0.628  10.708  10.391  0.0108 -0.0186  0.2653
  461loPI    C3 7363   0.320  10.725  10.645 -0.1596 -0.1049  0.0682
  461loPI   PO4 7364   0.429  11.155  10.166  0.0574  0.0697 -0.1719
  461loPI   GL1 7365   0.587  10.960   9.875 -0.1248  0.0380  0.1904
  461loPI   GL2 7366   0.253  10.873   9.750 -0.0185  0.4681 -0.0265
  461loPI   C1A 7367   0.736  11.155   9.546  0.1120  0.2645  0.0566
  461loPI   C2A 7368   0.915  11.369   9.170  0.0763 -0.2197  0.3922
  461loPI   C3A 7369   0.959  11.391   8.809  0.1177  0.2737 -0.1617
  461loPI   C4A 7370   0.790  11.599   8.468 -0.0397 -0.0306  0.1493
  461loPI   C5A 7371   0.655  11.627   8.086  0.3572  0.1010 -0.1171
  461loPI   C6A 7372   0.323  11.639   7.859 -0.1224 -0.1833 -0.0605
  461loPI   C1B 7373   0.352  10.833   9.350 -0.1710 -0.1420 -0.1442
  461loPI   C2B 7374   0.149  10.576   9.044  0.2822 -0.1080 -0.2338
  461loPI   C3B 7375   0.095  10.431   8.684  0.0655  0.0363  0.2936
  461loPI   C4B 7376   0.104  10.021   8.536  0.1068 -0.0345 -0.2024
  462loPI    C1 7377  19.081   1.059  10.081 -0.0523  0.0058 -0.0047
  462loPI    C2 7378  19.327   1.123  10.390  0.1294  0.0602 -0.1592
  462loPI    C3 7379  18.938   1.206  10.425  0.1567  0.1100  0.0394
  462loPI   PO4 7380  19.331   1.145   9.856  0.0374  0.2780  0.2154
  462loPI   GL1 7381  19.435   0.941   9.455  0.3467 -0.0821  0.0249
  462loPI   GL2 7382  19.427   1.018   9.181 -0.1497 -0.1806 -0.4132
  462loPI   C1A 7383  19.821   0.764   9.048  0.0339 -0.2758  0.2248
  462loPI   C2A 7384  19.917   0.619   8.614  0.5615 -0.2361 -0.2166
  462loPI   C3A 7385  20.250   0.460   8.338 -0.0707 -0.0667 -0.1081
  462loPI   C4A 7386  20.669   0.434   8.200  0.3492 -0.1386  0.0625
  462loPI   C5A 7387  21.090   0.375   8.062 -0.0276 -0.4156  0.0342
  462loPI   C6A 7388  21.498   0.347   7.844  0.1527 -0.0209  0.1964
  462loPI   C1B 7389  19.635   1.296   8.872 -0.0872 -0.1786 -0.0609
  462loPI   C2B 7390  19.586   1.341   8.446  0.0278 -0.0472 -0.2899
  462loPI   C3B 7391  19.782   1.456   7.997 -0.0503  0.0703 -0.0532
  462loPI   C4B 7392  20.072   1.236   7.783  0.1836 -0.2173 -0.1141
  463loPI    C1 7393  10.201   6.172  10.144  0.2770 -0.0636 -0.0915
  463loPI    C2 7394  10.450   6.420  10.334  0.1108 -0.0400  0.0979
  463loPI    C3 7395  10.091   6.337  10.491 -0.0606  0.0398 -0.2431
  463loPI   PO4 7396  10.217   6.288   9.828  0.1542  0.0465 -0.1540
  463loPI   GL1 7397  10.323   6.050   9.516 -0.2725  0.1768  0.2032
  463loPI   GL2 7398  10.616   6.026   9.685  0.1919 -0.2853  0.2300
  463loPI   C1A 7399  10.342   5.882   9.074 -0.0850 -0.1921  0.3965
  463loPI   C2A 7400  10.168   5.783   8.587  0.1180 -0.0045  0.0047
  463loPI   C3A 7401  10.260   5.822   8.161 -0.1657 -0.1962 -0.2684
  463loPI   C4A 7402  10.572   5.899   7.853  0.0219 -0.0714 -0.1540
  463loPI   C5A 7403  10.717   5.882   7.481  0.4428 -0.0617  0.4002
  463loPI   C6A 7404  11.157   5.782   7.323 -0.0667  0.1439  0.0431
  463loPI   C1B 7405  10.943   5.952   9.281 -0.0880  0.1524  0.1259
  463loPI   C2B 7406  11.281   6.123   8.904  0.0852  0.1439 -0.1978
  463loPI   C3B 7407  11.294   6.200   8.471  0.0027  0.3651 -0.0284
  463loPI   C4B 7408  11.145   5.963   8.162  0.1243  0.1384 -0.0213
  464loPI    C1 7409  14.691  17.598   9.974 -0.2436  0.0639 -0.0186
  464loPI    C2 7410  14.475  17.929  10.038 -0.3740 -0.0763  0.2832
  464loPI    C3 7411  14.673  17.757  10.341  0.1245  0.0194  0.0224
  464loPI   PO4 7412  14.684  17.425   9.787 -0.1006 -0.2629 -0.4308
  464loPI   GL1 7413  14.691  17.372   9.401 -0.4903  0.1660  0.1682
  464loPI   GL2 7414  14.427  17.229   9.288  0.1902 -0.2458 -0.1877
  464loPI   C1A 7415  14.957  17.705   9.174  0.2990  0.0016 -0.0014
  464loPI   C2A 7416  15.010  17.809   8.801 -0.0900  0.0246  0.0803
  464loPI   C3A 7417  14.922  17.844   8.433 -0.3496  0.1649 -0.3076
  464loPI   C4A 7418  14.811  17.798   8.083  0.2060 -0.1393  0.1147
  464loPI   C5A 7419  14.770  17.527   7.696  0.1552 -0.0771 -0.1613
  464loPI   C6A 7420  14.701  17.182   7.453 -0.1260 -0.0841  0.1990
  464loPI   C1B 7421  14.554  17.494   8.956  0.0071 -0.3194 -0.1542
  464loPI   C2B 7422  14.674  17.430   8.542  0.1333  0.2033 -0.2694
  464loPI   C3B 7423  14.452  17.421   8.126 -0.0184 -0.2774 -0.3280
  464loPI   C4B 7424  14.251  17.557   7.716  0.3028 -0.0126  0.1239
  465loPI    C1 7425  16.969  13.585  10.064  0.1667 -0.2485 -0.0085
  465loPI    C2 7426  17.032  13.241  10.257  0.0891 -0.2278  0.0539
  465loPI    C3 7427  17.338  13.486  10.182  0.1326 -0.2751  0.0764
  465loPI   PO4 7428  16.843  13.527   9.897  0.1673  0.1809  0.2883
  465loPI   GL1 7429  16.875  13.762   9.486 -0.0644 -0.1518 -0.4069
  465loPI   GL2 7430  17.112  13.999   9.342 -0.1072  0.0524 -0.0907
  465loPI   C1A 7431  16.952  13.562   9.095  0.1277  0.0773  0.3104
  465loPI   C2A 7432  17.239  13.578   8.684  0.2916 -0.1723 -0.1241
  465loPI   C3A 7433  17.365  13.451   8.313  0.1428 -0.0461  0.0541
  465loPI   C4A 7434  17.609  13.282   8.020  0.2339 -0.1833 -0.1451
  465loPI   C5A 7435  17.916  13.015   7.798  0.0235  0.2940 -0.1570
  465loPI   C6A 7436  17.867  12.936   7.433 -0.1083 -0.2098 -0.0979
  465loPI   C1B 7437  17.230  14.012   8.967 -0.0622  0.2223 -0.4196
  465loPI   C2B 7438  17.174  14.268   8.624  0.1070 -0.2775  0.1650
  465loPI   C3B 7439  17.033  14.364   8.231 -0.0018  0.1694 -0.2450
  465loPI   C4B 7440  17.122  14.521   7.779 -0.2286  0.0294 -0.0795
  466loPI    C1 7441   1.743   2.141  10.175 -0.2104  0.2142  0.0333
  466loPI    C2 7442   1.994   1.902  10.375 -0.3876 -0.0322 -0.0331
  466loPI    C3 7443   1.919   2.272  10.509  0.0750  0.0777 -0.0598
  466loPI   PO4 7444   1.739   2.128   9.916 -0.0463 -0.0678 -0.3182
  466loPI   GL1 7445   1.617   2.297   9.644  0.1778  0.1765 -0.0635
  466loPI   GL2 7446   1.499   1.979   9.508  0.1556 -0.2541 -0.0430
  466loPI   C1A 7447   1.671   2.387   9.256  0.0485 -0.3030  0.1251
  466loPI   C2A 7448   1.635   2.374   8.791 -0.0049  0.1750  0.0894
  466loPI   C3A 7449   1.598   2.140   8.532  0.0304 -0.0241  0.1295
  466loPI   C4A 7450   1.608   2.258   8.088 -0.1406  0.1234 -0.0540
  466loPI   C5A 7451   1.972   2.335   7.857  0.1203 -0.1349  0.2681
  466loPI   C6A 7452   2.035   2.223   7.427 -0.1115 -0.0378  0.0938
  466loPI   C1B 7453   1.665   1.910   9.065 -0.0264  0.1622 -0.0324
  466loPI   C2B 7454   1.814   1.765   8.690 -0.0809  0.1783  0.3454
  466loPI   C3B 7455   1.890   1.477   8.366  0.0317 -0.0904 -0.2754
  466loPI   C4B 7456   1.871   1.266   7.855 -0.2008  0.0554  0.0780
  467loPI    C1 7457   6.748  18.498   9.778 -0.0840 -0.0942  0.1535
  467loPI    C2 7458   6.645  18.122   9.865  0.0773 -0.1538  0.0908
  467loPI    C3 7459   6.691  18.390  10.159 -0.0752 -0.1722  0.1326
  467loPI   PO4 7460   6.877  18.509   9.586  0.1389  0.0696  0.0319
  467loPI   GL1 7461   6.655  18.497   9.227 -0.1195  0.5147 -0.0599
  467loPI   GL2 7462   6.561  18.213   9.347  0.0268  0.0451 -0.0333
  467loPI   C1A 7463   6.653  18.432   8.782 -0.0980 -0.0947  0.2035
  467loPI   C2A 7464   6.850  18.448   8.453  0.0721  0.0672  0.0298
  467loPI   C3A 7465   6.861  18.277   8.129 -0.1970  0.0175  0.1659
  467loPI   C4A 7466   6.943  18.248   7.683 -0.1135 -0.1511  0.1326
  467loPI   C5A 7467   6.924  18.077   7.303 -0.1664 -0.2163  0.1880
  467loPI   C6A 7468   6.577  18.062   7.031  0.1393  0.0170 -0.0494
  467loPI   C1B 7469   6.418  18.010   9.008 -0.1978 -0.0869  0.0175
  467loPI   C2B 7470   6.376  18.015   8.623  0.0085 -0.3087  0.0186
  467loPI   C3B 7471   6.461  17.886   8.275 -0.1897  0.0875  0.1382
  467loPI   C4B 7472   6.577  17.980   7.816  0.0111  0.3585  0.0491
  468loPI    C1 7473   6.400   8.165  10.083 -0.2340 -0.0134 -0.0559
  468loPI    C2 7474   6.151   8.079  10.384  0.3135  0.0600  0.4381
  468loPI    C3 7475   6.198   8.458  10.265  0.0826  0.0289  0.2382
  468loPI   PO4 7476   6.421   8.006   9.956 -0.0074  0.0980  0.0568
  468loPI   GL1 7477   6.691   7.833   9.651  0.1577  0.0957  0.2295
  468loPI   GL2 7478   6.844   7.735   9.475 -0.0172 -0.2659 -0.0629
  468loPI   C1A 7479   6.593   7.955   9.146  0.3493 -0.1049  0.0793
  468loPI   C2A 7480   6.622   8.074   8.745  0.0348 -0.3864 -0.0571
  468loPI   C3A 7481   6.709   8.180   8.358 -0.0082  0.0063 -0.0291
  468loPI   C4A 7482   6.759   8.086   7.877  0.1516  0.0402 -0.1957
  468loPI   C5A 7483   7.230   7.955   7.670 -0.1515 -0.2048 -0.0537
  468loPI   C6A 7484   7.634   8.063   7.735 -0.1160 -0.0688 -0.1325
  468loPI   C1B 7485   7.000   7.642   9.075 -0.1029  0.0039  0.1475
  468loPI   C2B 7486   6.982   7.768   8.676  0.1156 -0.2546 -0.2403
  468loPI   C3B 7487   7.210   7.940   8.377 -0.0294 -0.1590  0.0886
  468loPI   C4B 7488   7.332   8.248   8.105  0.1814 -0.1431 -0.1595
  469loPI    C1 7489  13.599   8.177  10.322  0.2693 -0.2151  0.0570
  469loPI    C2 7490  13.313   7.966  10.506  0.2689 -0.1322  0.1526
  469loPI    C3 7491  13.441   8.310  10.665  0.4708 -0.2027  0.1466
  469loPI   PO4 7492  13.486   8.137  10.022  0.1201 -0.1229 -0.0219
  469loPI   GL1 7493  13.266   8.274   9.650 -0.0189 -0.1998 -0.2171
  469loPI   GL2 7494  13.566   8.223   9.506  0.0536  0.2172  0.3543
  469loPI   C1A 7495  13.276   8.643   9.245 -0.3988 -0.3894 -0.0981
  469loPI   C2A 7496  13.495   8.871   8.873 -0.2397 -0.0069 -0.2720
  469loPI   C3A 7497  13.897   8.933   8.742  0.1188  0.0109  0.2432
  469loPI   C4A 7498  14.017   9.201   8.467  0.1230 -0.1559 -0.2078
  469loPI   C5A 7499  14.128   9.253   8.039 -0.3269  0.0570  0.1424
  469loPI   C6A 7500  14.456   9.360   7.724  0.0101  0.2961 -0.0628
  469loPI   C1B 7501  13.697   8.506   9.080 -0.2713 -0.0456  0.0193
  469loPI   C2B 7502  13.726   8.409   8.595 -0.2159 -0.0572  0.4448
  469loPI   C3B 7503  13.495   8.600   8.237 -0.1558 -0.2537  0.1425
  469loPI   C4B 7504  13.533   8.627   7.881 -0.2193  0.3566 -0.1558
  470loPI    C1 7505  10.893   6.265  10.115 -0.2489  0.3505  0.0026
  470loPI    C2 7506  10.691   5.939  10.227 -0.0456  0.2211 -0.0022
  470loPI    C3 7507  10.857   6.176  10.503  0.0289  0.1765 -0.0084
  470loPI   PO4 7508  11.048   6.253   9.893 -0.1418  0.1222 -0.0325
  470loPI   GL1 7509  11.004   6.518   9.543  0.0956  0.0839 -0.1503
  470loPI   GL2 7510  11.238   6.262   9.426 -0.1613 -0.0177 -0.2549
  470loPI   C1A 7511  10.728   6.377   9.190 -0.0389 -0.2128 -0.2651
  470loPI   C2A 7512  10.749   6.005   8.831 -0.0577  0.2244  0.0520
  470loPI   C3A 7513  10.675   5.943   8.431 -0.0554  0.0891  0.0537
  470loPI   C4A 7514  10.743   6.362   8.250 -0.1229 -0.0618 -0.0091
  470loPI   C5A 7515  11.052   6.677   8.117 -0.1260  0.0832  0.1625
  470loPI   C6A 7516  11.310   6.902   7.931 -0.3913 -0.0080 -0.2582
  470loPI   C1B 7517  11.273   6.602   9.172 -0.0574  0.2393  0.3335
  470loPI   C2B 7518  11.448   6.720   8.765 -0.1158  0.1411 -0.1526
  470loPI   C3B 7519  11.544   6.632   8.334 -0.1154  0.2061  0.1404
  470loPI   C4B 7520  11.597   6.506   7.878 -0.0375  0.2109 -0.0268
  471loPI    C1 7521  12.161  14.457   9.875 -0.3990  0.0149 -0.0250
  471loPI    C2 7522  12.263  14.144   9.649  0.0098  0.1861 -0.0858
  471loPI    C3 7523  12.088  14.085  10.003 -0.0791 -0.1030 -0.1747
  471loPI   PO4 7524  12.107  14.647   9.553  0.1760  0.0326 -0.0967
  471loPI   GL1 7525  12.181  14.477   9.140  0.1148  0.0178  0.1062
  471loPI   GL2 7526  12.105  14.088   9.159  0.0820 -0.1283  0.2188
  471loPI   C1A 7527  12.574  14.780   8.960 -0.1247  0.2096  0.2376
  471loPI   C2A 7528  12.695  14.734   8.571  0.1254  0.1944  0.3592
  471loPI   C3A 7529  12.755  14.665   8.089 -0.4127 -0.1813  0.0636
  471loPI   C4A 7530  13.003  14.692   7.606 -0.0589 -0.0531 -0.1321
  471loPI   C5A 7531  13.074  14.764   7.154 -0.1595 -0.1823 -0.0902
  471loPI   C6A 7532  12.928  14.981   6.967  0.0664 -0.2110  0.1261
  471loPI   C1B 7533  12.142  14.128   8.688 -0.0724 -0.0323 -0.1109
  471loPI   C2B 7534  12.021  14.089   8.294 -0.0577 -0.0360 -0.0282
  471loPI   C3B 7535  12.045  14.054   7.889  0.1616  0.3319  0.0437
  471loPI   C4B 7536  12.418  13.872   7.588  0.1259 -0.0967  0.2780
  472loPI    C1 7537  19.103   0.493   9.938  0.0791 -0.0308  0.1190
  472loPI    C2 7538  19.036   0.624  10.310 -0.0014  0.1313  0.0488
  472loPI    C3 7539  18.817   0.324  10.161  0.1611 -0.0645  0.1989
  472loPI   PO4 7540  19.187   0.624   9.796 -0.3246 -0.1910  0.0608
  472loPI   GL1 7541  19.113   0.583   9.339  0.1286  0.3177 -0.3983
  472loPI   GL2 7542  18.911   0.422   9.088  0.0242 -0.1699 -0.0857
  472loPI   C1A 7543  19.396   0.540   9.038  0.3080 -0.3020 -0.0278
  472loPI   C2A 7544  19.463   0.823   8.731  0.0351 -0.0887 -0.0812
  472loPI   C3A 7545  19.577   0.906   8.259 -0.3693 -0.0282 -0.0005
  472loPI   C4A 7546  19.461   1.077   7.810  0.0373  0.0166  0.1159
  472loPI   C5A 7547  19.144   1.020   7.514 -0.1468 -0.0729  0.0299
  472loPI   C6A 7548  18.744   1.026   7.386  0.0125 -0.3788 -0.1366
  472loPI   C1B 7549  18.963   0.588   8.666  0.2285 -0.1828  0.1099
  472loPI   C2B 7550  19.252   0.536   8.322  0.2381 -0.2814  0.1905
  472loPI   C3B 7551  19.303   0.577   7.887  0.0571 -0.1127 -0.0352
  472loPI   C4B 7552  19.518   0.387   7.548 -0.2969 -0.3298  0.0796
  473loPI    C1 7553   7.371   8.810  10.346  0.0989  0.1552  0.1930
  473loPI    C2 7554   7.018   8.983  10.274  0.0226 -0.0854 -0.0262
  473loPI    C3 7555   7.138   8.924  10.651 -0.0377  0.2605  0.0505
  473loPI   PO4 7556   7.534   8.968  10.144  0.0562  0.1634  0.1687
  473loPI   GL1 7557   7.558   8.916   9.706 -0.1687  0.1236  0.3442
  473loPI   GL2 7558   7.793   8.919   9.502 -0.0531  0.1981  0.2082
  473loPI   C1A 7559   7.242   8.932   9.291  0.0103  0.4995 -0.0729
  473loPI   C2A 7560   7.162   8.812   8.886  0.0414  0.1605  0.0331
  473loPI   C3A 7561   7.469   8.864   8.627  0.2710  0.0649 -0.1555
  473loPI   C4A 7562   7.366   8.820   8.246 -0.1649  0.1921  0.0420
  473loPI   C5A 7563   7.666   8.941   7.958  0.0566 -0.0439 -0.0715
  473loPI   C6A 7564   7.884   8.854   7.571  0.1731  0.2740 -0.2459
  473loPI   C1B 7565   7.712   8.964   9.068  0.0345  0.1403 -0.0421
  473loPI   C2B 7566   7.633   9.295   8.796 -0.0051 -0.0971  0.0001
  473loPI   C3B 7567   7.655   9.620   9.007 -0.0119  0.1154 -0.1038
  473loPI   C4B 7568   7.430   9.914   9.360  0.0632  0.3453  0.1814
  474loPI    C1 7569   3.764   3.539   9.952 -0.0804 -0.3093  0.0533
  474loPI    C2 7570   4.038   3.764  10.138  0.0821 -0.2438 -0.2587
  474loPI    C3 7571   3.793   3.531  10.351  0.0658  0.0515  0.0540
  474loPI   PO4 7572   3.839   3.391   9.814  0.0769 -0.0452 -0.0995
  474loPI   GL1 7573   4.042   3.222   9.407  0.1213  0.1905  0.2455
  474loPI   GL2 7574   4.187   3.475   9.239 -0.0415 -0.2637 -0.1057
  474loPI   C1A 7575   4.179   2.989   9.067 -0.1768 -0.2336  0.3556
  474loPI   C2A 7576   4.387   3.033   8.747 -0.0530  0.1791 -0.2291
  474loPI   C3A 7577   4.459   3.013   8.327  0.0220 -0.3471  0.0106
  474loPI   C4A 7578   4.289   3.220   8.005  0.1843  0.0062 -0.3091
  474loPI   C5A 7579   4.239   3.264   7.506 -0.1130  0.0881  0.3028
  474loPI   C6A 7580   4.213   2.928   7.187  0.1932 -0.1086 -0.3558
  474loPI   C1B 7581   4.116   3.451   8.877 -0.0605  0.3674  0.0968
  474loPI   C2B 7582   4.088   3.318   8.437  0.0655  0.0108  0.0399
  474loPI   C3B 7583   3.840   3.420   8.066  0.3507 -0.1100 -0.0641
  474loPI   C4B 7584   3.993   3.790   7.682  0.2250 -0.2628  0.0815
  475loPI    C1 7585   5.274   5.894   9.938  0.0253 -0.2718  0.0989
  475loPI    C2 7586   5.533   5.870  10.242 -0.0104 -0.0707  0.1470
  475loPI    C3 7587   5.147   5.950  10.313  0.0083  0.1211  0.0392
  475loPI   PO4 7588   5.349   6.054   9.751  0.3113 -0.2785 -0.1850
  475loPI   GL1 7589   5.224   6.175   9.439 -0.1798 -0.0898 -0.1415
  475loPI   GL2 7590   4.891   6.136   9.496  0.2381  0.0938  0.3262
  475loPI   C1A 7591   5.178   6.568   9.244  0.1833 -0.0918 -0.1302
  475loPI   C2A 7592   5.138   6.812   8.956  0.0362  0.1139  0.0630
  475loPI   C3A 7593   5.054   6.890   8.539  0.0329  0.1435  0.1026
  475loPI   C4A 7594   5.180   7.067   8.151  0.0631 -0.2013  0.0158
  475loPI   C5A 7595   5.340   6.835   7.876 -0.0428  0.1855 -0.2555
  475loPI   C6A 7596   5.518   6.709   7.416  0.1363 -0.1317 -0.1370
  475loPI   C1B 7597   4.958   6.179   8.973  0.0423  0.0471 -0.1271
  475loPI   C2B 7598   4.901   6.420   8.641  0.3178  0.1436 -0.0719
  475loPI   C3B 7599   5.072   6.433   8.143  0.0482 -0.2590 -0.0812
  475loPI   C4B 7600   5.309   6.369   7.761  0.1583  0.0788 -0.2272
  476loPI    C1 7601   6.124  19.066   9.843  0.3728  0.2224 -0.3187
  476loPI    C2 7602   6.201  18.673   9.837 -0.1452  0.1005  0.1307
  476loPI    C3 7603   6.477  18.930   9.972  0.2260 -0.0929 -0.2385
  476loPI   PO4 7604   6.080  19.093   9.601 -0.1907 -0.1359  0.1750
  476loPI   GL1 7605   6.048  19.165   9.222  0.3892 -0.0801  0.1724
  476loPI   GL2 7606   5.713  19.116   9.214  0.3817 -0.2102  0.3820
  476loPI   C1A 7607   6.233  18.993   8.847 -0.0204  0.2259  0.1115
  476loPI   C2A 7608   6.159  18.869   8.487  0.3464  0.1733 -0.0488
  476loPI   C3A 7609   6.055  18.711   8.037 -0.2511 -0.0653  0.4203
  476loPI   C4A 7610   5.992  18.557   7.626 -0.0080 -0.1625  0.2691
  476loPI   C5A 7611   5.626  18.530   7.443 -0.2701 -0.0435  0.0194
  476loPI   C6A 7612   5.275  18.259   7.477 -0.2865  0.2359  0.0091
  476loPI   C1B 7613   5.481  19.535   9.047 -0.2961  0.1927  0.1972
  476loPI   C2B 7614   5.299  19.804   8.940  0.0005  0.0956 -0.2826
  476loPI   C3B 7615   5.065  19.914   8.603 -0.1280  0.0139  0.1727
  476loPI   C4B 7616   4.911  19.597   8.304  0.1502 -0.1860 -0.2027
  477loPI    C1 7617   3.186  18.000  10.198  0.1437 -0.0974 -0.1355
  477loPI    C2 7618   3.327  17.716  10.442 -0.0294 -0.0558  0.0157
  477loPI    C3 7619   3.044  17.967  10.571  0.2502  0.3035 -0.0548
  477loPI   PO4 7620   3.348  18.025  10.037 -0.0029  0.2046  0.1192
  477loPI   GL1 7621   3.511  17.878   9.633 -0.4537  0.1389 -0.0664
  477loPI   GL2 7622   3.452  18.197   9.585  0.1203 -0.0922 -0.0235
  477loPI   C1A 7623   3.434  17.519   9.320  0.2870 -0.0601  0.0775
  477loPI   C2A 7624   3.460  17.300   8.947  0.1267  0.2511  0.3073
  477loPI   C3A 7625   3.520  17.170   8.529  0.1745  0.3022 -0.0974
  477loPI   C4A 7626   3.320  17.185   8.121 -0.0489 -0.0737 -0.1018
  477loPI   C5A 7627   3.071  16.827   7.857 -0.1880 -0.1584  0.0857
  477loPI   C6A 7628   3.008  16.470   7.677  0.0582 -0.0859  0.1121
  477loPI   C1B 7629   3.545  18.268   9.161  0.0233 -0.0331  0.1000
  477loPI   C2B 7630   3.574  18.470   8.826  0.3385 -0.1437  0.1722
  477loPI   C3B 7631   3.465  18.398   8.393 -0.0173  0.1736 -0.1594
  477loPI   C4B 7632   3.505  18.516   7.998 -0.3390 -0.4198  0.0668
  478loPI    C1 7633   5.236  18.307   9.798  0.0798 -0.0274 -0.0877
  478loPI    C2 7634   5.004  17.998   9.903  0.2539 -0.1975 -0.1992
  478loPI    C3 7635   5.146  18.245  10.183 -0.0608 -0.0913 -0.1299
  478loPI   PO4 7636   5.460  18.247   9.623  0.1235  0.0003  0.0950
  478loPI   GL1 7637   5.485  18.001   9.287 -0.1517  0.0262  0.2436
  478loPI   GL2 7638   5.792  17.973   9.308  0.1500  0.4149 -0.1271
  478loPI   C1A 7639   5.567  17.774   8.877  0.2761 -0.1008 -0.0460
  478loPI   C2A 7640   5.372  17.924   8.538  0.2287 -0.2972  0.0461
  478loPI   C3A 7641   5.382  17.895   8.137 -0.0506 -0.1447  0.1412
  478loPI   C4A 7642   5.235  17.798   7.649  0.1141  0.0323 -0.0329
  478loPI   C5A 7643   5.583  17.937   7.342 -0.2006 -0.1372 -0.1734
  478loPI   C6A 7644   5.926  17.709   7.304  0.0671  0.2259 -0.0462
  478loPI   C1B 7645   5.773  18.190   8.984  0.1276  0.0033  0.0917
  478loPI   C2B 7646   5.885  18.168   8.656 -0.0367  0.1198  0.0237
  478loPI   C3B 7647   5.747  18.152   8.302  0.2415  0.3386 -0.1924
  478loPI   C4B 7648   5.524  18.347   7.931 -0.0460 -0.0312  0.5312
  479loPI    C1 7649   6.681   8.569  10.118 -0.0150  0.0488 -0.2119
  479loPI    C2 7650   6.961   8.492  10.393 -0.1199 -0.1004 -0.1455
  479loPI    C3 7651   6.653   8.730  10.483 -0.1464 -0.1373 -0.1388
  479loPI   PO4 7652   6.755   8.575   9.927  0.0184 -0.0205  0.1097
  479loPI   GL1 7653   6.659   8.343   9.562  0.0998 -0.0938 -0.3601
  479loPI   GL2 7654   7.048   8.300   9.595 -0.2131  0.0656  0.1088
  479loPI   C1A 7655   6.621   8.475   9.112  0.1706 -0.0778 -0.2290
  479loPI   C2A 7656   6.625   8.605   8.668  0.2957  0.4434  0.0310
  479loPI   C3A 7657   6.467   8.716   8.297  0.0953 -0.0489 -0.1695
  479loPI   C4A 7658   6.398   8.536   7.953  0.0459 -0.4343  0.0684
  479loPI   C5A 7659   6.307   8.693   7.588 -0.2317 -0.1843  0.3417
  479loPI   C6A 7660   6.389   9.120   7.388 -0.3226 -0.2031  0.0289
  479loPI   C1B 7661   7.073   8.412   9.265 -0.0155 -0.1075  0.1970
  479loPI   C2B 7662   7.087   8.262   8.801 -0.3614 -0.0242  0.0764
  479loPI   C3B 7663   7.035   8.540   8.471  0.0814  0.0631  0.0369
  479loPI   C4B 7664   6.902   8.525   8.009 -0.2772 -0.2136 -0.2942
  480loPI    C1 7665  11.853   3.784  10.141  0.0942 -0.1403  0.2765
  480loPI    C2 7666  12.178   4.016  10.123  0.0806 -0.1243  0.2354
  480loPI    C3 7667  12.110   3.790  10.446  0.0877 -0.0621  0.2806
  480loPI   PO4 7668  11.854   3.649   9.846 -0.1646  0.1270  0.0038
  480loPI   GL1 7669  11.825   3.384   9.541 -0.0420  0.4115  0.0802
  480loPI   GL2 7670  12.167   3.499   9.420  0.0885  0.0303 -0.1853
  480loPI   C1A 7671  11.602   3.377   9.154  0.6470  0.1450  0.2505
  480loPI   C2A 7672  11.726   3.397   8.726 -0.0624  0.2208 -0.0910
  480loPI   C3A 7673  11.544   3.375   8.384  0.2321 -0.1600  0.3160
  480loPI   C4A 7674  11.199   3.265   8.061 -0.0599  0.0688 -0.0390
  480loPI   C5A 7675  11.228   2.899   7.695  0.2682 -0.2323  0.0942
  480loPI   C6A 7676  11.484   2.630   7.433 -0.1045  0.1749  0.1804
  480loPI   C1B 7677  12.119   3.572   8.913 -0.2864 -0.1351  0.0165
  480loPI   C2B 7678  12.243   3.556   8.455  0.2617  0.0685  0.2091
  480loPI   C3B 7679  12.507   3.492   8.029  0.6392  0.0216  0.1387
  480loPI   C4B 7680  12.479   3.469   7.598 -0.2219 -0.2131 -0.0888
  481loPI    C1 7681   5.140  10.010  10.090  0.0359  0.2121 -0.1037
  481loPI    C2 7682   4.872   9.801  10.301 -0.0864  0.2337 -0.2360
  481loPI    C3 7683   5.053  10.117  10.465  0.0658  0.0530 -0.0506
  481loPI   PO4 7684   5.353   9.832   9.941 -0.1522 -0.2657  0.0244
  481loPI   GL1 7685   5.365   9.575   9.641 -0.2022 -0.0478  0.0884
  481loPI   GL2 7686   5.165   9.326   9.561  0.2764 -0.0140  0.0384
  481loPI   C1A 7687   5.120   9.749   9.320  0.1900  0.0038  0.0281
  481loPI   C2A 7688   4.849   9.650   8.852 -0.0827 -0.1557  0.1051
  481loPI   C3A 7689   4.569   9.483   8.447  0.2791 -0.0319 -0.0026
  481loPI   C4A 7690   4.314   9.317   8.071  0.0231  0.0524  0.0962
  481loPI   C5A 7691   4.130   9.255   7.715 -0.0784  0.1845  0.1058
  481loPI   C6A 7692   3.816   9.224   7.366 -0.0715 -0.0088  0.2874
  481loPI   C1B 7693   5.382   9.354   9.185 -0.1302  0.0804 -0.0529
  481loPI   C2B 7694   5.394   9.476   8.670 -0.2115 -0.1182  0.1383
  481loPI   C3B 7695   5.051   9.632   8.389 -0.3460 -0.5260 -0.2795
  481loPI   C4B 7696   5.025   9.953   7.992 -0.0378 -0.2129 -0.1119
  482loPI    C1 7697   6.322   9.835   9.907  0.0819 -0.2921  0.0639
  482loPI    C2 7698   6.602  10.005  10.136 -0.1203 -0.0900  0.1651
  482loPI    C3 7699   6.404   9.683  10.267  0.1290 -0.2921  0.0533
  482loPI   PO4 7700   6.198  10.145   9.755 -0.2731  0.3437  0.2929
  482loPI   GL1 7701   6.064  10.570   9.504  0.3802  0.1360  0.0794
  482loPI   GL2 7702   5.852  10.403   9.505 -0.1432 -0.2255  0.0408
  482loPI   C1A 7703   6.132  10.570   9.000 -0.1289 -0.0670  0.1181
  482loPI   C2A 7704   6.542  10.464   8.824  0.1307 -0.0012 -0.0080
  482loPI   C3A 7705   6.777  10.130   8.607 -0.2320 -0.1117  0.0421
  482loPI   C4A 7706   7.164  10.097   8.298  0.1399  0.0844 -0.1288
  482loPI   C5A 7707   7.454  10.392   8.078 -0.1582  0.1256  0.1078
  482loPI   C6A 7708   7.431  10.838   7.782  0.1530  0.0453 -0.1510
  482loPI   C1B 7709   5.711  10.358   9.098  0.0285  0.2851 -0.0500
  482loPI   C2B 7710   5.816  10.365   8.708 -0.0444  0.0259 -0.1494
  482loPI   C3B 7711   5.938  10.419   8.286  0.0811 -0.1183  0.2271
  482loPI   C4B 7712   5.751  10.789   8.059  0.2752  0.1120  0.1433
  483loPI    C1 7713  16.477   2.101   9.802  0.2334 -0.1818  0.1760
  483loPI    C2 7714  16.374   2.187  10.179 -0.1024  0.0471  0.0377
  483loPI    C3 7715  16.668   1.925  10.106 -0.1046 -0.0788  0.4547
  483loPI   PO4 7716  16.249   1.936   9.641  0.1205  0.0969 -0.1729
  483loPI   GL1 7717  16.061   1.970   9.217 -0.0425  0.1704  0.1950
  483loPI   GL2 7718  16.252   2.020   8.907  0.0758  0.1921  0.0427
  483loPI   C1A 7719  15.729   1.941   8.809  0.2147 -0.0659  0.1353
  483loPI   C2A 7720  15.730   2.085   8.290 -0.0312 -0.1582 -0.2475
  483loPI   C3A 7721  15.556   2.337   7.977 -0.0090 -0.1507  0.0934
  483loPI   C4A 7722  15.431   2.754   7.902  0.1095  0.1940  0.3426
  483loPI   C5A 7723  15.374   2.881   7.437  0.0905  0.1762  0.3042
  483loPI   C6A 7724  15.412   3.192   7.248  0.3180 -0.0894 -0.3306
  483loPI   C1B 7725  16.178   2.010   8.524 -0.1797 -0.0831  0.0629
  483loPI   C2B 7726  16.200   1.956   8.097  0.0921  0.1198  0.3968
  483loPI   C3B 7727  16.092   2.103   7.689 -0.0856 -0.0045  0.1150
  483loPI   C4B 7728  15.951   2.252   7.296 -0.2236 -0.4423  0.1487
  484loPI    C1 7729   3.415   8.286  10.515  0.1523  0.0392 -0.0934
  484loPI    C2 7730   3.368   8.666  10.400  0.1796  0.0490 -0.0721
  484loPI    C3 7731   3.463   8.583  10.780 -0.0072  0.0119 -0.0326
  484loPI   PO4 7732   3.168   8.231  10.280 -0.0638  0.2600 -0.1172
  484loPI   GL1 7733   3.212   8.151   9.816 -0.1091  0.0161  0.5348
  484loPI   GL2 7734   2.911   8.285   9.701 -0.0862  0.0962 -0.0677
  484loPI   C1A 7735   3.507   8.161   9.500 -0.3101  0.0356  0.3360
  484loPI   C2A 7736   3.773   7.950   9.265 -0.3234 -0.0865  0.1231
  484loPI   C3A 7737   3.557   7.973   8.872  0.4056 -0.0224 -0.3423
  484loPI   C4A 7738   3.465   8.400   8.557 -0.1405 -0.2213  0.0212
  484loPI   C5A 7739   3.637   8.521   8.160 -0.3602 -0.1809 -0.1235
  484loPI   C6A 7740   3.590   8.576   7.719 -0.1037 -0.0875  0.0692
  484loPI   C1B 7741   3.048   8.063   9.278 -0.0181 -0.1040  0.2064
  484loPI   C2B 7742   3.245   8.302   9.002  0.2034  0.2785  0.2207
  484loPI   C3B 7743   3.234   8.726   8.939  0.3006  0.5624  0.3293
  484loPI   C4B 7744   2.999   8.724   8.473 -0.1535  0.2672 -0.4607
  485loPI    C1 7745  18.331  14.345  10.231 -0.1560  0.1286 -0.0629
  485loPI    C2 7746  18.566  14.336   9.908  0.0852 -0.0371  0.1129
  485loPI    C3 7747  18.681  14.539  10.233 -0.0775 -0.0108  0.1550
  485loPI   PO4 7748  18.081  14.432  10.053 -0.2105 -0.0349 -0.1382
  485loPI   GL1 7749  17.989  14.519   9.621  0.2241 -0.2608  0.2801
  485loPI   GL2 7750  18.197  14.277   9.545 -0.0156 -0.1967 -0.2043
  485loPI   C1A 7751  17.940  14.638   9.218  0.2461 -0.2753  0.0516
  485loPI   C2A 7752  17.907  14.773   8.867  0.0480 -0.1641  0.2608
  485loPI   C3A 7753  17.611  14.729   8.481 -0.2048 -0.0182 -0.0842
  485loPI   C4A 7754  17.501  14.553   8.276 -0.2375 -0.1139  0.3188
  485loPI   C5A 7755  17.500  14.250   7.880 -0.3128 -0.1707 -0.2759
  485loPI   C6A 7756  17.834  13.999   7.618  0.4081 -0.1829  0.0805
  485loPI   C1B 7757  18.477  14.249   9.092  0.0581  0.5674 -0.3310
  485loPI   C2B 7758  18.226  14.324   8.746 -0.2939  0.3003  0.0036
  485loPI   C3B 7759  18.080  14.496   8.455  0.3046 -0.0581  0.1429
  485loPI   C4B 7760  18.103  14.728   8.005  0.1341  0.2119 -0.0510
  486loPI    C1 7761   8.733   0.784   9.654  0.0161 -0.1900 -0.0629
  486loPI    C2 7762   8.679   1.123   9.449  0.2842 -0.0268  0.1287
  486loPI    C3 7763   8.368   0.945   9.628  0.1819  0.2551  0.2377
  486loPI   PO4 7764   8.931   0.637   9.527  0.3161 -0.2472  0.3371
  486loPI   GL1 7765   8.891   0.619   9.099 -0.0754 -0.1703  0.2223
  486loPI   GL2 7766   8.720   0.886   9.002  0.0055  0.0049 -0.1214
  486loPI   C1A 7767   9.013   0.809   8.645  0.1873 -0.0358  0.2004
  486loPI   C2A 7768   8.982   0.751   8.226 -0.0503 -0.0645  0.2480
  486loPI   C3A 7769   8.919   0.436   7.988  0.3571 -0.0471  0.4715
  486loPI   C4A 7770   8.900   0.254   7.564 -0.3853 -0.0521 -0.0628
  486loPI   C5A 7771   8.628  -0.086   7.553  0.4362  0.2416 -0.0044
  486loPI   C6A 7772   8.742  -0.547   7.554 -0.0918  0.0532 -0.1252
  486loPI   C1B 7773   8.470   1.131   8.834  0.1409  0.1013  0.1100
  486loPI   C2B 7774   8.172   1.083   8.469  0.1927 -0.2928  0.2137
  486loPI   C3B 7775   8.114   1.334   8.093 -0.1979  0.0245 -0.2218
  486loPI   C4B 7776   8.136   1.543   7.749  0.0094 -0.3538  0.0533
  487loPI    C1 7777   8.526  12.388   9.908 -0.0404 -0.2299  0.2573
  487loPI    C2 7778   8.682  12.040   9.786  0.1619 -0.0979  0.1350
  487loPI    C3 7779   8.919  12.358   9.840 -0.0420  0.0609  0.1072
  487loPI   PO4 7780   8.257  12.350   9.809 -0.2473 -0.0924 -0.2352
  487loPI   GL1 7781   8.147  12.203   9.507  0.0202 -0.1869  0.1652
  487loPI   GL2 7782   8.288  11.926   9.411 -0.0360  0.1372 -0.0136
  487loPI   C1A 7783   8.231  12.468   9.038 -0.0401 -0.0855 -0.0820
  487loPI   C2A 7784   8.142  12.645   8.618 -0.1994  0.4549 -0.1214
  487loPI   C3A 7785   8.208  12.494   8.255 -0.3866 -0.0368 -0.0987
  487loPI   C4A 7786   7.864  12.271   8.024 -0.1310  0.0702 -0.1571
  487loPI   C5A 7787   7.824  11.849   7.780 -0.1260  0.1450 -0.0599
  487loPI   C6A 7788   7.971  11.395   7.593 -0.0050  0.0769  0.0446
  487loPI   C1B 7789   8.471  11.993   9.008 -0.2076  0.1845 -0.0955
  487loPI   C2B 7790   8.493  11.772   8.585  0.0802 -0.2450  0.0675
  487loPI   C3B 7791   8.476  11.512   8.164 -0.0645  0.2848 -0.1609
  487loPI   C4B 7792   8.395  11.250   7.839 -0.0309  0.1433 -0.0706
  488loPI    C1 7793  12.776   6.445  10.149 -0.1509  0.3458 -0.1115
  488loPI    C2 7794  12.808   6.615  10.509  0.2776 -0.0143  0.0306
  488loPI    C3 7795  12.604   6.274  10.467  0.0358  0.1454 -0.1154
  488loPI   PO4 7796  12.662   6.617   9.983 -0.0030  0.0240  0.3079
  488loPI   GL1 7797  12.439   6.709   9.570  0.0952 -0.0709  0.0071
  488loPI   GL2 7798  12.327   7.082   9.543 -0.3665  0.3826 -0.0184
  488loPI   C1A 7799  12.430   6.842   9.051 -0.0620  0.1335  0.2690
  488loPI   C2A 7800  12.420   6.712   8.603  0.3543  0.0839 -0.1707
  488loPI   C3A 7801  12.111   6.592   8.209 -0.0543  0.0024 -0.1538
  488loPI   C4A 7802  12.128   6.254   7.923 -0.0581 -0.1299 -0.1906
  488loPI   C5A 7803  12.126   5.901   7.610  0.1673 -0.0087  0.4139
  488loPI   C6A 7804  11.878   5.622   7.362  0.2103 -0.0383 -0.2627
  488loPI   C1B 7805  12.358   7.370   9.115 -0.0619 -0.0638  0.1701
  488loPI   C2B 7806  12.327   7.322   8.667 -0.2010  0.0683 -0.1026
  488loPI   C3B 7807  12.426   7.136   8.257 -0.1589  0.3751 -0.0817
  488loPI   C4B 7808  12.230   7.046   7.882  0.1830 -0.1300 -0.2055
  489loPI    C1 7809   9.338   8.838  10.235  0.0604 -0.1226  0.0777
  489loPI    C2 7810   9.402   8.997  10.596  0.1107  0.1011 -0.0278
  489loPI    C3 7811   9.074   9.095  10.390  0.0551 -0.0678 -0.0217
  489loPI   PO4 7812   9.467   8.861  10.010  0.0863  0.1102 -0.3746
  489loPI   GL1 7813   9.524   8.722   9.625 -0.2183  0.0973  0.1221
  489loPI   GL2 7814   9.235   8.926   9.470 -0.0249  0.0941  0.3769
  489loPI   C1A 7815   9.718   8.853   9.270  0.0914  0.1746  0.0676
  489loPI   C2A 7816   9.456   8.978   8.923 -0.0122 -0.0882 -0.3928
  489loPI   C3A 7817   9.486   9.007   8.568  0.0686 -0.2568  0.2672
  489loPI   C4A 7818   9.719   9.159   8.269 -0.2575  0.0419 -0.1675
  489loPI   C5A 7819   9.686   9.250   7.865 -0.0108  0.1937  0.3864
  489loPI   C6A 7820   9.471   9.302   7.448  0.1677 -0.0259  0.2287
  489loPI   C1B 7821   9.047   8.718   9.173  0.1641 -0.1894  0.0418
  489loPI   C2B 7822   9.159   8.635   8.730 -0.2193 -0.0347 -0.1171
  489loPI   C3B 7823   9.229   8.744   8.247 -0.2855  0.2287  0.3378
  489loPI   C4B 7824   9.142   8.590   7.814 -0.0274 -0.0496  0.0561
  490loPI    C1 7825   2.136  10.457  10.260 -0.5654  0.1000 -0.0395
  490loPI    C2 7826   2.447  10.234  10.376  0.0446  0.7919 -0.2622
  490loPI    C3 7827   2.125  10.266  10.611  0.0630 -0.0536 -0.0905
  490loPI   PO4 7828   2.189  10.435   9.968  0.1944 -0.0744 -0.1892
  490loPI   GL1 7829   2.366  10.619   9.577  0.2323 -0.3988  0.1565
  490loPI   GL2 7830   2.465  10.321   9.562 -0.1028  0.1867 -0.0119
  490loPI   C1A 7831   2.175  10.478   9.185  0.1280  0.0682 -0.1162
  490loPI   C2A 7832   2.096  10.591   8.805  0.0854  0.0441 -0.0144
  490loPI   C3A 7833   2.222  10.800   8.393 -0.5788 -0.2041 -0.0332
  490loPI   C4A 7834   2.166  10.736   8.071 -0.3323  0.0290  0.0167
  490loPI   C5A 7835   2.189  10.471   7.849 -0.0186 -0.0306 -0.2035
  490loPI   C6A 7836   2.137   9.999   7.806  0.2320 -0.0082  0.3422
  490loPI   C1B 7837   2.416   9.957   9.253  0.0994  0.4166 -0.0118
  490loPI   C2B 7838   2.211   9.979   8.988 -0.0541 -0.0547 -0.4791
  490loPI   C3B 7839   1.869  10.146   8.952  0.3676 -0.0409  0.0087
  490loPI   C4B 7840   1.660  10.306   8.689  0.1269  0.0524  0.2424
  491loPI    C1 7841  15.241   9.075  10.338 -0.0292  0.0396 -0.0648
  491loPI    C2 7842  14.917   9.056  10.572 -0.0470 -0.0760 -0.0982
  491loPI    C3 7843  15.266   9.178  10.724 -0.1183  0.1023 -0.0755
  491loPI   PO4 7844  15.095   9.129  10.120 -0.3634  0.2196 -0.2344
  491loPI   GL1 7845  15.103   9.262   9.756 -0.1365 -0.0450  0.2947
  491loPI   GL2 7846  15.279   9.353   9.551 -0.0614 -0.0986  0.1322
  491loPI   C1A 7847  14.862   9.026   9.442 -0.1439 -0.3060  0.0283
  491loPI   C2A 7848  14.777   8.894   8.955  0.0891 -0.1281  0.0397
  491loPI   C3A 7849  14.808   8.717   8.499  0.1160 -0.1027 -0.4008
  491loPI   C4A 7850  15.062   8.597   8.157 -0.0117  0.1049  0.3547
  491loPI   C5A 7851  15.245   8.351   7.897  0.1073  0.2622 -0.2998
  491loPI   C6A 7852  15.254   8.052   7.664  0.1584 -0.0577 -0.2212
  491loPI   C1B 7853  15.036   9.594   9.360  0.2505 -0.3622  0.3723
  491loPI   C2B 7854  15.236   9.693   8.957  0.0843 -0.2493 -0.0593
  491loPI   C3B 7855  15.258   9.744   8.512  0.2464  0.0825 -0.3226
  491loPI   C4B 7856  15.192   9.673   8.026  0.0802 -0.0961  0.1544
  492loPI    C1 7857  17.550  18.144   9.542 -0.2642 -0.0278 -0.2736
  492loPI    C2 7858  17.389  18.305   9.871  0.2776  0.0617 -0.0416
  492loPI    C3 7859  17.516  17.926   9.876 -0.0217 -0.0448 -0.2581
  492loPI   PO4 7860  17.399  18.258   9.341 -0.1085  0.1242  0.2812
  492loPI   GL1 7861  17.337  18.359   8.985 -0.0712  0.0048 -0.3585
  492loPI   GL2 7862  17.163  17.993   8.968 -0.0003 -0.1855  0.2037
  492loPI   C1A 7863  17.387  18.501   8.558 -0.0394 -0.0310  0.3465
  492loPI   C2A 7864  17.377  18.240   8.211  0.0904 -0.1169 -0.1437
  492loPI   C3A 7865  17.479  18.299   7.843 -0.0496 -0.1472  0.3538
  492loPI   C4A 7866  17.647  18.575   7.460 -0.0724 -0.1605  0.1616
  492loPI   C5A 7867  17.950  18.949   7.176  0.1554 -0.0354  0.0625
  492loPI   C6A 7868  18.135  19.251   7.384  0.0126 -0.1011 -0.1918
  492loPI   C1B 7869  17.428  17.926   8.617  0.0076 -0.1328 -0.3534
  492loPI   C2B 7870  17.404  17.742   8.197  0.0396 -0.1717 -0.0389
  492loPI   C3B 7871  17.237  17.587   7.799 -0.1497 -0.2136 -0.0836
  492loPI   C4B 7872  16.972  17.637   7.444 -0.2408  0.0180 -0.0388
  493loPI    C1 7873   5.717  13.408   9.653 -0.2032 -0.0544 -0.0528
  493loPI    C2 7874   5.640  13.474  10.040  0.0549 -0.0583  0.0008
  493loPI    C3 7875   5.406  13.636   9.759  0.0132  0.1515  0.1535
  493loPI   PO4 7876   5.999  13.381   9.602  0.2601  0.0903  0.2890
  493loPI   GL1 7877   6.022  13.244   9.158 -0.0940  0.1189  0.0060
  493loPI   GL2 7878   6.347  13.433   9.100  0.3196 -0.3202 -0.3209
  493loPI   C1A 7879   5.859  13.231   8.803 -0.1198  0.1511 -0.0337
  493loPI   C2A 7880   5.860  13.084   8.432 -0.1915 -0.3894  0.2165
  493loPI   C3A 7881   5.972  13.014   8.074 -0.1494  0.0677 -0.1903
  493loPI   C4A 7882   5.740  13.132   7.641  0.0076  0.0895 -0.0477
  493loPI   C5A 7883   5.962  13.192   7.233  0.1026  0.0884 -0.3397
  493loPI   C6A 7884   6.245  13.456   7.047  0.0413  0.2519  0.2227
  493loPI   C1B 7885   6.336  13.473   8.745  0.0537  0.1661  0.0176
  493loPI   C2B 7886   6.184  13.578   8.403  0.1134 -0.3733  0.0035
  493loPI   C3B 7887   5.919  13.493   8.173  0.0600  0.1719  0.1256
  493loPI   C4B 7888   5.993  13.557   7.763 -0.0982  0.1703 -0.2115
  494loPI    C1 7889  13.660   8.796  10.230  0.0427  0.1221  0.0192
  494loPI    C2 7890  13.287   8.833  10.372  0.0058 -0.3927  0.0750
  494loPI    C3 7891  13.595   8.797  10.625  0.1691  0.5328  0.0443
  494loPI   PO4 7892  13.793   8.997  10.065  0.3152 -0.1533  0.4509
  494loPI   GL1 7893  13.628   9.144   9.587 -0.4514 -0.1456  0.5632
  494loPI   GL2 7894  13.747   9.121   9.260 -0.0216 -0.2779 -0.1949
  494loPI   C1A 7895  13.251   9.170   9.206  0.3817  0.1294  0.0306
  494loPI   C2A 7896  13.018   8.965   9.003 -0.2250 -0.1009  0.0310
  494loPI   C3A 7897  12.720   8.937   8.750 -0.0654 -0.1765  0.1722
  494loPI   C4A 7898  12.642   8.901   8.374  0.3674  0.0815 -0.1606
  494loPI   C5A 7899  12.668   8.826   7.881  0.0431  0.2495  0.0675
  494loPI   C6A 7900  12.304   8.814   7.577 -0.1166  0.1903 -0.0662
  494loPI   C1B 7901  13.614   9.367   8.877  0.1586  0.0788 -0.2386
  494loPI   C2B 7902  13.685   9.580   8.561  0.0234  0.1377 -0.2175
  494loPI   C3B 7903  13.600   9.500   8.150  0.1433 -0.2650 -0.0273
  494loPI   C4B 7904  13.433   9.578   7.716  0.0923 -0.1865 -0.2010
  495loPI    C1 7905   3.317   9.165  10.832 -0.0621 -0.0321  0.0902
  495loPI    C2 7906   3.133   8.843  10.982  0.1499 -0.0765  0.2601
  495loPI    C3 7907   3.327   9.094  11.226  0.0545  0.1373  0.1190
  495loPI   PO4 7908   3.242   9.100  10.497 -0.1263  0.3339 -0.3120
  495loPI   GL1 7909   3.445   9.108  10.097 -0.1982  0.0101 -0.0090
  495loPI   GL2 7910   3.129   9.029  10.022  0.2837 -0.1315  0.4144
  495loPI   C1A 7911   3.604   9.011   9.620  0.0734  0.0605  0.2843
  495loPI   C2A 7912   3.649   8.962   9.161 -0.3088 -0.2492 -0.0788
  495loPI   C3A 7913   3.530   9.199   8.802 -0.0828 -0.1993  0.1265
  495loPI   C4A 7914   3.343   9.431   8.521  0.1539  0.0802 -0.1291
  495loPI   C5A 7915   3.032   9.655   8.558  0.1732 -0.0242  0.1752
  495loPI   C6A 7916   2.745   9.522   8.216 -0.0927 -0.1165 -0.0470
  495loPI   C1B 7917   3.067   9.056   9.583  0.3026  0.0263 -0.0524
  495loPI   C2B 7918   3.034   9.132   9.105  0.0782  0.1031 -0.2778
  495loPI   C3B 7919   2.865   9.217   8.787  0.1566  0.1133 -0.1476
  495loPI   C4B 7920   2.693   9.089   8.433 -0.0960 -0.1321  0.0411
  496loPI    C1 7921   3.339  16.385  10.216 -0.1316  0.0031  0.2161
  496loPI    C2 7922   3.438  16.764  10.133  0.1598 -0.1830 -0.3383
  496loPI    C3 7923   3.294  16.669  10.494  0.2025  0.4288 -0.1492
  496loPI   PO4 7924   3.523  16.280   9.947  0.0182  0.0093 -0.0866
  496loPI   GL1 7925   3.759  16.437   9.570 -0.0791  0.0467 -0.2847
  496loPI   GL2 7926   3.553  16.637   9.574 -0.1216  0.2820 -0.1878
  496loPI   C1A 7927   3.836  16.493   9.162  0.0266 -0.2697 -0.1668
  496loPI   C2A 7928   3.793  16.562   8.716 -0.2188  0.1215 -0.3484
  496loPI   C3A 7929   3.760  16.533   8.329  0.0590 -0.0597 -0.0866
  496loPI   C4A 7930   3.595  16.517   7.943 -0.2888  0.1396 -0.0995
  496loPI   C5A 7931   3.525  16.544   7.531  0.4195  0.1363 -0.0177
  496loPI   C6A 7932   3.709  16.666   7.158 -0.0822 -0.1019  0.1783
  496loPI   C1B 7933   3.375  16.857   9.269  0.2073  0.0888 -0.0376
  496loPI   C2B 7934   3.233  16.772   8.914 -0.1137 -0.2454  0.0341
  496loPI   C3B 7935   3.252  16.366   8.584  0.1935 -0.4704  0.1370
  496loPI   C4B 7936   3.218  16.252   8.071  0.1163 -0.0480 -0.0198
  497loPI    C1 7937   9.013   7.407  10.393  0.2348  0.1403  0.0269
  497loPI    C2 7938   8.721   7.672  10.462 -0.0947 -0.2025 -0.0140
  497loPI    C3 7939   8.952   7.545  10.763 -0.0740 -0.0317  0.0433
  497loPI   PO4 7940   8.986   7.270  10.187  0.1561  0.1140  0.3358
  497loPI   GL1 7941   8.929   6.993   9.848  0.0854 -0.1323 -0.1042
  497loPI   GL2 7942   8.954   7.339   9.623 -0.0170  0.2646 -0.0042
  497loPI   C1A 7943   9.244   6.952   9.582  0.4152 -0.2586 -0.0352
  497loPI   C2A 7944   9.536   6.921   9.283  0.0287 -0.0559 -0.0255
  497loPI   C3A 7945   9.928   6.889   9.166  0.0765  0.1166  0.0352
  497loPI   C4A 7946  10.218   6.790   8.901  0.3918 -0.3922  0.0720
  497loPI   C5A 7947  10.598   6.719   8.601  0.3755  0.3373 -0.1665
  497loPI   C6A 7948  10.997   6.537   8.687 -0.0795  0.0278 -0.2030
  497loPI   C1B 7949   9.192   7.378   9.276 -0.0825  0.0603  0.1110
  497loPI   C2B 7950   9.237   7.408   8.944 -0.3491  0.4480  0.1504
  497loPI   C3B 7951   9.123   7.370   8.510  0.0873  0.1114 -0.1657
  497loPI   C4B 7952   9.130   7.753   8.323  0.0735 -0.0147  0.0951
  498loPI    C1 7953   2.137   4.089  10.322 -0.0759  0.2233 -0.1625
  498loPI    C2 7954   2.166   4.485  10.371  0.0857  0.1573  0.3270
  498loPI    C3 7955   2.251   4.239  10.675  0.1633 -0.2625 -0.0247
  498loPI   PO4 7956   2.089   4.124  10.017  0.2338  0.0803 -0.0555
  498loPI   GL1 7957   2.276   4.165   9.645 -0.0907 -0.1067  0.0736
  498loPI   GL2 7958   2.434   3.913   9.703  0.1366 -0.1378 -0.1626
  498loPI   C1A 7959   2.295   4.368   9.321 -0.6221  0.0976 -0.0848
  498loPI   C2A 7960   2.376   4.347   8.853 -0.3039 -0.0760 -0.2437
  498loPI   C3A 7961   2.359   4.505   8.433  0.0846  0.1945  0.0787
  498loPI   C4A 7962   2.351   4.625   8.015 -0.2828  0.1319  0.1590
  498loPI   C5A 7963   2.386   4.891   7.798 -0.0371 -0.0049 -0.3263
  498loPI   C6A 7964   2.221   5.131   7.546 -0.0209 -0.0086 -0.1071
  498loPI   C1B 7965   2.509   3.757   9.298 -0.1865 -0.2113 -0.1705
  498loPI   C2B 7966   2.637   3.824   8.859 -0.1250 -0.0150  0.1510
  498loPI   C3B 7967   2.646   3.879   8.488 -0.1493 -0.0607 -0.3538
  498loPI   C4B 7968   2.605   4.181   8.148 -0.0375 -0.0021  0.2930
  499loPI    C1 7969  14.517  16.332   9.887 -0.0393 -0.1128 -0.0123
  499loPI    C2 7970  14.275  16.620  10.022  0.0922 -0.1000  0.2003
  499loPI    C3 7971  14.571  16.482  10.254  0.3669 -0.0288 -0.1010
  499loPI   PO4 7972  14.698  16.457   9.697 -0.1312  0.2173  0.1615
  499loPI   GL1 7973  14.477  16.604   9.373 -0.3428 -0.4719 -0.3265
  499loPI   GL2 7974  14.829  16.834   9.293  0.0223 -0.4033 -0.1060
  499loPI   C1A 7975  14.247  16.493   9.057  0.1130 -0.0573  0.2138
  499loPI   C2A 7976  14.039  16.548   8.586 -0.0205 -0.0605 -0.3454
  499loPI   C3A 7977  14.039  16.620   8.168 -0.1076 -0.3376  0.0762
  499loPI   C4A 7978  14.023  16.700   7.790 -0.0970  0.2118 -0.0662
  499loPI   C5A 7979  14.043  16.899   7.364  0.0059  0.0705 -0.1065
  499loPI   C6A 7980  14.320  16.979   7.136  0.0519  0.1833 -0.0321
  499loPI   C1B 7981  14.848  16.977   8.787 -0.1790  0.0158 -0.1754
  499loPI   C2B 7982  14.855  17.007   8.371 -0.0990 -0.0223  0.0474
  499loPI   C3B 7983  14.900  17.101   7.980  0.0080  0.1851  0.2032
  499loPI   C4B 7984  15.111  16.875   7.627  0.1265  0.0893  0.3940
  500loPI    C1 7985   2.986  10.876  10.221  0.0458 -0.1307 -0.1945
  500loPI    C2 7986   3.139  10.508  10.264 -0.0380 -0.1411  0.0291
  500loPI    C3 7987   2.794  10.603  10.442  0.0570  0.0904  0.0934
  500loPI   PO4 7988   2.943  11.004  10.028 -0.0150  0.0940  0.1991
  500loPI   GL1 7989   2.754  10.912   9.643  0.1992 -0.5187  0.2331
  500loPI   GL2 7990   3.081  11.066   9.504  0.0933  0.3513  0.0261
  500loPI   C1A 7991   2.646  10.825   9.242  0.0243  0.0366  0.2208
  500loPI   C2A 7992   2.631  10.747   8.812  0.1374 -0.1621 -0.3358
  500loPI   C3A 7993   2.685  10.575   8.334 -0.0935  0.1264 -0.1774
  500loPI   C4A 7994   2.861  10.692   8.001 -0.0895  0.0833 -0.1401
  500loPI   C5A 7995   3.146  10.794   7.709 -0.0436  0.1662 -0.3542
  500loPI   C6A 7996   3.371  10.655   7.353  0.0634 -0.4600  0.2519
  500loPI   C1B 7997   3.026  10.970   9.030 -0.1039 -0.0203  0.5109
  500loPI   C2B 7998   3.112  10.733   8.570 -0.1871  0.1180  0.1955
  500loPI   C3B 7999   3.225  10.557   8.313  0.1842 -0.0340  0.2445
  500loPI   C4B 8000   3.281  10.228   7.960  0.4250  0.1659  0.0938
  501loPI    C1 8001   3.724   7.267  10.172  0.3131 -0.0995  0.1743
  501loPI    C2 8002   3.901   7.623  10.214 -0.0588  0.1196 -0.0620
  501loPI    C3 8003   3.903   7.362  10.516  0.4063  0.2316  0.0389
  501loPI   PO4 8004   3.492   7.350   9.998 -0.3576 -0.2826 -0.0906
  501loPI   GL1 8005   3.372   7.412   9.615 -0.1636  0.2353  0.0123
  501loPI   GL2 8006   3.257   7.661   9.646 -0.1602 -0.0374  0.1959
  501loPI   C1A 8007   3.211   7.183   9.262 -0.0026 -0.0491  0.1595
  501loPI   C2A 8008   3.446   7.225   8.865  0.3544 -0.2455  0.0524
  501loPI   C3A 8009   3.297   7.141   8.424  0.1763 -0.1564 -0.0109
  501loPI   C4A 8010   3.378   7.075   7.983  0.1714 -0.2489  0.0935
  501loPI   C5A 8011   3.301   7.020   7.411 -0.0075  0.1104 -0.2181
  501loPI   C6A 8012   3.226   7.270   7.043  0.0482 -0.0715  0.5607
  501loPI   C1B 8013   3.323   7.668   9.151 -0.1340  0.0750  0.2704
  501loPI   C2B 8014   3.288   7.675   8.580 -0.0149 -0.2888  0.0452
  501loPI   C3B 8015   3.019   7.675   8.286 -0.1164  0.1654 -0.1052
  501loPI   C4B 8016   2.655   7.891   8.322 -0.1656 -0.0270 -0.0368
  502loPI    C1 8017  10.144   9.418  10.382  0.0039  0.1157  0.0580
  502loPI    C2 8018  10.505   9.523  10.518  0.0768 -0.1118  0.0436
  502loPI    C3 8019  10.376   9.147  10.563 -0.1079 -0.0619 -0.0618
  502loPI   PO4 8020  10.139   9.508  10.116 -0.1208 -0.0593  0.1487
  502loPI   GL1 8021  10.281   9.835   9.815  0.0048 -0.0738 -0.1471
  502loPI   GL2 8022  10.415  10.133   9.720  0.2421 -0.2268 -0.0736
  502loPI   C1A 8023  10.036   9.760   9.491 -0.1294 -0.0409  0.0555
  502loPI   C2A 8024   9.919   9.824   9.081  0.1035  0.1836 -0.1243
  502loPI   C3A 8025   9.945   9.865   8.665  0.0102  0.1360 -0.1397
  502loPI   C4A 8026   9.742   9.786   8.233  0.3473  0.0934  0.0505
  502loPI   C5A 8027   9.399   9.714   7.850  0.0987  0.1216 -0.1550
  502loPI   C6A 8028   8.996   9.586   7.563  0.2391  0.1150 -0.3974
  502loPI   C1B 8029  10.384  10.085   9.326  0.0218 -0.0229 -0.0452
  502loPI   C2B 8030  10.492  10.015   9.013  0.2292 -0.1681 -0.1544
  502loPI   C3B 8031  10.508   9.838   8.548 -0.3063 -0.2887 -0.1324
  502loPI   C4B 8032  10.856   9.669   8.262 -0.1104 -0.4775 -0.0200
  503loPI    C1 8033   7.913  10.164  10.068 -0.0244  0.0288 -0.1221
  503loPI    C2 8034   8.019  10.088  10.447  0.2020 -0.0019 -0.1898
  503loPI    C3 8035   7.632  10.129  10.351  0.1021 -0.5505 -0.0566
  503loPI   PO4 8036   8.229  10.354  10.003 -0.0107 -0.0793  0.2071
  503loPI   GL1 8037   8.319  10.603   9.613  0.0064  0.2068  0.2854
  503loPI   GL2 8038   8.212  10.304   9.476  0.0819 -0.0534 -0.3721
  503loPI   C1A 8039   8.002  10.793   9.463  0.0723  0.2119 -0.0004
  503loPI   C2A 8040   7.611  10.751   9.179 -0.0523  0.0463 -0.1852
  503loPI   C3A 8041   7.498  10.914   8.756  0.3472 -0.3869 -0.1606
  503loPI   C4A 8042   7.487  10.885   8.335 -0.2313  0.0715 -0.1830
  503loPI   C5A 8043   7.107  11.095   8.104  0.0209  0.0421 -0.1656
  503loPI   C6A 8044   6.867  11.244   7.802  0.2142 -0.1446  0.0431
  503loPI   C1B 8045   8.053  10.400   9.035  0.0951 -0.1518 -0.0455
  503loPI   C2B 8046   7.979  10.723   8.747  0.1804 -0.2706 -0.2102
  503loPI   C3B 8047   7.916  11.064   8.471 -0.1454 -0.0037 -0.0247
  503loPI   C4B 8048   7.878  11.057   8.067 -0.2343  0.0391 -0.0009
  504loPI    C1 8049   1.324   1.865  10.043  0.1659  0.1642  0.1771
  504loPI    C2 8050   1.218   1.562  10.282 -0.1671  0.2490  0.1419
  504loPI    C3 8051   1.605   1.646  10.225 -0.0714 -0.1491  0.1752
  504loPI   PO4 8052   1.047   1.937   9.942  0.2931  0.0849 -0.0586
  504loPI   GL1 8053   0.962   2.174   9.609 -0.1010  0.2026 -0.1815
  504loPI   GL2 8054   0.789   2.280   9.466  0.0884  0.2863  0.2107
  504loPI   C1A 8055   1.156   2.091   9.218 -0.0136 -0.3275  0.1848
  504loPI   C2A 8056   1.093   2.105   8.673 -0.0718  0.2148 -0.0239
  504loPI   C3A 8057   1.072   2.113   8.328 -0.0440 -0.1104  0.3635
  504loPI   C4A 8058   1.170   2.192   7.942  0.3722  0.0200  0.0613
  504loPI   C5A 8059   1.054   1.924   7.590  0.1323 -0.1746 -0.0032
  504loPI   C6A 8060   0.834   1.625   7.503 -0.2988 -0.1758  0.1906
  504loPI   C1B 8061   0.739   2.350   8.969 -0.0557 -0.0095 -0.3329
  504loPI   C2B 8062   0.674   2.338   8.510 -0.2304 -0.3144  0.2250
  504loPI   C3B 8063   0.896   2.545   8.120  0.2599  0.2105  0.0026
  504loPI   C4B 8064   0.788   2.774   7.879  0.0461 -0.0246  0.2002
  505loPI    C1 8065   3.126  13.187  10.035 -0.1616 -0.0021  0.0578
  505loPI    C2 8066   3.308  12.831  10.024  0.0493  0.1060  0.0057
  505loPI    C3 8067   3.183  12.980  10.373 -0.1199 -0.0578  0.0168
  505loPI   PO4 8068   2.884  13.204   9.871 -0.0611 -0.1811  0.2510
  505loPI   GL1 8069   2.624  13.062   9.517 -0.0135  0.2114 -0.2338
  505loPI   GL2 8070   2.954  12.824   9.600  0.1193  0.1564 -0.1805
  505loPI   C1A 8071   2.812  13.226   9.036 -0.4478 -0.4557  0.1145
  505loPI   C2A 8072   2.708  13.393   8.695  0.1515 -0.1251  0.1020
  505loPI   C3A 8073   2.457  13.340   8.378  0.0658 -0.3255  0.0127
  505loPI   C4A 8074   2.506  13.334   7.925 -0.2550  0.0463 -0.2859
  505loPI   C5A 8075   2.680  13.621   7.680 -0.1043 -0.2601 -0.1850
  505loPI   C6A 8076   2.497  13.943   7.344  0.1394 -0.4401 -0.0181
  505loPI   C1B 8077   2.678  12.672   9.248 -0.0069 -0.0101 -0.0348
  505loPI   C2B 8078   2.612  12.344   8.919 -0.2692  0.0055 -0.2881
  505loPI   C3B 8079   2.724  11.951   8.667  0.0738 -0.3889 -0.2948
  505loPI   C4B 8080   2.648  11.623   8.370 -0.0044 -0.0532 -0.1485
  506loPI    C1 8081   4.027  15.493  10.168 -0.2113  0.1747  0.2053
  506loPI    C2 8082   4.248  15.767  10.357 -0.1248  0.2025  0.0649
  506loPI    C3 8083   4.346  15.652   9.986 -0.2344  0.0743  0.0752
  506loPI   PO4 8084   3.767  15.531  10.143  0.2023  0.0935 -0.2675
  506loPI   GL1 8085   3.579  15.458   9.737 -0.1974  0.4175  0.1609
  506loPI   GL2 8086   3.917  15.399   9.629  0.2382  0.0955  0.0301
  506loPI   C1A 8087   3.600  15.719   9.177 -0.0331 -0.0919 -0.0055
  506loPI   C2A 8088   3.648  15.649   8.779  0.1642  0.0233  0.1039
  506loPI   C3A 8089   3.488  15.887   8.429  0.0656 -0.2062 -0.1315
  506loPI   C4A 8090   3.618  16.006   8.057  0.0776  0.1240 -0.0612
  506loPI   C5A 8091   3.464  16.007   7.632  0.0834 -0.0869 -0.2351
  506loPI   C6A 8092   3.244  16.199   7.231  0.2705  0.0360  0.1830
  506loPI   C1B 8093   4.042  15.339   9.178 -0.4490 -0.1913 -0.1756
  506loPI   C2B 8094   4.113  15.122   8.833  0.1111  0.1739  0.0642
  506loPI   C3B 8095   4.173  15.140   8.383 -0.2944  0.1842  0.2436
  506loPI   C4B 8096   4.197  15.292   8.008  0.2288 -0.2923  0.3836
  507loPI    C1 8097  11.098  15.083   9.739  0.0608  0.0648 -0.0931
  507loPI    C2 8098  11.125  15.243  10.105  0.0009 -0.1820  0.0214
  507loPI    C3 8099  11.290  14.886  10.030 -0.1598 -0.2242 -0.1382
  507loPI   PO4 8100  11.282  15.180   9.469  0.0524 -0.0670  0.1348
  507loPI   GL1 8101  11.255  15.050   9.122 -0.1266  0.0481 -0.0250
  507loPI   GL2 8102  11.110  15.125   8.934  0.3519  0.0208 -0.3629
  507loPI   C1A 8103  11.483  14.740   8.881 -0.0023  0.0760  0.2004
  507loPI   C2A 8104  11.906  14.751   8.847 -0.2416 -0.0485  0.0384
  507loPI   C3A 8105  12.222  14.639   8.578  0.0882 -0.3067  0.0660
  507loPI   C4A 8106  12.426  14.354   8.297 -0.0373 -0.0278 -0.0298
  507loPI   C5A 8107  12.524  14.092   8.065 -0.2657 -0.1284  0.0174
  507loPI   C6A 8108  12.862  13.736   7.949 -0.0738  0.1181 -0.0575
  507loPI   C1B 8109  10.869  15.236   8.600 -0.1565  0.1133 -0.0414
  507loPI   C2B 8110  10.443  15.294   8.387 -0.0602  0.0571  0.3071
  507loPI   C3B 8111  10.156  15.038   8.199 -0.0492  0.2323 -0.1177
  507loPI   C4B 8112   9.970  14.808   7.914  0.2886  0.1307  0.1368
  508loPI    C1 8113   9.988  19.072  10.085  0.0496  0.0012  0.2027
  508loPI    C2 8114  10.133  19.235  10.420 -0.0144  0.1316  0.1675
  508loPI    C3 8115   9.786  19.037  10.428  0.0978 -0.0653  0.2244
  508loPI   PO4 8116  10.174  19.132   9.867 -0.1385  0.1276 -0.0113
  508loPI   GL1 8117  10.401  19.368   9.489 -0.2098 -0.0003 -0.0597
  508loPI   GL2 8118  10.433  19.370   9.207  0.3455  0.0691  0.0920
  508loPI   C1A 8119   9.954  19.362   9.134 -0.1312  0.1406  0.0501
  508loPI   C2A 8120   9.756  19.337   8.751  0.1507 -0.3776 -0.2375
  508loPI   C3A 8121   9.773  19.340   8.316  0.2320 -0.1285  0.1266
  508loPI   C4A 8122   9.815  19.199   7.880 -0.2051 -0.2588  0.2639
  508loPI   C5A 8123   9.779  19.184   7.461  0.0081  0.1941  0.3087
  508loPI   C6A 8124   9.972  19.312   7.077  0.0109 -0.1273  0.2381
  508loPI   C1B 8125  10.576  19.580   8.883  0.1183 -0.0716  0.2364
  508loPI   C2B 8126  10.610  19.903   8.477 -0.0241  0.2491  0.0286
  508loPI   C3B 8127  10.425  19.751   8.099 -0.0368 -0.1714  0.0793
  508loPI   C4B 8128  10.023  19.696   7.954  0.2383 -0.1005 -0.0280
  509loPI    C1 8129   1.142   7.780  10.324 -0.2331  0.0550 -0.0190
  509loPI    C2 8130   0.809   7.674  10.519 -0.2259  0.2322  0.0933
  509loPI    C3 8131   0.996   8.014  10.614 -0.0707  0.1864 -0.0414
  509loPI   PO4 8132   1.110   7.745  10.104  0.0412  0.0789  0.1703
  509loPI   GL1 8133   1.189   7.425   9.837 -0.0222  0.1387  0.3015
  509loPI   GL2 8134   0.899   7.516   9.600  0.3403  0.0355  0.2240
  509loPI   C1A 8135   1.340   7.226   9.435 -0.1815  0.3708 -0.5886
  509loPI   C2A 8136   1.307   7.023   8.952 -0.2709 -0.0440 -0.0297
  509loPI   C3A 8137   1.219   6.747   8.518 -0.1510 -0.3496 -0.5618
  509loPI   C4A 8138   1.418   6.673   8.226  0.0535 -0.2222  0.2941
  509loPI   C5A 8139   1.436   6.496   7.815  0.3292  0.1937 -0.2629
  509loPI   C6A 8140   1.150   6.150   7.585 -0.0452  0.2361  0.0690
  509loPI   C1B 8141   0.833   7.275   9.214  0.3469  0.0601  0.1048
  509loPI   C2B 8142   0.825   7.031   8.821  0.0465  0.3466  0.1273
  509loPI   C3B 8143   0.755   7.003   8.433 -0.0721  0.1752  0.3194
  509loPI   C4B 8144   0.710   6.967   8.012  0.2704 -0.1212  0.1927
  510loPI    C1 8145   9.244   2.590   9.782  0.0249 -0.1821 -0.0531
  510loPI    C2 8146   9.009   2.736  10.071  0.2431  0.0604  0.0051
  510loPI    C3 8147   9.226   2.406  10.137 -0.1642 -0.2343 -0.0884
  510loPI   PO4 8148   9.095   2.485   9.568  0.2224 -0.0598 -0.1031
  510loPI   GL1 8149   8.853   2.474   9.193  0.0395 -0.1910 -0.2149
  510loPI   GL2 8150   8.939   2.315   8.976  0.3248  0.0906  0.3237
  510loPI   C1A 8151   8.537   2.830   8.998  0.2039  0.2232 -0.1503
  510loPI   C2A 8152   8.316   2.974   8.686  0.1571  0.3269  0.0311
  510loPI   C3A 8153   8.010   3.118   8.448  0.1777 -0.2003 -0.0812
  510loPI   C4A 8154   7.938   3.342   8.102 -0.0538  0.1274  0.1577
  510loPI   C5A 8155   7.734   3.668   7.783  0.1322  0.0888 -0.0936
  510loPI   C6A 8156   7.300   3.784   7.514 -0.0328  0.0692  0.2987
  510loPI   C1B 8157   8.624   2.437   8.635  0.0407 -0.2778  0.1783
  510loPI   C2B 8158   8.494   2.449   8.246 -0.1467  0.0508 -0.0401
  510loPI   C3B 8159   8.222   2.422   7.912  0.1396  0.0644  0.2114
  510loPI   C4B 8160   7.816   2.386   7.675  0.0435 -0.0069  0.0859
  511loPI    C1 8161   6.953  19.029  10.031 -0.0463  0.1354  0.1623
  511loPI    C2 8162   7.337  19.134   9.987  0.0719 -0.2760  0.1695
  511loPI    C3 8163   7.186  19.073  10.353 -0.0177 -0.0594  0.1698
  511loPI   PO4 8164   6.955  19.024   9.695  0.3826  0.0121  0.1995
  511loPI   GL1 8165   7.014  19.160   9.300  0.1193  0.0044  0.2953
  511loPI   GL2 8166   7.076  19.362   9.142 -0.0833  0.0133  0.3680
  511loPI   C1A 8167   6.895  18.968   8.908  0.0368  0.2126 -0.2408
  511loPI   C2A 8168   6.681  18.935   8.533 -0.0820 -0.1792 -0.0865
  511loPI   C3A 8169   6.507  18.798   8.119 -0.0203  0.0378 -0.1641
  511loPI   C4A 8170   6.513  18.832   7.659  0.2129  0.2128  0.1287
  511loPI   C5A 8171   6.215  18.863   7.326  0.1798 -0.0483 -0.1269
  511loPI   C6A 8172   5.897  18.872   7.039 -0.0823 -0.0126 -0.2867
  511loPI   C1B 8173   7.023  19.344   8.629  0.1587  0.1149 -0.0858
  511loPI   C2B 8174   6.862  19.392   8.290 -0.2231  0.0644 -0.0060
  511loPI   C3B 8175   6.827  19.214   7.864  0.1134 -0.0230  0.1565
  511loPI   C4B 8176   6.955  19.056   7.510 -0.2075 -0.3370  0.1898
  512loPI    C1 8177   4.268  11.915  10.103  0.5141 -0.0507  0.0327
  512loPI    C2 8178   4.153  11.694  10.416 -0.1073  0.2441  0.0278
  512loPI    C3 8179   4.325  12.051  10.474 -0.2902  0.3316  0.0375
  512loPI   PO4 8180   4.242  11.656   9.886  0.4396  0.0507 -0.4856
  512loPI   GL1 8181   4.298  11.680   9.411  0.2817 -0.1411  0.0650
  512loPI   GL2 8182   4.394  11.360   9.381 -0.0393 -0.0911  0.0986
  512loPI   C1A 8183   4.072  11.739   8.993  0.2247 -0.0445 -0.3530
  512loPI   C2A 8184   3.916  11.733   8.633 -0.0882  0.1217 -0.3114
  512loPI   C3A 8185   3.594  11.845   8.253  0.3986 -0.1207 -0.0818
  512loPI   C4A 8186   3.486  12.140   7.911  0.1891  0.0765 -0.1134
  512loPI   C5A 8187   3.339  12.468   7.620 -0.1264  0.0922  0.0061
  512loPI   C6A 8188   3.267  12.860   7.569 -0.1585  0.0559  0.5432
  512loPI   C1B 8189   4.399  11.383   8.959  0.1130  0.0843 -0.0140
  512loPI   C2B 8190   4.804  11.447   8.753 -0.1345  0.0005 -0.1985
  512loPI   C3B 8191   5.155  11.491   8.524  0.1545 -0.0567  0.0664
  512loPI   C4B 8192   5.445  11.672   8.331 -0.2117 -0.0315  0.0416
  513loPI    C1 8193   0.970   6.897  10.226  0.0993  0.1761 -0.1881
  513loPI    C2 8194   1.187   7.229  10.275  0.4235 -0.0249 -0.2304
  513loPI    C3 8195   1.245   6.915  10.516 -0.1010  0.0544  0.0117
  513loPI   PO4 8196   0.887   6.927   9.968 -0.4075  0.0154 -0.1423
  513loPI   GL1 8197   1.060   6.733   9.590 -0.1085 -0.3883  0.0980
  513loPI   GL2 8198   0.816   6.658   9.273  0.1585  0.0312  0.0106
  513loPI   C1A 8199   1.366   6.590   9.284 -0.0829  0.3328 -0.2535
  513loPI   C2A 8200   1.530   6.560   8.883 -0.0180 -0.2244 -0.0713
  513loPI   C3A 8201   1.574   6.333   8.586 -0.3706  0.1257 -0.0916
  513loPI   C4A 8202   1.669   6.112   8.130  0.0248 -0.1656  0.1650
  513loPI   C5A 8203   1.477   5.738   8.036 -0.1591 -0.0547  0.0672
  513loPI   C6A 8204   1.248   5.626   7.671 -0.0523  0.2664  0.0328
  513loPI   C1B 8205   1.022   6.560   8.918 -0.2817 -0.1272  0.2800
  513loPI   C2B 8206   1.071   6.229   8.614 -0.0927 -0.4555 -0.0921
  513loPI   C3B 8207   1.144   5.815   8.624  0.0056 -0.0134  0.1960
  513loPI   C4B 8208   1.330   5.425   8.456  0.0638  0.1571 -0.2902
  514loPI    C1 8209  11.653  12.220  10.476 -0.0992  0.1264 -0.0034
  514loPI    C2 8210  11.828  11.920  10.674  0.1658  0.2154 -0.0990
  514loPI    C3 8211  11.938  12.298  10.745 -0.1757  0.2936  0.0304
  514loPI   PO4 8212  11.696  12.169  10.254 -0.0303 -0.0159  0.0712
  514loPI   GL1 8213  11.775  11.944   9.756  0.1850 -0.1658  0.1215
  514loPI   GL2 8214  11.499  11.942   9.543  0.0663 -0.0537  0.0745
  514loPI   C1A 8215  11.920  11.893   9.323  0.1867  0.1077  0.2292
  514loPI   C2A 8216  11.873  11.943   8.929 -0.1604 -0.1131 -0.1112
  514loPI   C3A 8217  11.705  11.867   8.596 -0.0550 -0.0523  0.1602
  514loPI   C4A 8218  11.529  11.911   8.263  0.1759 -0.3128 -0.0169
  514loPI   C5A 8219  11.396  11.887   7.751 -0.0683 -0.1207 -0.3073
  514loPI   C6A 8220  11.565  11.736   7.306 -0.1300  0.0401  0.0263
  514loPI   C1B 8221  11.425  11.916   9.102 -0.0715  0.1578  0.1034
  514loPI   C2B 8222  11.186  11.936   8.743 -0.0424  0.2562 -0.0396
  514loPI   C3B 8223  10.971  11.813   8.300  0.1432  0.2740  0.1638
  514loPI   C4B 8224  10.876  11.821   7.941 -0.1787 -0.0555  0.1388
  515loPI    C1 8225  13.799   8.470   9.902  0.0607  0.1721  0.0561
  515loPI    C2 8226  13.860   8.738   9.612 -0.0653  0.1688  0.0259
  515loPI    C3 8227  13.492   8.681   9.757 -0.0513 -0.0377 -0.0171
  515loPI   PO4 8228  13.954   8.268   9.874 -0.0610 -0.0573  0.2084
  515loPI   GL1 8229  14.407   8.412   9.651  0.0193 -0.1784  0.1357
  515loPI   GL2 8230  14.570   8.220   9.456 -0.1999  0.0455 -0.0900
  515loPI   C1A 8231  14.386   8.627   9.268 -0.0579  0.1496  0.2076
  515loPI   C2A 8232  14.338   8.637   8.787 -0.0071  0.1071  0.1218
  515loPI   C3A 8233  14.242   8.711   8.344  0.2405  0.2364  0.4227
  515loPI   C4A 8234  13.886   8.862   8.113  0.1828  0.0248  0.1096
  515loPI   C5A 8235  13.626   9.083   7.849 -0.2883 -0.1135  0.2316
  515loPI   C6A 8236  13.525   9.137   7.451 -0.3540 -0.1897  0.1381
  515loPI   C1B 8237  14.768   8.393   9.037 -0.2535 -0.3434  0.3111
  515loPI   C2B 8238  14.612   8.303   8.519 -0.2145  0.0231  0.3282
  515loPI   C3B 8239  14.852   8.098   8.211  0.0176 -0.1690  0.1792
  515loPI   C4B 8240  15.177   7.893   8.257 -0.0983  0.2321  0.0506
  516loPI    C1 8241   9.752  12.767   9.538 -0.1495 -0.0419  0.1111
  516loPI    C2 8242  10.041  12.512   9.433  0.0153  0.1488  0.0943
  516loPI    C3 8243   9.868  12.482   9.792 -0.0000 -0.0152  0.0739
  516loPI   PO4 8244   9.476  12.729   9.346  0.1497  0.2068  0.0152
  516loPI   GL1 8245   9.509  12.811   8.979  0.0977  0.0569 -0.3535
  516loPI   GL2 8246   9.229  12.913   8.950  0.0252 -0.0986  0.0038
  516loPI   C1A 8247   9.539  12.851   8.517  0.2477 -0.0767  0.2124
  516loPI   C2A 8248   9.388  12.954   8.081  0.1996  0.1550  0.0143
  516loPI   C3A 8249   9.186  13.264   7.892  0.3888  0.2798  0.3863
  516loPI   C4A 8250   9.211  13.624   7.556  0.1936  0.5911  0.1620
  516loPI   C5A 8251   9.323  13.405   7.270 -0.1820  0.0087 -0.1458
  516loPI   C6A 8252   9.725  13.070   7.209 -0.1496 -0.0516  0.2145
  516loPI   C1B 8253   9.114  12.645   8.576 -0.0047  0.2196  0.3130
  516loPI   C2B 8254   8.785  12.696   8.290 -0.0146  0.2581  0.5171
  516loPI   C3B 8255   8.407  12.844   8.015 -0.0623 -0.0412 -0.1499
  516loPI   C4B 8256   8.139  13.062   7.759  0.1694 -0.0856 -0.0655
  517loPI    C1 8257  17.625  10.475  10.187  0.3874 -0.1313  0.0768
  517loPI    C2 8258  17.303  10.414  10.416  0.0773  0.1585 -0.2702
  517loPI    C3 8259  17.582  10.677  10.530  0.0436  0.1260 -0.1108
  517loPI   PO4 8260  17.413  10.320   9.845 -0.4640  0.2023 -0.1713
  517loPI   GL1 8261  17.312  10.540   9.455  0.3975  0.1985 -0.1687
  517loPI   GL2 8262  17.339  10.403   9.207  0.1891 -0.0136  0.1045
  517loPI   C1A 8263  17.147  10.909   9.302  0.4013  0.0194 -0.0126
  517loPI   C2A 8264  16.948  11.012   8.951  0.2015  0.1683  0.0485
  517loPI   C3A 8265  16.801  11.074   8.515 -0.2043  0.1991 -0.1465
  517loPI   C4A 8266  16.717  11.206   8.081  0.2153  0.0206  0.2254
  517loPI   C5A 8267  16.581  11.011   7.657  0.0793 -0.2438 -0.2321
  517loPI   C6A 8268  16.982  11.101   7.369 -0.0493  0.1692  0.0997
  517loPI   C1B 8269  17.427  10.759   8.843  0.1024  0.1062  0.0669
  517loPI   C2B 8270  17.309  11.052   8.544  0.0061 -0.2192 -0.2604
  517loPI   C3B 8271  17.189  11.307   8.170  0.1342  0.3625  0.0582
  517loPI   C4B 8272  17.046  11.380   7.780 -0.2370  0.0289 -0.0634
  518loPI    C1 8273   2.436   7.759  10.608 -0.1877  0.1476 -0.2651
  518loPI    C2 8274   2.526   8.148  10.621 -0.2342  0.1500  0.1167
  518loPI    C3 8275   2.222   8.006  10.838 -0.1435 -0.1193  0.0714
  518loPI   PO4 8276   2.530   7.687  10.337  0.0668 -0.0838  0.1740
  518loPI   GL1 8277   2.399   7.821   9.851  0.1536 -0.1159  0.1274
  518loPI   GL2 8278   2.658   7.859   9.647  0.1893  0.1302 -0.1014
  518loPI   C1A 8279   2.158   7.597   9.526 -0.1202  0.2745 -0.0126
  518loPI   C2A 8280   1.845   7.270   9.356  0.1041 -0.3826  0.1561
  518loPI   C3A 8281   1.610   7.417   9.067 -0.1557 -0.4782  0.0013
  518loPI   C4A 8282   1.568   7.792   8.747 -0.0487 -0.3015 -0.0093
  518loPI   C5A 8283   1.598   7.963   8.350 -0.1027 -0.1799  0.0401
  518loPI   C6A 8284   1.602   8.150   7.968  0.2044  0.2170  0.0312
  518loPI   C1B 8285   2.845   7.530   9.377  0.3743  0.0396 -0.0962
  518loPI   C2B 8286   2.940   7.455   8.897 -0.1478  0.1633  0.0333
  518loPI   C3B 8287   2.637   7.517   8.599  0.1057 -0.2320 -0.4213
  518loPI   C4B 8288   2.336   7.404   8.303  0.0554 -0.0384  0.1736
  519loPI    C1 8289  13.495  11.052   9.874  0.0777 -0.1455  0.1214
  519loPI    C2 8290  13.590  11.134  10.254  0.2190 -0.1140  0.0796
  519loPI    C3 8291  13.869  10.997  10.003  0.1939  0.1315 -0.0867
  519loPI   PO4 8292  13.205  11.022   9.946  0.1975 -0.0461 -0.3268
  519loPI   GL1 8293  12.928  10.948   9.626 -0.0339  0.1649  0.0900
  519loPI   GL2 8294  12.564  10.989   9.599 -0.0765 -0.1078  0.0931
  519loPI   C1A 8295  12.930  11.302   9.340 -0.3355  0.2014  0.3376
  519loPI   C2A 8296  12.683  11.368   8.905 -0.1865  0.1067 -0.1681
  519loPI   C3A 8297  12.631  11.197   8.477  0.4287 -0.0045 -0.2251
  519loPI   C4A 8298  12.395  11.377   8.259  0.1252  0.1186  0.2723
  519loPI   C5A 8299  12.368  11.337   7.776 -0.3544 -0.3677 -0.1549
  519loPI   C6A 8300  12.229  11.638   7.366 -0.1007 -0.1076  0.3306
  519loPI   C1B 8301  12.673  10.903   9.199  0.1438 -0.0909  0.2404
  519loPI   C2B 8302  12.585  10.770   8.739  0.1538  0.0635 -0.1638
  519loPI   C3B 8303  12.688  10.715   8.327 -0.3683  0.1161  0.1215
  519loPI   C4B 8304  12.587  10.947   8.004  0.2521 -0.0450  0.2859
  520loPI    C1 8305  17.595   0.810  10.143 -0.2183  0.0624 -0.0423
  520loPI    C2 8306  17.404   0.461  10.185 -0.0156 -0.0570 -0.0988
  520loPI    C3 8307  17.331   0.761  10.440 -0.1860 -0.1422 -0.0458
  520loPI   PO4 8308  17.714   0.807   9.944 -0.2466 -0.2525 -0.0535
  520loPI   GL1 8309  17.565   0.945   9.532  0.0339  0.3014 -0.1951
  520loPI   GL2 8310  17.852   0.692   9.386  0.3442 -0.0482 -0.0083
  520loPI   C1A 8311  17.269   0.808   9.244 -0.0434  0.3398 -0.1986
  520loPI   C2A 8312  17.130   0.694   8.854  0.3035  0.2115 -0.0515
  520loPI   C3A 8313  16.996   0.646   8.375 -0.3286 -0.3086 -0.0127
  520loPI   C4A 8314  17.050   1.001   8.070  0.2620 -0.2418 -0.0680
  520loPI   C5A 8315  17.240   1.192   7.714 -0.3262 -0.0445  0.0206
  520loPI   C6A 8316  17.289   1.366   7.344  0.3012  0.0683 -0.2778
  520loPI   C1B 8317  17.665   0.727   9.010 -0.2756 -0.2211 -0.0516
  520loPI   C2B 8318  17.552   0.623   8.587  0.2128  0.2702  0.0102
  520loPI   C3B 8319  17.750   0.639   8.264 -0.1912 -0.3723 -0.0595
  520loPI   C4B 8320  17.916   0.753   7.811 -0.0718 -0.0393  0.2254
  521loPI    C1 8321   1.949  11.763  10.011  0.0970 -0.1440 -0.0145
  521loPI    C2 8322   1.854  11.508  10.304  0.1831 -0.0096  0.1321
  521loPI    C3 8323   2.020  11.861  10.392  0.1098  0.0775 -0.0722
  521loPI   PO4 8324   2.165  11.741   9.848  0.3878 -0.2070 -0.0935
  521loPI   GL1 8325   2.418  11.575   9.617 -0.0591  0.1721 -0.0497
  521loPI   GL2 8326   2.426  11.273   9.652 -0.0426 -0.1134  0.1129
  521loPI   C1A 8327   2.114  11.582   9.278 -0.1315 -0.0845 -0.1929
  521loPI   C2A 8328   1.780  11.507   8.861  0.1567  0.0194  0.4817
  521loPI   C3A 8329   1.621  11.635   8.405  0.1512  0.0848  0.3658
  521loPI   C4A 8330   1.855  11.674   8.009  0.1969 -0.0835 -0.2452
  521loPI   C5A 8331   1.925  12.015   7.827  0.2456  0.0130  0.1062
  521loPI   C6A 8332   2.223  12.333   7.826  0.0027 -0.0176  0.2255
  521loPI   C1B 8333   2.606  11.300   9.177  0.1490 -0.1637 -0.0252
  521loPI   C2B 8334   2.426  11.462   8.822  0.1671  0.3247 -0.3574
  521loPI   C3B 8335   2.253  11.667   8.665 -0.1748  0.0371  0.0649
  521loPI   C4B 8336   2.245  11.894   8.289  0.3477  0.0129 -0.1100
  522loPI    C1 8337   6.109  13.323  10.073  0.1254  0.0234  0.0017
  522loPI    C2 8338   6.271  12.987   9.930  0.0376 -0.0151 -0.0079
  522loPI    C3 8339   6.230  13.037  10.325  0.2610  0.0822  0.0041
  522loPI   PO4 8340   6.252  13.511   9.981 -0.1297  0.0604 -0.2028
  522loPI   GL1 8341   6.647  13.519   9.643 -0.1631  0.1915 -0.0434
  522loPI   GL2 8342   6.490  13.178   9.558  0.2573 -0.0110 -0.1227
  522loPI   C1A 8343   6.821  13.490   9.243 -0.2875 -0.0631 -0.0447
  522loPI   C2A 8344   6.727  13.188   8.944  0.0166 -0.4104  0.0855
  522loPI   C3A 8345   7.148  13.081   8.629  0.0419  0.4791 -0.1080
  522loPI   C4A 8346   7.182  12.733   8.332 -0.2441 -0.1959 -0.1488
  522loPI   C5A 8347   7.108  12.426   7.918  0.0681 -0.0590  0.0335
  522loPI   C6A 8348   7.202  12.626   7.533  0.3048 -0.2588  0.1773
  522loPI   C1B 8349   6.493  12.892   9.257 -0.1502  0.4162  0.1520
  522loPI   C2B 8350   6.263  12.865   8.849 -0.2740 -0.0755  0.4574
  522loPI   C3B 8351   6.258  12.610   8.510 -0.0820  0.6154  0.1845
  522loPI   C4B 8352   6.085  12.523   8.211  0.1365 -0.0036 -0.1662
  523loPI    C1 8353   0.294  15.209  10.350  0.2915 -0.0687 -0.0556
  523loPI    C2 8354   0.333  15.423  10.685 -0.0298  0.2255 -0.2000
  523loPI    C3 8355   0.286  15.027  10.706 -0.2363  0.2631  0.1138
  523loPI   PO4 8356   0.462  15.289  10.212 -0.1957  0.2380  0.0735
  523loPI   GL1 8357   0.504  15.332   9.763 -0.1543 -0.0597 -0.3501
  523loPI   GL2 8358   0.554  15.051   9.440  0.2266 -0.0243  0.1696
  523loPI   C1A 8359   0.609  15.527   9.385  0.2580  0.3189 -0.2201
  523loPI   C2A 8360   0.447  15.483   8.914  0.1506 -0.1286 -0.3490
  523loPI   C3A 8361   0.437  15.531   8.490 -0.0560  0.1661  0.2148
  523loPI   C4A 8362   0.489  15.671   8.204  0.1242  0.3313 -0.0417
  523loPI   C5A 8363   0.653  15.808   7.834  0.1076 -0.2039  0.0540
  523loPI   C6A 8364   1.059  15.816   7.695 -0.2016 -0.1798  0.1211
  523loPI   C1B 8365   0.619  14.972   8.966  0.0479 -0.2369 -0.1597
  523loPI   C2B 8366   0.875  14.812   8.604 -0.0927  0.0706 -0.3314
  523loPI   C3B 8367   0.841  14.752   8.196  0.4613  0.2721  0.1611
  523loPI   C4B 8368   0.870  14.751   7.771 -0.0446  0.2549 -0.3410
  524loPI    C1 8369  14.077  15.967   9.980  0.0852 -0.0017 -0.1203
  524loPI    C2 8370  14.366  15.710   9.881  0.0587 -0.0738 -0.0120
  524loPI    C3 8371  14.037  15.579  10.069  0.0128  0.0276 -0.0214
  524loPI   PO4 8372  14.033  16.113   9.797  0.1755  0.2610  0.1575
  524loPI   GL1 8373  14.370  16.112   9.474  0.2479  0.1070 -0.2614
  524loPI   GL2 8374  13.977  16.103   9.306  0.0854 -0.1309 -0.1406
  524loPI   C1A 8375  14.457  15.988   9.106  0.1054  0.1074  0.1177
  524loPI   C2A 8376  14.434  16.085   8.724  0.2055  0.3059  0.0334
  524loPI   C3A 8377  14.327  16.213   8.284 -0.1202  0.1255  0.1550
  524loPI   C4A 8378  14.273  16.244   7.837  0.0010  0.1582 -0.0780
  524loPI   C5A 8379  14.187  16.423   7.360  0.2615  0.0753 -0.0793
  524loPI   C6A 8380  13.720  16.580   7.415  0.0282 -0.0212 -0.0870
  524loPI   C1B 8381  13.913  16.068   8.910  0.2512  0.0003  0.2463
  524loPI   C2B 8382  13.826  16.134   8.429 -0.5721  0.1501 -0.0832
  524loPI   C3B 8383  13.744  16.187   7.957  0.1560  0.1547 -0.0385
  524loPI   C4B 8384  13.675  16.091   7.492 -0.0732 -0.2286 -0.1532
  525loPI    C1 8385  15.371   7.819   9.968 -0.0060 -0.0855 -0.0142
  525loPI    C2 8386  15.677   7.636  10.149 -0.1348 -0.2286  0.0612
  525loPI    C3 8387  15.369   7.771  10.365 -0.1253 -0.0845 -0.0143
  525loPI   PO4 8388  15.329   7.624   9.743 -0.0557  0.0932 -0.2116
  525loPI   GL1 8389  15.394   7.499   9.396 -0.1795  0.0441 -0.0603
  525loPI   GL2 8390  15.127   7.499   9.265  0.2549 -0.4326 -0.0196
  525loPI   C1A 8391  15.496   7.204   9.208 -0.0082 -0.1971 -0.1017
  525loPI   C2A 8392  15.173   6.882   9.140 -0.2989  0.0484  0.1608
  525loPI   C3A 8393  15.144   6.755   8.683 -0.0870  0.0392 -0.1271
  525loPI   C4A 8394  15.436   6.535   8.466  0.1293  0.2322 -0.3567
  525loPI   C5A 8395  15.453   6.224   8.165  0.1076  0.1002 -0.0693
  525loPI   C6A 8396  15.664   6.136   7.784 -0.0811  0.1857  0.0467
  525loPI   C1B 8397  15.255   7.339   8.838  0.1555  0.1427  0.5689
  525loPI   C2B 8398  15.115   7.372   8.412  0.2028  0.1156  0.0638
  525loPI   C3B 8399  15.182   7.499   7.985  0.0346  0.1235 -0.1026
  525loPI   C4B 8400  14.924   7.734   7.782 -0.1751 -0.2480  0.0740
  526loPI    C1 8401   4.454   9.155  10.365  0.0023  0.1242  0.0542
  526loPI    C2 8402   4.592   8.914  10.653 -0.1101  0.0884  0.0784
  526loPI    C3 8403   4.225   9.069  10.681 -0.1173  0.0939 -0.0403
  526loPI   PO4 8404   4.732   9.288  10.253  0.1300 -0.0245 -0.1149
  526loPI   GL1 8405   4.854   9.656   9.782  0.2754  0.4752  0.1157
  526loPI   GL2 8406   4.899   9.966   9.669 -0.1643  0.4070 -0.5364
  526loPI   C1A 8407   4.678   9.518   9.297  0.1653 -0.2832  0.0040
  526loPI   C2A 8408   4.424   9.343   8.909 -0.0473 -0.2317 -0.2606
  526loPI   C3A 8409   4.196   9.148   8.513  0.1785 -0.6084  0.0322
  526loPI   C4A 8410   3.956   8.910   8.212  0.1876  0.0714 -0.0493
  526loPI   C5A 8411   3.642   9.016   7.881 -0.1396  0.0815 -0.0382
  526loPI   C6A 8412   3.308   8.978   7.596  0.1256  0.1527  0.1621
  526loPI   C1B 8413   4.745  10.058   9.288 -0.0994 -0.0730  0.0406
  526loPI   C2B 8414   4.768  10.191   8.873  0.2213 -0.0534  0.1052
  526loPI   C3B 8415   4.828  10.549   8.597  0.1626 -0.1498  0.2726
  526loPI   C4B 8416   4.870  10.447   8.108  0.0767 -0.1041 -0.0654
  527loPI    C1 8417  17.721  13.217  10.361  0.1010 -0.0229  0.0540
  527loPI    C2 8418  17.459  12.916  10.389  0.4135 -0.2840  0.2470
  527loPI    C3 8419  17.433  13.228  10.638  0.0834 -0.1409  0.0411
  527loPI   PO4 8420  17.840  13.101  10.082  0.1415  0.2229  0.2394
  527loPI   GL1 8421  17.901  13.107   9.595 -0.1072 -0.1084  0.1753
  527loPI   GL2 8422  17.869  12.853   9.469 -0.2055 -0.2727 -0.0164
  527loPI   C1A 8423  17.572  13.234   9.333 -0.2036  0.1101 -0.2438
  527loPI   C2A 8424  17.459  13.200   8.984  0.0153  0.1474  0.2805
  527loPI   C3A 8425  17.215  13.050   8.613  0.0724  0.0999 -0.4106
  527loPI   C4A 8426  17.295  12.903   8.195 -0.1491 -0.2285  0.0255
  527loPI   C5A 8427  17.422  12.595   7.913 -0.3871 -0.0333 -0.4851
  527loPI   C6A 8428  17.271  12.198   7.884  0.1926  0.0997 -0.2622
  527loPI   C1B 8429  18.152  12.488   9.332 -0.0975  0.0754 -0.0896
  527loPI   C2B 8430  18.142  12.156   8.946  0.2112 -0.3518  0.1278
  527loPI   C3B 8431  18.357  12.219   8.502 -0.0156 -0.2093 -0.0682
  527loPI   C4B 8432  18.161  12.443   8.127 -0.0633  0.4109 -0.1009
  528loPI    C1 8433  10.782  17.897   9.790 -0.1804  0.3359  0.0851
  528loPI    C2 8434  11.131  17.780   9.946 -0.0446  0.1926 -0.3141
  528loPI    C3 8435  10.874  17.991  10.167  0.0759 -0.1278  0.1460
  528loPI   PO4 8436  10.724  18.007   9.645 -0.1501 -0.1926  0.1625
  528loPI   GL1 8437  10.621  18.006   9.210  0.0064  0.0209  0.1841
  528loPI   GL2 8438  10.865  17.809   9.183  0.0907 -0.3206  0.1204
  528loPI   C1A 8439  10.446  17.974   8.765  0.0229  0.3786 -0.1446
  528loPI   C2A 8440  10.284  17.899   8.317 -0.0893  0.1278 -0.1194
  528loPI   C3A 8441  10.261  17.749   7.858 -0.0645  0.2031 -0.1568
  528loPI   C4A 8442  10.471  17.730   7.416 -0.1599 -0.4048 -0.1107
  528loPI   C5A 8443  10.496  17.851   6.984  0.2058 -0.1115 -0.1697
  528loPI   C6A 8444  10.666  18.248   6.751 -0.2840 -0.0362 -0.2040
  528loPI   C1B 8445  10.941  18.073   8.791 -0.1859  0.0457 -0.0331
  528loPI   C2B 8446  10.777  18.262   8.406 -0.1393 -0.2300 -0.0024
  528loPI   C3B 8447  10.788  18.083   7.994 -0.0159 -0.2254 -0.2583
  528loPI   C4B 8448  10.718  18.180   7.615 -0.0038 -0.3886 -0.0750
  529loPI    C1 8449   0.582   6.062  10.348 -0.1392 -0.1806 -0.0513
  529loPI    C2 8450   0.885   5.919  10.567  0.0782 -0.1089 -0.3002
  529loPI    C3 8451   0.676   6.235  10.697  0.1173 -0.1506 -0.1335
  529loPI   PO4 8452   0.704   6.122  10.136 -0.2507 -0.1338 -0.0081
  529loPI   GL1 8453   0.854   6.013   9.674 -0.1004  0.3816  0.2859
  529loPI   GL2 8454   0.964   6.252   9.529  0.1215  0.0959  0.1386
  529loPI   C1A 8455   0.753   5.809   9.244 -0.0547  0.0128  0.1522
  529loPI   C2A 8456   0.738   5.621   8.833 -0.1843  0.1982 -0.1897
  529loPI   C3A 8457   0.757   5.543   8.370 -0.2603  0.3490  0.3171
  529loPI   C4A 8458   0.961   5.758   8.060  0.1295 -0.1006  0.1495
  529loPI   C5A 8459   1.074   6.188   8.066 -0.1259  0.0547  0.0528
  529loPI   C6A 8460   0.866   6.520   8.262 -0.0250  0.2583  0.0068
  529loPI   C1B 8461   1.174   6.088   9.153  0.0881  0.1746  0.0739
  529loPI   C2B 8462   1.537   5.969   8.895 -0.0266  0.1295 -0.2849
  529loPI   C3B 8463   1.593   5.811   8.497 -0.3756  0.2471  0.2135
  529loPI   C4B 8464   1.967   5.664   8.342 -0.3820 -0.0910 -0.1374
  530loPI    C1 8465   1.737   4.696  10.207  0.0008 -0.0440 -0.1298
  530loPI    C2 8466   1.667   4.648  10.598  0.0612  0.0010 -0.1134
  530loPI    C3 8467   1.939   4.914  10.474  0.0738 -0.0443 -0.1845
  530loPI   PO4 8468   1.720   4.483  10.077 -0.0243 -0.0317  0.2547
  530loPI   GL1 8469   1.577   4.407   9.775  0.0258 -0.1095  0.1349
  530loPI   GL2 8470   1.800   4.304   9.546  0.2595  0.1611 -0.0690
  530loPI   C1A 8471   1.582   4.644   9.274  0.0277 -0.0356 -0.1164
  530loPI   C2A 8472   1.460   4.465   8.853  0.3154  0.1765  0.1012
  530loPI   C3A 8473   1.474   4.363   8.455  0.1198 -0.0697  0.1119
  530loPI   C4A 8474   1.165   4.179   8.098  0.2679  0.1207 -0.1524
  530loPI   C5A 8475   1.152   4.151   7.693  0.1911 -0.0664  0.1313
  530loPI   C6A 8476   1.365   4.386   7.365  0.2871 -0.1901 -0.2777
  530loPI   C1B 8477   1.899   4.252   9.042 -0.1343 -0.1922  0.2700
  530loPI   C2B 8478   1.951   4.285   8.591 -0.1384 -0.0812 -0.3472
  530loPI   C3B 8479   2.001   4.274   8.209  0.3562  0.2366 -0.0826
  530loPI   C4B 8480   2.219   4.137   7.759  0.1551  0.1614 -0.1950
  531loPI    C1 8481  10.349   7.672  10.175  0.0879  0.1372  0.0031
  531loPI    C2 8482  10.578   7.693  10.502  0.1407 -0.2728 -0.0014
  531loPI    C3 8483  10.348   7.372  10.441 -0.1151 -0.0543 -0.2089
  531loPI   PO4 8484  10.506   7.727   9.921  0.1576  0.2158  0.0958
  531loPI   GL1 8485  10.747   7.551   9.634 -0.0034  0.0076  0.1563
  531loPI   GL2 8486  10.834   7.933   9.524  0.4853  0.0171  0.2185
  531loPI   C1A 8487  10.550   7.697   9.212 -0.1804 -0.0532  0.0702
  531loPI   C2A 8488  10.117   7.655   9.007 -0.3124 -0.4286  0.5043
  531loPI   C3A 8489  10.128   7.242   8.764  0.4652 -0.1031 -0.0554
  531loPI   C4A 8490  10.045   7.271   8.324 -0.0350  0.1203  0.2219
  531loPI   C5A 8491  10.195   6.967   7.929  0.1109  0.0116 -0.0959
  531loPI   C6A 8492  10.284   6.749   7.526  0.0528 -0.0154 -0.0714
  531loPI   C1B 8493  10.993   7.894   9.077 -0.0337  0.1447 -0.1320
  531loPI   C2B 8494  10.875   7.961   8.659 -0.2929 -0.1835  0.1174
  531loPI   C3B 8495  10.580   8.004   8.331  0.0863 -0.1168  0.0142
  531loPI   C4B 8496  10.504   7.969   7.836  0.3888 -0.2660  0.1894
  532loPI    C1 8497  14.234   4.373  10.296  0.1204 -0.1060 -0.2315
  532loPI    C2 8498  13.885   4.200  10.384  0.0663  0.0704 -0.0941
  532loPI    C3 8499  14.001   4.528  10.582  0.3168  0.0044 -0.1290
  532loPI   PO4 8500  14.188   4.383  10.001  0.1525 -0.0498 -0.0764
  532loPI   GL1 8501  14.148   4.316   9.632  0.0565  0.2455  0.1561
  532loPI   GL2 8502  14.207   4.607   9.468  0.0992 -0.2864 -0.0754
  532loPI   C1A 8503  14.535   4.287   9.315 -0.2161  0.0267 -0.2596
  532loPI   C2A 8504  14.712   4.238   8.888 -0.1319 -0.2126  0.2502
  532loPI   C3A 8505  14.512   4.510   8.399 -0.1702  0.1354 -0.2069
  532loPI   C4A 8506  14.338   4.581   7.880 -0.2381  0.0197  0.2162
  532loPI   C5A 8507  13.943   4.640   7.603 -0.0455  0.0399  0.0092
  532loPI   C6A 8508  13.538   4.804   7.535  0.0493 -0.2973 -0.3603
  532loPI   C1B 8509  14.381   4.797   9.102 -0.0475  0.0213  0.1521
  532loPI   C2B 8510  14.250   4.851   8.694  0.0232 -0.0385  0.0675
  532loPI   C3B 8511  14.030   5.134   8.409  0.1026 -0.0959  0.1350
  532loPI   C4B 8512  13.774   5.427   8.200 -0.0366 -0.3520 -0.0923
  533loPI    C1 8513  17.486   5.978  10.418  0.1669  0.1330  0.1499
  533loPI    C2 8514  17.246   5.838  10.706 -0.1746  0.1168 -0.1362
  533loPI    C3 8515  17.429   6.191  10.752  0.0492 -0.0433  0.2436
  533loPI   PO4 8516  17.454   5.772  10.264 -0.0159 -0.1851 -0.0582
  533loPI   GL1 8517  17.298   5.685   9.738 -0.0884 -0.1633 -0.0283
  533loPI   GL2 8518  17.024   5.816   9.651  0.0021  0.0486 -0.2023
  533loPI   C1A 8519  17.276   5.596   9.351  0.1962  0.1156  0.2580
  533loPI   C2A 8520  17.311   5.536   8.921  0.0422 -0.1323  0.1469
  533loPI   C3A 8521  17.404   5.772   8.535  0.0851 -0.2161 -0.2521
  533loPI   C4A 8522  17.460   6.043   8.268  0.1775 -0.1300  0.1091
  533loPI   C5A 8523  17.435   6.414   8.178 -0.0780 -0.1275  0.1791
  533loPI   C6A 8524  17.541   6.780   7.903 -0.1624 -0.1614  0.1095
  533loPI   C1B 8525  17.163   6.175   9.529  0.1766  0.2481  0.2681
  533loPI   C2B 8526  17.473   6.412   9.406 -0.0106 -0.1707 -0.0263
  533loPI   C3B 8527  17.410   6.532   9.078 -0.5155 -0.2472  0.0399
  533loPI   C4B 8528  17.386   6.405   8.705  0.0681  0.1953  0.2067
  534loPI    C1 8529   6.240   3.589   9.892 -0.0783 -0.1345 -0.1205
  534loPI    C2 8530   6.498   3.324   9.738  0.2045 -0.0105  0.1309
  534loPI    C3 8531   6.390   3.299  10.123 -0.0883 -0.0044  0.0515
  534loPI   PO4 8532   6.158   3.651   9.543 -0.0714 -0.2329 -0.0208
  534loPI   GL1 8533   6.499   3.751   9.258  0.2193 -0.3381 -0.1764
  534loPI   GL2 8534   6.314   4.132   9.215  0.0707 -0.0015 -0.2718
  534loPI   C1A 8535   6.707   4.005   8.932  0.3857  0.1000 -0.2308
  534loPI   C2A 8536   6.562   3.911   8.537 -0.2617 -0.1153 -0.1042
  534loPI   C3A 8537   6.424   4.189   8.171 -0.0954  0.1340  0.0368
  534loPI   C4A 8538   6.621   4.326   7.859 -0.1937  0.4870  0.1660
  534loPI   C5A 8539   6.939   4.565   7.613 -0.2382  0.3479  0.2548
  534loPI   C6A 8540   6.888   4.626   7.152  0.3137  0.2376 -0.1420
  534loPI   C1B 8541   6.355   4.348   8.964  0.1112  0.2111 -0.2574
  534loPI   C2B 8542   6.301   4.419   8.588  0.0875 -0.1565  0.1231
  534loPI   C3B 8543   6.202   4.607   8.195 -0.0379  0.1568  0.1615
  534loPI   C4B 8544   6.348   4.710   7.822  0.0170  0.0958 -0.0409
  535loPI    C1 8545  12.715  13.421  10.318  0.0517  0.1412  0.0133
  535loPI    C2 8546  12.572  13.221  10.634  0.1178 -0.0743 -0.0914
  535loPI    C3 8547  12.879  13.473  10.680  0.0676 -0.0349  0.0322
  535loPI   PO4 8548  12.705  13.227  10.145 -0.4306 -0.1208  0.1740
  535loPI   GL1 8549  12.910  13.227   9.689 -0.0008  0.0057  0.0454
  535loPI   GL2 8550  12.638  13.345   9.599 -0.0531 -0.2014  0.1025
  535loPI   C1A 8551  12.969  12.953   9.313  0.0788  0.1729 -0.0676
  535loPI   C2A 8552  12.901  12.783   8.822 -0.1224 -0.0640 -0.3351
  535loPI   C3A 8553  12.914  12.759   8.382 -0.0531 -0.0099  0.3274
  535loPI   C4A 8554  13.277  12.859   8.167  0.3475 -0.1178 -0.2360
  535loPI   C5A 8555  13.414  13.072   7.772  0.4321  0.0887 -0.0126
  535loPI   C6A 8556  13.783  13.069   7.581  0.0856  0.0813 -0.1219
  535loPI   C1B 8557  12.477  13.208   9.199 -0.0767  0.0679 -0.4427
  535loPI   C2B 8558  12.505  13.049   8.724 -0.0888 -0.1976  0.1708
  535loPI   C3B 8559  12.191  13.175   8.339  0.1194  0.1654  0.0855
  535loPI   C4B 8560  12.026  13.150   7.975  0.0658 -0.0505 -0.0298
  536loPI    C1 8561  15.684  18.129   9.658  0.0570  0.0078  0.0574
  536loPI    C2 8562  15.527  18.072  10.021 -0.0050  0.2812  0.0756
  536loPI    C3 8563  15.532  18.439   9.861 -0.0698  0.1464 -0.2421
  536loPI   PO4 8564  15.771  17.942   9.543 -0.0968 -0.0176  0.0645
  536loPI   GL1 8565  15.986  17.792   9.289  0.1579  0.2222 -0.0833
  536loPI   GL2 8566  15.814  17.507   9.247  0.0007 -0.2644  0.0934
  536loPI   C1A 8567  16.195  17.941   8.980  0.0717  0.0951  0.1321
  536loPI   C2A 8568  16.329  18.283   8.701 -0.1774 -0.1898  0.3127
  536loPI   C3A 8569  16.384  18.465   8.378 -0.2443 -0.1474 -0.1583
  536loPI   C4A 8570  16.481  18.585   7.930  0.2325 -0.2905 -0.3280
  536loPI   C5A 8571  16.397  18.813   7.553 -0.3841 -0.2038  0.0318
  536loPI   C6A 8572  16.600  18.931   7.321 -0.0304 -0.4151  0.3365
  536loPI   C1B 8573  15.561  17.613   8.878 -0.1092  0.3812 -0.2349
  536loPI   C2B 8574  15.392  17.871   8.508 -0.3954  0.3668  0.2886
  536loPI   C3B 8575  15.421  17.890   8.060  0.3431  0.3651  0.3677
  536loPI   C4B 8576  15.315  17.886   7.624  0.0228  0.0524  0.3058
  537loPI    C1 8577  14.098  14.529   9.899  0.1855 -0.0015  0.2415
  537loPI    C2 8578  13.866  14.846   9.824  0.1840 -0.0286  0.1304
  537loPI    C3 8579  14.225  14.896   9.992 -0.0030 -0.0071  0.5359
  537loPI   PO4 8580  14.038  14.366   9.724 -0.2780  0.1067 -0.1022
  537loPI   GL1 8581  14.249  14.309   9.281  0.0642  0.0202 -0.4671
  537loPI   GL2 8582  13.922  14.181   9.249  0.2070 -0.1312 -0.0576
  537loPI   C1A 8583  14.206  14.551   8.945  0.0012  0.0638 -0.2053
  537loPI   C2A 8584  14.112  14.587   8.618  0.2400  0.5289  0.0231
  537loPI   C3A 8585  14.163  14.451   8.245  0.1533  0.1178 -0.1376
  537loPI   C4A 8586  14.216  14.177   7.973 -0.1261  0.0238  0.0299
  537loPI   C5A 8587  14.359  13.989   7.602  0.1520  0.1773  0.1966
  537loPI   C6A 8588  14.458  14.087   7.121  0.2190  0.0163  0.1428
  537loPI   C1B 8589  13.971  14.076   8.844 -0.0849 -0.4853 -0.1826
  537loPI   C2B 8590  13.994  14.002   8.435 -0.1144  0.2445  0.0776
  537loPI   C3B 8591  13.870  13.824   8.025  0.1172  0.0254  0.1682
  537loPI   C4B 8592  13.870  13.967   7.663  0.1385 -0.2596  0.0437
  538loPI    C1 8593   4.526   2.420   9.959  0.0049  0.1940  0.1511
  538loPI    C2 8594   4.694   2.058   9.930 -0.1177  0.1417  0.0884
  538loPI    C3 8595   4.304   2.105   9.852 -0.1267  0.2676  0.2051
  538loPI   PO4 8596   4.611   2.533   9.828 -0.1013 -0.0464  0.0278
  538loPI   GL1 8597   4.888   2.633   9.437  0.0288  0.2123 -0.0434
  538loPI   GL2 8598   4.899   2.499   9.188  0.2095 -0.1562  0.1282
  538loPI   C1A 8599   4.719   2.953   9.100  0.0349 -0.1257  0.2125
  538loPI   C2A 8600   4.834   3.085   8.633  0.0242  0.0611 -0.2793
  538loPI   C3A 8601   5.054   3.456   8.580 -0.0152 -0.0582  0.3546
  538loPI   C4A 8602   5.509   3.579   8.329  0.0993  0.3668  0.0989
  538loPI   C5A 8603   5.640   3.649   7.990 -0.1188 -0.0768  0.1303
  538loPI   C6A 8604   5.945   3.864   7.777  0.0289 -0.1789 -0.0579
  538loPI   C1B 8605   5.247   2.301   8.932  0.1783  0.0593  0.1389
  538loPI   C2B 8606   5.300   2.241   8.488  0.5192  0.0204 -0.5075
  538loPI   C3B 8607   5.332   2.470   8.174 -0.1173 -0.0636  0.0377
  538loPI   C4B 8608   5.570   2.646   7.745 -0.1906 -0.2494 -0.0852
  539loPI    C1 8609  15.934   4.378  10.309 -0.1247  0.0122 -0.3280
  539loPI    C2 8610  15.800   4.741  10.410 -0.1184 -0.0213 -0.1969
  539loPI    C3 8611  15.547   4.431  10.395 -0.0337 -0.1134  0.1895
  539loPI   PO4 8612  15.993   4.323   9.960  0.1443  0.0630  0.0820
  539loPI   GL1 8613  15.970   4.144   9.581 -0.0499 -0.0253  0.0760
  539loPI   GL2 8614  16.022   3.902   9.493  0.1542  0.0656  0.1270
  539loPI   C1A 8615  15.786   4.345   9.175 -0.1684 -0.1039  0.4596
  539loPI   C2A 8616  15.949   4.386   8.750 -0.1670  0.3531  0.1838
  539loPI   C3A 8617  16.098   4.478   8.322 -0.4832 -0.0246 -0.2435
  539loPI   C4A 8618  16.001   4.516   7.819 -0.0510  0.0769 -0.2164
  539loPI   C5A 8619  15.896   4.795   7.625 -0.1010 -0.1206 -0.3500
  539loPI   C6A 8620  16.063   5.181   7.675 -0.2491  0.0093 -0.0480
  539loPI   C1B 8621  16.045   3.980   9.026 -0.0568 -0.1046 -0.2698
  539loPI   C2B 8622  15.988   3.941   8.511  0.1420  0.2403 -0.4089
  539loPI   C3B 8623  15.890   4.018   8.061  0.1320  0.2183 -0.3359
  539loPI   C4B 8624  15.723   4.134   7.679  0.0386  0.0448 -0.0447
  540loPI    C1 8625  15.585   5.992   9.995 -0.0448  0.1123 -0.1937
  540loPI    C2 8626  15.200   6.080  10.059 -0.0312 -0.0602  0.1493
  540loPI    C3 8627  15.470   6.374  10.028 -0.1623  0.0549  0.0850
  540loPI   PO4 8628  15.583   5.770  10.020 -0.0416 -0.0842 -0.3795
  540loPI   GL1 8629  15.736   5.538   9.701 -0.3178 -0.0250  0.2172
  540loPI   GL2 8630  15.839   5.835   9.586 -0.0412 -0.1126  0.0577
  540loPI   C1A 8631  15.816   5.213   9.370  0.0845 -0.3188  0.1959
  540loPI   C2A 8632  16.035   5.210   9.042  0.0578  0.0724  0.0686
  540loPI   C3A 8633  16.178   5.496   8.790  0.1915  0.0269  0.0538
  540loPI   C4A 8634  16.409   5.407   8.426 -0.0894  0.0559  0.1511
  540loPI   C5A 8635  16.418   5.381   7.962  0.2995  0.0087 -0.3508
  540loPI   C6A 8636  16.565   5.675   7.683 -0.1374 -0.3030  0.0123
  540loPI   C1B 8637  15.438   5.765   9.344  0.0022 -0.2754 -0.0224
  540loPI   C2B 8638  15.052   5.810   9.049  0.1841 -0.1627  0.1085
  540loPI   C3B 8639  14.585   5.717   8.960 -0.0940 -0.1129 -0.2853
  540loPI   C4B 8640  14.113   5.823   9.193 -0.2294  0.2169 -0.2638
  541POPI    C1 8641  10.001  17.243   9.746 -0.1293 -0.1008  0.0010
  541POPI    C2 8642   9.917  17.206  10.135 -0.0836 -0.1186  0.0092
  541POPI    C3 8643  10.025  16.885   9.922 -0.3330 -0.1516 -0.0711
  541POPI   PO4 8644   9.846  17.363   9.644 -0.2488 -0.4130  0.2429
  541POPI   GL1 8645   9.940  17.242   9.217  0.3828  0.0698  0.2380
  541POPI   GL2 8646   9.727  17.076   9.163 -0.1215  0.3726  0.1253
  541POPI   C1A 8647   9.621  17.537   9.009  0.0417  0.2321  0.0161
  541POPI   D2A 8648   9.315  17.857   8.787  0.0510 -0.1158  0.0162
  541POPI   C3A 8649   9.448  18.097   8.453  0.0817  0.1394 -0.1798
  541POPI   C4A 8650   9.685  18.458   8.266  0.0103 -0.0555  0.1007
  541POPI   C1B 8651   9.782  17.067   8.687 -0.2347 -0.0689  0.1448
  541POPI   C2B 8652   9.664  17.305   8.451  0.1595 -0.0845 -0.3134
  541POPI   C3B 8653   9.601  17.665   8.181  0.4349  0.2673 -0.2474
  541POPI   C4B 8654   9.849  17.992   8.049  0.2300  0.1711 -0.0486
  542POPI    C1 8655  13.146   6.035   9.838  0.0780 -0.0634  0.0336
  542POPI    C2 8656  13.087   6.072  10.232  0.1904  0.1010  0.0356
  542POPI    C3 8657  13.439   6.175  10.071  0.1143  0.1204 -0.1203
  542POPI   PO4 8658  12.993   6.256   9.747 -0.0012  0.1548  0.0172
  542POPI   GL1 8659  12.915   6.566   9.407  0.1241 -0.2289 -0.1351
  542POPI   GL2 8660  13.134   6.272   9.276  0.3781  0.4222 -0.0128
  542POPI   C1A 8661  12.798   6.545   8.972  0.1789  0.1236 -0.1726
  542POPI   D2A 8662  12.944   6.729   8.563 -0.3934  0.2870 -0.1476
  542POPI   C3A 8663  12.910   7.029   8.259  0.0584 -0.1607  0.0173
  542POPI   C4A 8664  12.774   7.144   7.885  0.3159  0.1698  0.3573
  542POPI   C1B 8665  13.151   6.166   8.835 -0.1112 -0.0317  0.0354
  542POPI   C2B 8666  12.953   6.255   8.556 -0.3086 -0.0033 -0.0012
  542POPI   C3B 8667  12.718   6.335   8.297 -0.0065  0.2924 -0.0948
  542POPI   C4B 8668  12.594   6.649   8.034 -0.2352 -0.1080 -0.3417
  543POPI    C1 8669  15.555  19.063   9.752 -0.0623 -0.0164 -0.1655
  543POPI    C2 8670  15.203  18.874   9.777 -0.1133  0.0972 -0.0102
  543POPI    C3 8671  15.424  18.930  10.106 -0.0043  0.1305 -0.0882
  543POPI   PO4 8672  15.680  18.938   9.612 -0.2808 -0.0768 -0.0439
  543POPI   GL1 8673  15.858  18.827   9.165 -0.1167  0.3629 -0.1868
  543POPI   GL2 8674  15.916  18.534   8.999  0.0183  0.0273  0.0523
  543POPI   C1A 8675  15.826  19.104   8.769 -0.1337 -0.0689  0.0702
  543POPI   D2A 8676  15.577  18.972   8.422  0.0746 -0.1185  0.3732
  543POPI   C3A 8677  15.132  18.865   8.568  0.3390 -0.0195 -0.4291
  543POPI   C4A 8678  14.931  18.708   8.900  0.0886 -0.1242 -0.3057
  543POPI   C1B 8679  15.871  18.575   8.617 -0.3145 -0.0880 -0.0137
  543POPI   C2B 8680  15.856  18.642   8.108  0.2524 -0.0827 -0.2321
  543POPI   C3B 8681  15.561  18.489   7.817  0.1315 -0.1649 -0.1852
  543POPI   C4B 8682  15.605  18.190   7.427 -0.0389 -0.2268 -0.1526
  544POPI    C1 8683   6.335  11.606   9.992 -0.1150 -0.0611 -0.0250
  544POPI    C2 8684   6.386  12.002  10.004  0.3175 -0.1149  0.0502
  544POPI    C3 8685   6.095  11.832  10.219  0.1288  0.1595  0.0172
  544POPI   PO4 8686   6.373  11.454   9.767 -0.1064 -0.0676  0.0566
  544POPI   GL1 8687   6.644  11.442   9.475 -0.1731 -0.1647  0.0179
  544POPI   GL2 8688   6.837  11.364   9.271 -0.2873  0.1677  0.0230
  544POPI   C1A 8689   6.562  11.540   8.936 -0.1257 -0.1595  0.1219
  544POPI   D2A 8690   6.431  11.696   8.578 -0.1509  0.3714 -0.0810
  544POPI   C3A 8691   6.652  12.199   8.534 -0.2022 -0.0454 -0.1183
  544POPI   C4A 8692   6.730  12.525   8.300 -0.2022  0.2764 -0.0387
  544POPI   C1B 8693   6.866  11.247   8.764  0.0074  0.1345 -0.1020
  544POPI   C2B 8694   6.738  11.392   8.389 -0.3001 -0.1021 -0.0727
  544POPI   C3B 8695   6.784  11.639   8.081 -0.3299 -0.2390 -0.1002
  544POPI   C4B 8696   6.687  12.090   7.999 -0.0012 -0.2437  0.1401
  545POPI    C1 8697   8.710  17.289   9.785  0.2243 -0.0763  0.0471
  545POPI    C2 8698   8.627  17.490  10.121 -0.0167  0.1728 -0.1562
  545POPI    C3 8699   8.368  17.221   9.980  0.1282 -0.0017 -0.0935
  545POPI   PO4 8700   8.832  17.443   9.650  0.1241 -0.0208  0.0339
  545POPI   GL1 8701   8.754  17.699   9.319 -0.3283 -0.3204  0.1014
  545POPI   GL2 8702   9.110  17.684   9.229  0.2080  0.2125  0.2314
  545POPI   C1A 8703   8.535  17.431   8.981 -0.3754  0.2907 -0.1220
  545POPI   D2A 8704   8.202  17.230   8.805 -0.3299  0.1455  0.1664
  545POPI   C3A 8705   7.869  17.306   8.721 -0.1080  0.1231 -0.0402
  545POPI   C4A 8706   7.642  17.259   8.290 -0.4264 -0.0628 -0.0891
  545POPI   C1B 8707   8.970  17.503   8.815  0.0634 -0.1748  0.4426
  545POPI   C2B 8708   9.041  17.660   8.387 -0.1528  0.0903 -0.2226
  545POPI   C3B 8709   8.735  17.647   8.099 -0.0475  0.1283  0.1214
  545POPI   C4B 8710   8.382  17.951   8.073  0.2475 -0.1832  0.1986
  546POPI    C1 8711  16.206   1.370  10.023 -0.0418 -0.0769 -0.0533
  546POPI    C2 8712  16.229   1.729  10.198  0.0218 -0.0866 -0.0417
  546POPI    C3 8713  16.230   1.396  10.421  0.1422 -0.1004 -0.0621
  546POPI   PO4 8714  16.298   1.330   9.797 -0.2777  0.1652  0.1422
  546POPI   GL1 8715  16.199   1.370   9.359  0.3943 -0.3388 -0.3235
  546POPI   GL2 8716  16.432   1.312   9.278  0.1269 -0.0200  0.3952
  546POPI   C1A 8717  16.008   1.544   8.951  0.1002 -0.1766  0.2733
  546POPI   D2A 8718  15.966   1.462   8.524 -0.0768 -0.0047  0.0107
  546POPI   C3A 8719  16.090   1.433   8.153 -0.0383  0.1696 -0.0211
  546POPI   C4A 8720  16.213   1.608   7.773 -0.0220 -0.3590 -0.0943
  546POPI   C1B 8721  16.354   1.207   8.903 -0.0687 -0.1898  0.0761
  546POPI   C2B 8722  16.507   1.204   8.459  0.1055  0.2214  0.2884
  546POPI   C3B 8723  16.601   1.248   8.020  0.0513 -0.0384 -0.0542
  546POPI   C4B 8724  16.779   1.405   7.763 -0.3227 -0.1996 -0.0467
  547POPI    C1 8725   7.402  10.488   9.947 -0.1589 -0.1678 -0.1751
  547POPI    C2 8726   7.662  10.348   9.678  0.0956 -0.0142 -0.0133
  547POPI    C3 8727   7.771  10.641   9.927 -0.2141  0.0082  0.0995
  547POPI   PO4 8728   7.120  10.622   9.885 -0.5434  0.0068 -0.1078
  547POPI   GL1 8729   6.994  10.520   9.528 -0.0838 -0.1816 -0.0149
  547POPI   GL2 8730   7.291  10.491   9.417  0.0186 -0.0982  0.0386
  547POPI   C1A 8731   7.004  10.242   9.116  0.1449 -0.0984  0.1792
  547POPI   D2A 8732   7.163   9.877   8.788  0.0655 -0.1452  0.0709
  547POPI   C3A 8733   7.549   9.868   8.547 -0.2228  0.0872  0.0411
  547POPI   C4A 8734   7.956  10.065   8.464  0.1192 -0.1755 -0.3852
  547POPI   C1B 8735   7.500  10.208   8.989 -0.1483  0.0179 -0.1195
  547POPI   C2B 8736   7.582  10.424   8.577  0.0124 -0.0691 -0.1195
  547POPI   C3B 8737   7.917  10.531   8.275  0.3098 -0.0782  0.0028
  547POPI   C4B 8738   8.106  10.398   7.876  0.0488 -0.0349 -0.0177
  548POPI    C1 8739  16.850   6.171  10.234 -0.0751  0.0729  0.1421
  548POPI    C2 8740  17.210   6.187  10.060 -0.0616  0.0866  0.1711
  548POPI    C3 8741  17.064   6.509  10.247 -0.1305  0.1109  0.0761
  548POPI   PO4 8742  16.693   6.031  10.077  0.0051  0.1548 -0.1665
  548POPI   GL1 8743  16.368   6.209   9.807 -0.0158 -0.0619 -0.1018
  548POPI   GL2 8744  16.405   5.965   9.591 -0.1157  0.1028  0.2370
  548POPI   C1A 8745  16.160   6.294   9.337  0.1187  0.0534 -0.1531
  548POPI   D2A 8746  15.687   6.173   9.073  0.0835 -0.0360 -0.1163
  548POPI   C3A 8747  15.746   6.153   8.636  0.3170 -0.0748  0.1995
  548POPI   C4A 8748  16.020   5.839   8.447  0.0415  0.1933 -0.1240
  548POPI   C1B 8749  16.666   6.142   9.394 -0.0266  0.1041 -0.0153
  548POPI   C2B 8750  16.992   5.966   9.073 -0.1888  0.1678  0.0287
  548POPI   C3B 8751  17.438   6.028   9.097  0.0573 -0.0350 -0.2720
  548POPI   C4B 8752  17.765   6.053   9.341 -0.2264  0.3942 -0.1737
  549POPI    C1 8753   3.391  18.695   9.706  0.0711  0.0683 -0.0594
  549POPI    C2 8754   3.272  18.926  10.011  0.0507  0.0590 -0.0604
  549POPI    C3 8755   3.368  18.543  10.076  0.5304  0.1873  0.0245
  549POPI   PO4 8756   3.588  18.788   9.629 -0.0424 -0.0184  0.0357
  549POPI   GL1 8757   3.609  19.032   9.253  0.0068 -0.2751 -0.1133
  549POPI   GL2 8758   3.386  18.844   9.175 -0.0309  0.2719 -0.0896
  549POPI   C1A 8759   3.625  19.030   8.787 -0.1191  0.1251 -0.1157
  549POPI   D2A 8760   3.640  18.850   8.385 -0.2049 -0.3697 -0.2935
  549POPI   C3A 8761   3.913  18.541   8.421  0.0956 -0.0811  0.1211
  549POPI   C4A 8762   3.843  18.074   8.686 -0.0570  0.3410  0.2007
  549POPI   C1B 8763   3.183  18.785   8.732 -0.2742  0.0652 -0.1187
  549POPI   C2B 8764   3.169  18.788   8.286 -0.2356 -0.1176  0.2370
  549POPI   C3B 8765   3.092  18.912   7.862  0.0765 -0.1147  0.0724
  549POPI   C4B 8766   2.853  18.802   7.554 -0.0078 -0.0488  0.0502
  550POPI    C1 8767  10.218   3.384   9.725 -0.0144 -0.1007 -0.0912
  550POPI    C2 8768  10.545   3.605   9.661 -0.0262 -0.0871 -0.1044
  550POPI    C3 8769  10.475   3.452  10.023 -0.1075  0.0765 -0.0498
  550POPI   PO4 8770   9.943   3.548   9.564 -0.1759 -0.1114 -0.0420
  550POPI   GL1 8771   9.928   3.731   9.196 -0.2544  0.0716 -0.1354
  550POPI   GL2 8772   9.694   3.491   9.115 -0.0812  0.0224 -0.0669
  550POPI   C1A 8773  10.018   3.373   8.812  0.0986  0.0032 -0.2455
  550POPI   D2A 8774   9.772   3.146   8.545 -0.2794 -0.1587 -0.2731
  550POPI   C3A 8775   9.912   3.073   8.109  0.0039  0.2249 -0.0681
  550POPI   C4A 8776  10.022   3.300   7.716 -0.3012  0.1609  0.3908
  550POPI   C1B 8777   9.626   3.738   8.776  0.2242 -0.2294 -0.2130
  550POPI   C2B 8778   9.546   3.694   8.385 -0.0711 -0.3758  0.0726
  550POPI   C3B 8779   9.377   3.462   8.007 -0.3327  0.4030 -0.0929
  550POPI   C4B 8780   9.535   3.119   7.702 -0.1362 -0.1096  0.0295
  551POPI    C1 8781   4.832   7.165  10.011 -0.0144  0.0141  0.2027
  551POPI    C2 8782   4.690   7.343   9.683  0.1216 -0.3496 -0.0597
  551POPI    C3 8783   4.804   7.564   9.996 -0.1088 -0.0039 -0.2125
  551POPI   PO4 8784   4.777   6.926   9.947  0.0428 -0.3752  0.0023
  551POPI   GL1 8785   4.607   6.900   9.511 -0.1662 -0.0182  0.0372
  551POPI   GL2 8786   4.724   6.602   9.438  0.2731 -0.0981 -0.1149
  551POPI   C1A 8787   4.797   7.150   9.206  0.0910 -0.1026  0.0976
  551POPI   D2A 8788   4.956   7.423   8.878 -0.3217 -0.0438  0.1909
  551POPI   C3A 8789   5.296   7.264   8.783  0.1096 -0.3185  0.2573
  551POPI   C4A 8790   5.588   7.044   8.921  0.0191 -0.0090 -0.1105
  551POPI   C1B 8791   4.676   6.659   9.049  0.2076 -0.0062  0.2131
  551POPI   C2B 8792   4.612   7.030   8.795  0.1959  0.0150 -0.0780
  551POPI   C3B 8793   4.729   7.256   8.397  0.0189 -0.2425 -0.0855
  551POPI   C4B 8794   4.678   7.106   8.045  0.0793 -0.1629 -0.0602
  552POPI    C1 8795  14.389  14.147  10.064 -0.1632  0.1597  0.0837
  552POPI    C2 8796  14.543  14.516  10.081 -0.1521  0.1517  0.1611
  552POPI    C3 8797  14.553  14.280  10.403  0.1938 -0.0584  0.0018
  552POPI   PO4 8798  14.521  13.984   9.905  0.2863 -0.2356  0.1816
  552POPI   GL1 8799  14.584  13.974   9.376 -0.2748 -0.3758 -0.1221
  552POPI   GL2 8800  14.527  13.656   9.369  0.0816 -0.0075  0.3022
  552POPI   C1A 8801  14.634  14.233   9.022  0.2157 -0.0963  0.0784
  552POPI   D2A 8802  14.422  14.123   8.595  0.1269  0.4314 -0.1033
  552POPI   C3A 8803  14.429  13.808   8.334 -0.1921  0.3158 -0.1658
  552POPI   C4A 8804  14.300  13.696   7.979 -0.1309  0.2494  0.1341
  552POPI   C1B 8805  14.410  13.752   8.946  0.2213  0.0096 -0.3409
  552POPI   C2B 8806  14.240  13.559   8.715  0.0737  0.1784 -0.2102
  552POPI   C3B 8807  13.941  13.452   8.427  0.2838  0.0687 -0.3136
  552POPI   C4B 8808  13.831  13.307   7.990 -0.0372  0.3484 -0.0563
  553POPI    C1 8809   4.495  15.243  10.207  0.0649 -0.0476  0.1072
  553POPI    C2 8810   4.232  15.099  10.472  0.0081 -0.2222 -0.0418
  553POPI    C3 8811   4.622  15.108  10.562 -0.0554  0.1376  0.2226
  553POPI   PO4 8812   4.380  15.164   9.925  0.0967 -0.2348  0.0721
  553POPI   GL1 8813   4.471  15.332   9.551 -0.0927 -0.1118  0.3860
  553POPI   GL2 8814   4.367  15.552   9.481  0.0364  0.4207 -0.0557
  553POPI   C1A 8815   4.395  14.949   9.255 -0.0945  0.0794 -0.1586
  553POPI   D2A 8816   4.053  14.664   9.070 -0.0063  0.1761 -0.2735
  553POPI   C3A 8817   3.735  14.727   8.723  0.4411  0.3156 -0.0890
  553POPI   C4A 8818   3.621  14.620   8.403 -0.1567 -0.3112 -0.1758
  553POPI   C1B 8819   4.481  15.485   9.071  0.0572  0.0133  0.0014
  553POPI   C2B 8820   4.572  15.319   8.696 -0.1056 -0.0020 -0.1839
  553POPI   C3B 8821   4.677  15.181   8.286  0.1265 -0.1238  0.1280
  553POPI   C4B 8822   4.954  15.403   7.894 -0.2089  0.0274  0.1400
  554POPI    C1 8823  16.644   8.649  10.035 -0.0004  0.0613 -0.0631
  554POPI    C2 8824  16.968   8.679  10.267 -0.1177 -0.2788  0.1528
  554POPI    C3 8825  16.617   8.817  10.397 -0.1019 -0.0934  0.0025
  554POPI   PO4 8826  16.607   8.734   9.834 -0.1090  0.0547  0.3277
  554POPI   GL1 8827  16.281   8.834   9.539  0.1376 -0.1846 -0.0499
  554POPI   GL2 8828  16.060   8.716   9.807  0.0066  0.3817  0.1491
  554POPI   C1A 8829  16.152   8.953   9.141 -0.1332  0.1376  0.1066
  554POPI   D2A 8830  16.284   9.104   8.748 -0.0555 -0.0800 -0.3481
  554POPI   C3A 8831  16.176   9.483   8.506 -0.0277 -0.2876  0.1255
  554POPI   C4A 8832  16.116   9.475   8.028 -0.1413 -0.2389  0.1627
  554POPI   C1B 8833  15.736   8.740   9.532 -0.0588 -0.0919 -0.2194
  554POPI   C2B 8834  15.320   8.882   9.377 -0.0717 -0.2727  0.1945
  554POPI   C3B 8835  15.225   9.174   9.038  0.0078  0.1253 -0.0592
  554POPI   C4B 8836  15.359   9.223   8.662  0.1729 -0.0585  0.0366
  555POPI    C1 8837   5.117  12.274   9.812 -0.1393 -0.1357 -0.0808
  555POPI    C2 8838   4.836  12.174  10.078  0.0682 -0.1171  0.1493
  555POPI    C3 8839   5.220  12.094  10.153  0.1384 -0.0306 -0.1066
  555POPI   PO4 8840   4.881  12.483   9.636  0.2214 -0.0976 -0.0645
  555POPI   GL1 8841   4.856  12.618   9.253 -0.0911 -0.0856  0.0143
  555POPI   GL2 8842   5.215  12.625   9.276 -0.2834  0.0575  0.1732
  555POPI   C1A 8843   4.788  12.776   8.842  0.1019  0.0723 -0.0352
  555POPI   D2A 8844   5.039  12.794   8.559  0.1382  0.2342  0.0472
  555POPI   C3A 8845   5.162  13.023   8.148 -0.2487 -0.3637 -0.1143
  555POPI   C4A 8846   5.479  13.255   8.045  0.1141  0.1153  0.3651
  555POPI   C1B 8847   5.153  12.402   8.854  0.1298  0.0410  0.2741
  555POPI   C2B 8848   5.200  12.309   8.284 -0.2094 -0.1081  0.1964
  555POPI   C3B 8849   5.050  12.148   7.957 -0.3489 -0.1442 -0.1391
  555POPI   C4B 8850   5.178  12.196   7.582  0.1234  0.0133 -0.1059
  556POPI    C1 8851  18.277  13.431   9.977  0.2193  0.3552  0.1729
  556POPI    C2 8852  18.297  13.630  10.323 -0.2078  0.2189  0.2829
  556POPI    C3 8853  18.274  13.231  10.323 -0.0020  0.2046  0.0866
  556POPI   PO4 8854  18.455  13.447   9.796  0.4749 -0.3029  0.3246
  556POPI   GL1 8855  18.458  13.296   9.364  0.4592 -0.0720 -0.3193
  556POPI   GL2 8856  18.602  13.036   9.404 -0.1671  0.2643  0.0130
  556POPI   C1A 8857  18.106  13.374   9.047 -0.1870  0.0047 -0.2062
  556POPI   D2A 8858  17.911  13.027   8.984  0.2072 -0.0130  0.0956
  556POPI   C3A 8859  17.712  13.011   8.592  0.0075  0.0673  0.0536
  556POPI   C4A 8860  17.818  12.850   8.248 -0.3444 -0.1130 -0.0235
  556POPI   C1B 8861  18.698  13.237   8.940  0.1756  0.1881 -0.0835
  556POPI   C2B 8862  18.556  13.466   8.527 -0.1359  0.1304 -0.0755
  556POPI   C3B 8863  18.700  13.603   8.057  0.0109 -0.1075  0.0281
  556POPI   C4B 8864  18.472  13.878   7.834  0.2448 -0.1247  0.0437
  557POPI    C1 8865   4.475  10.658  10.235 -0.1433  0.0525 -0.0923
  557POPI    C2 8866   4.855  10.637  10.360 -0.1437 -0.0501 -0.1077
  557POPI    C3 8867   4.583  10.833  10.579 -0.1234 -0.1448  0.0034
  557POPI   PO4 8868   4.460  10.750   9.897 -0.0117  0.0694 -0.0804
  557POPI   GL1 8869   4.693  10.923   9.578  0.2058  0.2166 -0.1812
  557POPI   GL2 8870   4.387  10.841   9.390  0.2749  0.0845  0.0062
  557POPI   C1A 8871   4.875  11.370   9.281 -0.2194 -0.0687  0.2747
  557POPI   D2A 8872   5.197  11.670   9.059  0.1044 -0.1772  0.0349
  557POPI   C3A 8873   4.992  11.931   8.768  0.0869 -0.0755 -0.1922
  557POPI   C4A 8874   4.812  11.837   8.365 -0.0795  0.0202 -0.1983
  557POPI   C1B 8875   4.661  10.933   9.081  0.0026  0.0226 -0.1431
  557POPI   C2B 8876   4.467  10.917   8.692 -0.2694  0.1298 -0.2070
  557POPI   C3B 8877   4.405  11.238   8.469  0.1654 -0.1053  0.2501
  557POPI   C4B 8878   4.501  11.308   8.073 -0.0885  0.0319 -0.1500
  558POPI    C1 8879   7.752  14.015   9.890  0.0538  0.3107 -0.0205
  558POPI    C2 8880   7.370  13.942   9.796  0.1034 -0.0282  0.0314
  558POPI    C3 8881   7.470  14.027  10.174  0.0922 -0.0366  0.0363
  558POPI   PO4 8882   7.856  13.960   9.663  0.2230  0.4423 -0.3788
  558POPI   GL1 8883   7.787  14.121   9.173 -0.3160  0.1453 -0.0084
  558POPI   GL2 8884   7.662  13.802   9.236  0.0529  0.0939  0.5640
  558POPI   C1A 8885   7.893  14.324   8.744 -0.1685  0.2693  0.0420
  558POPI   D2A 8886   7.727  14.172   8.386 -0.1678 -0.1907 -0.0145
  558POPI   C3A 8887   7.310  13.995   8.361 -0.0865 -0.2715  0.1579
  558POPI   C4A 8888   7.112  13.987   8.665  0.0683 -0.2469 -0.3582
  558POPI   C1B 8889   7.617  13.875   8.823 -0.3280 -0.0844  0.1231
  558POPI   C2B 8890   7.514  13.460   8.484 -0.1234  0.2608  0.1923
  558POPI   C3B 8891   7.244  13.317   8.183  0.0877  0.2201 -0.2739
  558POPI   C4B 8892   7.123  12.931   7.889 -0.0113  0.0841  0.1871
  559POPI    C1 8893  16.541   4.910  10.374 -0.2064  0.2290 -0.0721
  559POPI    C2 8894  16.204   5.109  10.453 -0.3609 -0.0522 -0.0076
  559POPI    C3 8895  16.260   4.744  10.606 -0.1881 -0.1596 -0.3191
  559POPI   PO4 8896  16.559   5.123  10.064 -0.1544  0.3071  0.0339
  559POPI   GL1 8897  16.522   5.053   9.693 -0.0056 -0.2124 -0.0541
  559POPI   GL2 8898  16.847   4.813   9.593  0.0475  0.1046 -0.0379
  559POPI   C1A 8899  16.262   5.346   9.449  0.1137  0.0659 -0.2931
  559POPI   D2A 8900  16.044   5.661   9.198  0.1353 -0.1111 -0.2274
  559POPI   C3A 8901  15.709   5.708   8.963  0.5208  0.4040 -0.0492
  559POPI   C4A 8902  15.475   5.705   8.700  0.0493 -0.0174 -0.0150
  559POPI   C1B 8903  16.656   4.874   9.143 -0.1061  0.0834  0.0385
  559POPI   C2B 8904  16.613   5.021   8.647 -0.2759  0.2225 -0.3257
  559POPI   C3B 8905  16.643   4.780   8.339 -0.5043  0.3260 -0.0694
  559POPI   C4B 8906  16.980   4.574   8.053 -0.0112  0.1129  0.0917
  560POPI    C1 8907   7.758   8.531  10.130 -0.0210  0.0182  0.1521
  560POPI    C2 8908   7.940   8.716  10.434  0.4248  0.0786 -0.1419
  560POPI    C3 8909   7.976   8.320  10.391 -0.0002  0.0039  0.1232
  560POPI   PO4 8910   7.863   8.597   9.922 -0.2053  0.0358 -0.2290
  560POPI   GL1 8911   8.209   8.641   9.649  0.0453  0.1042  0.0943
  560POPI   GL2 8912   8.057   8.467   9.485  0.0880  0.1829  0.1422
  560POPI   C1A 8913   8.550   8.805   9.335  0.2265  0.0962 -0.1467
  560POPI   D2A 8914   8.625   8.674   8.886  0.1085 -0.0917  0.2342
  560POPI   C3A 8915   8.650   8.924   8.599  0.2889  0.0600 -0.0387
  560POPI   C4A 8916   8.816   9.031   8.166 -0.4050  0.1478  0.0708
  560POPI   C1B 8917   8.109   8.689   9.076  0.0292  0.0965  0.2461
  560POPI   C2B 8918   8.026   8.841   8.698 -0.1230 -0.1121  0.1964
  560POPI   C3B 8919   7.869   8.960   8.419  0.1213  0.2071  0.0461
  560POPI   C4B 8920   7.550   9.298   8.314  0.1227 -0.0066  0.0225
  561POPI    C1 8921  14.098  12.539  10.297  0.0737 -0.0937  0.1322
  561POPI    C2 8922  14.416  12.720  10.459  0.0988  0.1175 -0.1466
  561POPI    C3 8923  14.245  12.410  10.646  0.2286  0.2491  0.1972
  561POPI   PO4 8924  14.153  12.509  10.019 -0.0372  0.0546 -0.1699
  561POPI   GL1 8925  14.046  12.616   9.633  0.1648  0.0271 -0.3034
  561POPI   GL2 8926  13.833  12.378   9.680 -0.0723 -0.1091 -0.1149
  561POPI   C1A 8927  13.969  12.750   9.195  0.0881  0.0659 -0.3260
  561POPI   D2A 8928  13.855  12.711   8.788  0.1021 -0.0974  0.0336
  561POPI   C3A 8929  14.076  12.685   8.349  0.1797 -0.0811  0.0615
  561POPI   C4A 8930  14.193  12.415   7.929 -0.2817  0.2179 -0.1034
  561POPI   C1B 8931  13.611  12.457   9.393  0.0279 -0.1694 -0.1658
  561POPI   C2B 8932  13.327  12.262   9.091 -0.2314 -0.0553 -0.0742
  561POPI   C3B 8933  13.358  11.969   8.698 -0.2032 -0.0828  0.0441
  561POPI   C4B 8934  13.490  11.996   8.347 -0.1459 -0.1957 -0.0591
  562POPI    C1 8935   0.239   3.626  10.223 -0.0553 -0.0046 -0.0142
  562POPI    C2 8936  -0.151   3.671  10.150 -0.1255  0.0262  0.3571
  562POPI    C3 8937  -0.031   3.462  10.469  0.1654 -0.0926  0.1737
  562POPI   PO4 8938   0.300   3.550   9.909  0.2973 -0.0605  0.3060
  562POPI   GL1 8939  -0.010   3.606   9.564 -0.1676 -0.0314 -0.1954
  562POPI   GL2 8940   0.263   3.845   9.447  0.1087  0.1380  0.0255
  562POPI   C1A 8941   0.044   3.552   9.080 -0.1026  0.0988 -0.1105
  562POPI   D2A 8942  -0.015   3.721   8.718 -0.2555 -0.3557  0.0278
  562POPI   C3A 8943  -0.101   3.647   8.340 -0.1808  0.0942 -0.3297
  562POPI   C4A 8944   0.050   3.562   8.021  0.2925  0.1817  0.0898
  562POPI   C1B 8945   0.481   3.822   8.987  0.0538  0.0485  0.1611
  562POPI   C2B 8946   0.557   3.436   8.836  0.0160 -0.0054 -0.0516
  562POPI   C3B 8947   0.754   3.308   8.561  0.0427 -0.0190 -0.2389
  562POPI   C4B 8948   1.004   3.024   8.284  0.0501 -0.1732  0.0818
  563POPI    C1 8949   8.708  10.229  10.028  0.0444  0.0215  0.1308
  563POPI    C2 8950   8.498   9.966  10.244  0.2850 -0.1179  0.1988
  563POPI    C3 8951   8.592  10.322  10.400 -0.0198  0.0022  0.1156
  563POPI   PO4 8952   8.638  10.205   9.824  0.1843  0.2088  0.1055
  563POPI   GL1 8953   8.603   9.987   9.414 -0.0641  0.0823 -0.0784
  563POPI   GL2 8954   8.908  10.031   9.431 -0.0199 -0.0973 -0.0651
  563POPI   C1A 8955   8.537  10.073   8.997 -0.1617  0.3129  0.2090
  563POPI   D2A 8956   8.338  10.321   8.586 -0.1737  0.2848 -0.1298
  563POPI   C3A 8957   8.600  10.277   8.228 -0.0406  0.1139  0.1849
  563POPI   C4A 8958   8.633  10.187   7.743 -0.1433 -0.2388 -0.1302
  563POPI   C1B 8959   8.986  10.197   9.023 -0.1628 -0.1736 -0.2591
  563POPI   C2B 8960   8.850  10.447   8.648  0.3478  0.1236  0.0557
  563POPI   C3B 8961   8.892  10.709   8.229  0.0364 -0.2455  0.1573
  563POPI   C4B 8962   8.925  11.170   8.085  0.1207  0.0723  0.1225
  564POPI    C1 8963   0.817   0.422   9.585 -0.0610 -0.0698 -0.0997
  564POPI    C2 8964   0.440   0.410   9.452 -0.0445 -0.0835 -0.1453
  564POPI    C3 8965   0.521   0.314   9.831 -0.1025  0.0385 -0.1017
  564POPI   PO4 8966   0.977   0.261   9.425 -0.1016 -0.2323  0.1701
  564POPI   GL1 8967   1.286   0.242   9.072  0.3114  0.2063 -0.3311
  564POPI   GL2 8968   0.932   0.345   8.937  0.1280  0.0459 -0.2406
  564POPI   C1A 8969   1.496   0.284   8.644 -0.0109  0.0036 -0.1918
  564POPI   D2A 8970   1.866   0.258   8.606 -0.0381 -0.0082  0.0375
  564POPI   C3A 8971   2.102  -0.085   8.755 -0.0890 -0.0400 -0.0752
  564POPI   C4A 8972   2.155  -0.414   8.989  0.1066  0.3718  0.3365
  564POPI   C1B 8973   0.771   0.130   8.496  0.0020  0.1596  0.0658
  564POPI   C2B 8974   0.963   0.005   8.237  0.1104  0.2187  0.5373
  564POPI   C3B 8975   1.324  -0.066   7.933  0.0180 -0.2566  0.3590
  564POPI   C4B 8976   1.510  -0.415   7.784  0.0456 -0.0907  0.0234
  565POPI    C1 8977  10.152  11.890   9.979  0.1135 -0.1761  0.2669
  565POPI    C2 8978   9.834  12.109  10.084  0.0106 -0.2695  0.1522
  565POPI    C3 8979   9.831  11.712  10.137  0.0809 -0.2789  0.0882
  565POPI   PO4 8980  10.253  12.117   9.724  0.0683  0.2599 -0.2686
  565POPI   GL1 8981  10.475  11.986   9.399  0.1055  0.0134 -0.1764
  565POPI   GL2 8982  10.252  11.743   9.294 -0.0502  0.0308 -0.0220
  565POPI   C1A 8983  10.222  12.252   9.082 -0.2229  0.1673  0.0926
  565POPI   D2A 8984   9.906  12.504   8.871  0.0830  0.2306  0.0401
  565POPI   C3A 8985   9.482  12.313   8.652 -0.2246  0.1287 -0.1235
  565POPI   C4A 8986   9.499  11.861   8.566  0.2118  0.0152  0.0230
  565POPI   C1B 8987  10.385  11.787   8.834 -0.3083 -0.3480 -0.0826
  565POPI   C2B 8988  10.343  11.668   8.450  0.1525 -0.0762  0.2102
  565POPI   C3B 8989  10.279  11.648   8.098  0.0969  0.0978 -0.2784
  565POPI   C4B 8990  10.506  11.642   7.644 -0.2737  0.3349  0.0327
  566POPI    C1 8991   7.071   4.371  10.035 -0.0926 -0.0355  0.0697
  566POPI    C2 8992   6.973   4.500  10.401  0.0961  0.0664  0.0857
  566POPI    C3 8993   7.291   4.262  10.351  0.1870  0.2119 -0.0354
  566POPI   PO4 8994   6.908   4.223   9.903 -0.1097 -0.0149 -0.0441
  566POPI   GL1 8995   6.984   4.014   9.489 -0.0478 -0.4332  0.0980
  566POPI   GL2 8996   7.131   4.298   9.322  0.1864 -0.2291 -0.2263
  566POPI   C1A 8997   6.997   3.668   9.168 -0.0380 -0.2624 -0.1642
  566POPI   D2A 8998   6.794   3.460   8.799 -0.0802 -0.2080 -0.1613
  566POPI   C3A 8999   6.389   3.555   8.798  0.2320  0.1886 -0.0144
  566POPI   C4A 9000   5.989   3.302   9.023  0.1840  0.0984  0.1334
  566POPI   C1B 9001   7.172   4.163   8.937 -0.1717 -0.1664 -0.0951
  566POPI   C2B 9002   7.112   3.934   8.530  0.2756 -0.0530 -0.0291
  566POPI   C3B 9003   6.899   3.837   8.118 -0.2292 -0.1405 -0.3674
  566POPI   C4B 9004   6.724   3.371   8.117 -0.2507  0.1960 -0.0469
  567POPI    C1 9005   8.451   3.421   9.798 -0.0203  0.1340  0.2068
  567POPI    C2 9006   8.286   3.504  10.153  0.2190  0.1788  0.3091
  567POPI    C3 9007   8.677   3.420  10.128  0.1429 -0.1315  0.0980
  567POPI   PO4 9008   8.381   3.187   9.690  0.2325 -0.3182  0.1001
  567POPI   GL1 9009   8.318   3.036   9.384  0.1368 -0.1521  0.2032
  567POPI   GL2 9010   8.103   2.863   9.384  0.0203  0.0596  0.1723
  567POPI   C1A 9011   8.222   3.320   9.072 -0.0037  0.1792  0.0564
  567POPI   D2A 9012   8.331   3.527   8.746 -0.0187 -0.0598 -0.0015
  567POPI   C3A 9013   8.120   3.680   8.489  0.0308  0.3624  0.1272
  567POPI   C4A 9014   8.105   3.864   8.094  0.0449  0.1854  0.0996
  567POPI   C1B 9015   7.874   2.861   9.046 -0.2139  0.3271 -0.1730
  567POPI   C2B 9016   7.694   2.700   8.640 -0.2602  0.3397 -0.3165
  567POPI   C3B 9017   7.845   2.637   8.232 -0.1329 -0.0901 -0.2025
  567POPI   C4B 9018   7.901   2.905   7.928 -0.0183 -0.0864  0.0404
  568POPI    C1 9019  16.099   2.428   9.835 -0.1153 -0.0090  0.1523
  568POPI    C2 9020  15.966   2.528  10.198 -0.1765 -0.2996  0.2127
  568POPI    C3 9021  15.713   2.515   9.889 -0.1149 -0.0032  0.1456
  568POPI   PO4 9022  16.262   2.640   9.763 -0.2344 -0.2583 -0.5434
  568POPI   GL1 9023  16.451   2.847   9.363 -0.2361  0.2010  0.2799
  568POPI   GL2 9024  16.659   3.072   9.376 -0.0307 -0.2078  0.3484
  568POPI   C1A 9025  16.372   3.016   8.919  0.0519  0.2218  0.3393
  568POPI   D2A 9026  16.445   3.347   8.798 -0.0244  0.1425 -0.1994
  568POPI   C3A 9027  16.514   3.262   8.415 -0.0161 -0.0407  0.2597
  568POPI   C4A 9028  16.290   3.301   8.092  0.0752  0.0369 -0.1089
  568POPI   C1B 9029  16.808   3.419   9.150 -0.2176 -0.1801  0.1358
  568POPI   C2B 9030  16.911   3.585   8.656  0.0849  0.1380 -0.0944
  568POPI   C3B 9031  16.887   3.472   8.165  0.0050  0.2041 -0.1743
  568POPI   C4B 9032  16.691   3.292   7.797 -0.2260  0.0859  0.0259
  569POPI    C1 9033  15.081   0.171   9.864  0.0628 -0.0351 -0.0655
  569POPI    C2 9034  14.960   0.499  10.058  0.0557 -0.0921  0.0268
  569POPI    C3 9035  15.136   0.201  10.259  0.0760 -0.1384 -0.0592
  569POPI   PO4 9036  15.238   0.290   9.663  0.2188  0.3464  0.0396
  569POPI   GL1 9037  15.380   0.071   9.331 -0.0730  0.1477  0.0557
  569POPI   GL2 9038  15.291   0.317   9.163 -0.0934 -0.1277 -0.3074
  569POPI   C1A 9039  15.424  -0.211   8.962 -0.3826  0.0263  0.2188
  569POPI   D2A 9040  15.407  -0.639   8.886 -0.2678  0.0160 -0.0774
  569POPI   C3A 9041  15.169  -0.871   8.608  0.0187 -0.1515 -0.1355
  569POPI   C4A 9042  14.725  -0.810   8.494 -0.4646 -0.2286  0.1773
  569POPI   C1B 9043  15.342   0.171   8.721 -0.1309  0.2045 -0.1593
  569POPI   C2B 9044  15.209   0.106   8.288  0.2809  0.1387 -0.2589
  569POPI   C3B 9045  15.206  -0.174   7.840 -0.0078 -0.2015 -0.3409
  569POPI   C4B 9046  14.885  -0.331   7.679  0.2226 -0.0650  0.1076
  570POPI    C1 9047  10.617  14.813   9.698 -0.0148  0.1791  0.1664
  570POPI    C2 9048  10.816  14.772  10.043  0.2243  0.3232  0.0484
  570POPI    C3 9049  10.669  15.129   9.938 -0.0000  0.2420  0.0807
  570POPI   PO4 9050  10.808  14.698   9.485  0.3098  0.1023 -0.1234
  570POPI   GL1 9051  10.779  14.742   9.111 -0.4029  0.1149 -0.1270
  570POPI   GL2 9052  11.126  14.572   9.138  0.3471  0.0496 -0.0259
  570POPI   C1A 9053  10.928  14.723   8.732 -0.1724  0.1604 -0.2981
  570POPI   D2A 9054  11.269  14.808   8.480 -0.2775 -0.1124 -0.3335
  570POPI   C3A 9055  11.136  14.942   8.123 -0.0365 -0.3208  0.1011
  570POPI   C4A 9056  11.341  15.054   7.651  0.0095 -0.4539 -0.3379
  570POPI   C1B 9057  11.164  14.314   8.832  0.0220  0.1470 -0.2290
  570POPI   C2B 9058  11.197  14.290   8.444  0.0294 -0.1025  0.0099
  570POPI   C3B 9059  11.143  14.466   8.180  0.0613  0.3892  0.1549
  570POPI   C4B 9060  11.033  14.603   7.726 -0.1019  0.3159 -0.0066
  571POPI    C1 9061  14.086  10.819  10.407 -0.1076  0.2790 -0.1068
  571POPI    C2 9062  14.306  11.136  10.299  0.0324  0.2833  0.1830
  571POPI    C3 9063  13.981  11.186  10.526  0.0487  0.2213  0.2206
  571POPI   PO4 9064  14.182  10.645  10.228 -0.1836  0.3158 -0.0399
  571POPI   GL1 9065  14.551  10.543   9.911  0.0109  0.2404  0.1594
  571POPI   GL2 9066  14.685  10.836   9.784  0.1554 -0.0429  0.1326
  571POPI   C1A 9067  14.217  10.789   9.616 -0.0557  0.0042  0.0082
  571POPI   D2A 9068  14.126  11.119   9.319 -0.1979 -0.1530  0.1088
  571POPI   C3A 9069  14.334  11.033   9.036 -0.1470 -0.0633  0.2713
  571POPI   C4A 9070  14.546  10.778   8.717  0.2366  0.1008 -0.2732
  571POPI   C1B 9071  14.628  11.163   9.476  0.3638  0.0291 -0.1435
  571POPI   C2B 9072  14.852  11.209   9.012 -0.1829 -0.1456  0.2499
  571POPI   C3B 9073  14.655  11.326   8.626 -0.1646 -0.0888  0.2203
  571POPI   C4B 9074  14.564  11.137   8.159  0.1360  0.2693  0.2082
  572POPI    C1 9075   0.708  16.889  10.389 -0.0032 -0.1342 -0.1665
  572POPI    C2 9076   0.721  17.283  10.322  0.0849 -0.1047  0.0197
  572POPI    C3 9077   0.553  17.142  10.657 -0.2183 -0.2426 -0.1858
  572POPI   PO4 9078   0.620  16.801  10.152 -0.3786  0.0347 -0.2298
  572POPI   GL1 9079   0.585  16.823   9.697 -0.1629  0.3171 -0.2264
  572POPI   GL2 9080   0.774  16.601   9.674 -0.1031 -0.3234 -0.1592
  572POPI   C1A 9081   0.412  16.914   9.336  0.1794 -0.2063  0.1138
  572POPI   D2A 9082   0.274  17.119   8.928  0.0264 -0.0793  0.0330
  572POPI   C3A 9083   0.564  17.132   8.504  0.2220 -0.3498  0.1389
  572POPI   C4A 9084   0.605  17.509   8.400  0.3260  0.2792 -0.1416
  572POPI   C1B 9085   0.867  16.706   9.183  0.0001 -0.2107  0.4270
  572POPI   C2B 9086   1.091  16.782   8.813  0.0375  0.0368 -0.0992
  572POPI   C3B 9087   1.322  16.792   8.433 -0.1386 -0.1709 -0.2855
  572POPI   C4B 9088   1.520  16.898   8.105 -0.0898 -0.0965 -0.0469
  573POPI    C1 9089   8.692  15.551   9.869 -0.1683 -0.0863 -0.1333
  573POPI    C2 9090   9.058  15.415   9.781 -0.1303  0.0005 -0.1103
  573POPI    C3 9091   8.809  15.191   9.999 -0.0651 -0.0293 -0.0659
  573POPI   PO4 9092   8.613  15.661   9.650 -0.0573 -0.3839 -0.0744
  573POPI   GL1 9093   8.865  15.733   9.343  0.5689 -0.2896  0.1060
  573POPI   GL2 9094   9.062  15.831   9.470 -0.1881 -0.1567  0.0762
  573POPI   C1A 9095   8.737  15.645   8.859 -0.0381  0.2241  0.0908
  573POPI   D2A 9096   8.497  15.652   8.467  0.2580 -0.0171 -0.0881
  573POPI   C3A 9097   8.735  15.674   8.161  0.0162 -0.0310  0.0541
  573POPI   C4A 9098   8.596  15.931   7.711 -0.0061 -0.0755  0.0769
  573POPI   C1B 9099   9.023  16.126   9.100  0.0308  0.0406  0.1292
  573POPI   C2B 9100   9.263  16.199   8.711 -0.0340  0.0188 -0.1994
  573POPI   C3B 9101   9.290  16.339   8.277  0.3411 -0.1324 -0.2922
  573POPI   C4B 9102   9.393  16.333   7.831 -0.0481  0.0119 -0.0086
  574DPPI    C1 9103  12.875   0.374   9.914 -0.1160  0.1049  0.0345
  574DPPI    C2 9104  12.630   0.228  10.196 -0.3474  0.3375 -0.0417
  574DPPI    C3 9105  12.964   0.422  10.301 -0.0112 -0.2700  0.0613
  574DPPI   PO4 9106  12.864   0.230   9.734 -0.3030  0.0010  0.2391
  574DPPI   GL1 9107  12.882   0.128   9.275 -0.0664  0.1859  0.0967
  574DPPI   GL2 9108  12.690   0.444   9.243  0.1857  0.0520  0.0851
  574DPPI   C1A 9109  12.956  -0.101   8.850 -0.0018 -0.1153 -0.4888
  574DPPI   C2A 9110  13.025  -0.149   8.466  0.0370  0.1297 -0.0114
  574DPPI   C3A 9111  13.325  -0.099   8.178 -0.2463 -0.0570 -0.0063
  574DPPI   C4A 9112  13.692   0.026   8.008  0.0646  0.2002  0.2922
  574DPPI   C1B 9113  12.662   0.321   8.799 -0.3400  0.0576  0.0842
  574DPPI   C2B 9114  12.764   0.275   8.395  0.0893 -0.0052 -0.0559
  574DPPI   C3B 9115  12.823   0.050   8.023  0.1757  0.2407 -0.0344
  574DPPI   C4B 9116  12.946  -0.423   7.933 -0.3015 -0.1005  0.2517
  575DPPI    C1 9117  13.739   1.328  10.070 -0.1062  0.1251 -0.2398
  575DPPI    C2 9118  13.656   1.113  10.397  0.0104  0.3200 -0.0801
  575DPPI    C3 9119  13.415   1.094  10.079  0.1448 -0.2268 -0.1584
  575DPPI   PO4 9120  13.965   1.257   9.959 -0.1154  0.0646  0.0367
  575DPPI   GL1 9121  14.049   1.326   9.453  0.0179  0.0156 -0.1032
  575DPPI   GL2 9122  14.335   1.448   9.457 -0.1160  0.0514  0.0764
  575DPPI   C1A 9123  13.972   1.529   9.084  0.2188 -0.3392 -0.2412
  575DPPI   C2A 9124  13.994   1.857   8.771  0.3567  0.0706 -0.0285
  575DPPI   C3A 9125  14.095   2.161   8.523  0.0685 -0.0786  0.2800
  575DPPI   C4A 9126  14.195   2.419   8.140  0.1914  0.1315  0.5838
  575DPPI   C1B 9127  14.385   1.238   9.104  0.0997 -0.0070  0.4360
  575DPPI   C2B 9128  14.320   1.265   8.781 -0.1700 -0.0889 -0.1568
  575DPPI   C3B 9129  14.076   1.442   8.376  0.0350  0.0579 -0.0056
  575DPPI   C4B 9130  13.880   1.738   8.279  0.0681 -0.3863  0.2235
  576DPPI    C1 9131   8.755   2.252  10.170  0.0207  0.0083  0.1826
  576DPPI    C2 9132   8.400   2.116  10.294 -0.1719  0.1379 -0.2110
  576DPPI    C3 9133   8.566   2.432  10.474 -0.1735 -0.0244  0.0827
  576DPPI   PO4 9134   8.762   2.279   9.899 -0.0503 -0.4007  0.2507
  576DPPI   GL1 9135   8.585   2.136   9.515 -0.2144  0.0327  0.4455
  576DPPI   GL2 9136   8.285   2.377   9.413  0.0072 -0.0671  0.3313
  576DPPI   C1A 9137   8.481   2.096   9.021 -0.1779  0.2228  0.0247
  576DPPI   C2A 9138   8.140   1.970   8.680  0.0061  0.1957  0.0519
  576DPPI   C3A 9139   8.096   2.095   8.297  0.0777 -0.2620  0.2742
  576DPPI   C4A 9140   7.858   1.955   7.929 -0.1488  0.1371  0.1724
  576DPPI   C1B 9141   8.165   2.484   8.998 -0.0855 -0.0456  0.0758
  576DPPI   C2B 9142   8.147   2.535   8.554  0.1735  0.0204 -0.0552
  576DPPI   C3B 9143   8.323   2.866   8.207 -0.0551 -0.1370  0.0373
  576DPPI   C4B 9144   8.322   3.199   7.834 -0.0021 -0.1225 -0.1479
  577DPPI    C1 9145   0.881   8.611  10.031 -0.1924 -0.1502  0.0399
  577DPPI    C2 9146   1.120   8.463  10.315 -0.0021 -0.1013 -0.0934
  577DPPI    C3 9147   1.007   8.233  10.008  0.0349 -0.0660 -0.1337
  577DPPI   PO4 9148   0.972   8.840   9.959  0.0098  0.1145 -0.0501
  577DPPI   GL1 9149   1.041   8.826   9.559 -0.2632 -0.0384 -0.0848
  577DPPI   GL2 9150   1.387   8.885   9.614 -0.0407  0.0952 -0.2223
  577DPPI   C1A 9151   1.187   8.903   9.092 -0.3918 -0.2017 -0.2076
  577DPPI   C2A 9152   1.127   8.920   8.610  0.1924 -0.0063 -0.2025
  577DPPI   C3A 9153   1.314   8.957   8.191  0.3341 -0.0192 -0.2393
  577DPPI   C4A 9154   1.643   8.863   8.016 -0.1315 -0.0882  0.1563
  577DPPI   C1B 9155   1.382   8.523   9.343 -0.1589  0.4085  0.0691
  577DPPI   C2B 9156   1.364   8.194   9.093  0.1114 -0.1144  0.2422
  577DPPI   C3B 9157   1.327   8.230   8.696 -0.2453 -0.0627 -0.1734
  577DPPI   C4B 9158   1.549   8.458   8.320 -0.2079  0.1490  0.1332
  578DPPI    C1 9159   1.215  15.252  10.517  0.3448  0.2387 -0.0573
  578DPPI    C2 9160   0.990  15.381  10.212  0.1464 -0.1281 -0.0725
  578DPPI    C3 9161   0.832  15.138  10.488  0.4441 -0.1478  0.0846
  578DPPI   PO4 9162   1.530  15.271  10.323  0.0770 -0.0426  0.1339
  578DPPI   GL1 9163   1.471  15.321   9.922 -0.0245  0.4459 -0.2497
  578DPPI   GL2 9164   1.632  15.414   9.714 -0.1453 -0.1191 -0.2258
  578DPPI   C1A 9165   1.073  15.214   9.730 -0.0195 -0.4296  0.3827
  578DPPI   C2A 9166   0.979  15.256   9.225 -0.0804 -0.2738 -0.3876
  578DPPI   C3A 9167   0.920  15.305   8.706  0.1040  0.2993 -0.2225
  578DPPI   C4A 9168   0.977  15.368   8.211  0.3161  0.0033 -0.2308
  578DPPI   C1B 9169   1.820  15.397   9.221  0.1007  0.0556 -0.1523
  578DPPI   C2B 9170   1.777  15.426   8.864 -0.0816 -0.0432 -0.2593
  578DPPI   C3B 9171   1.738  15.493   8.445  0.0535  0.0407  0.2093
  578DPPI   C4B 9172   1.470  15.484   8.105 -0.2624 -0.2740  0.0303
  579DPPI    C1 9173   9.737   7.043  10.252  0.3877 -0.2645 -0.4011
  579DPPI    C2 9174   9.935   7.045  10.599 -0.2361 -0.0875 -0.0294
  579DPPI    C3 9175   9.763   6.708  10.470  0.2653 -0.2348 -0.3395
  579DPPI   PO4 9176  10.002   7.252  10.087  0.0333 -0.0759  0.0333
  579DPPI   GL1 9177   9.893   7.532   9.777 -0.0076  0.0835 -0.1811
  579DPPI   GL2 9178  10.016   7.795   9.706 -0.0333 -0.3842 -0.0384
  579DPPI   C1A 9179  10.021   7.329   9.430  0.0679 -0.0353 -0.1137
  579DPPI   C2A 9180   9.754   7.372   9.094 -0.1363  0.3125 -0.2304
  579DPPI   C3A 9181   9.614   7.161   8.785 -0.1242 -0.0549 -0.0085
  579DPPI   C4A 9182   9.567   7.000   8.320  0.4771  0.2025 -0.1796
  579DPPI   C1B 9183   9.887   7.990   9.324 -0.0800  0.2365  0.0949
  579DPPI   C2B 9184   9.847   8.200   8.991  0.0446 -0.0594  0.1155
  579DPPI   C3B 9185  10.041   8.122   8.678  0.0509  0.2384 -0.3511
  579DPPI   C4B 9186  10.083   7.831   8.323 -0.0730  0.0885  0.0225
  580DPPI    C1 9187  11.156  18.508  10.011 -0.0447  0.0122  0.3018
  580DPPI    C2 9188  10.888  18.766   9.865  0.0237 -0.0610  0.0400
  580DPPI    C3 9189  10.976  18.768  10.256 -0.0338  0.2576  0.0544
  580DPPI   PO4 9190  11.126  18.336   9.859  0.2375 -0.0330  0.1071
  580DPPI   GL1 9191  11.297  18.114   9.514  0.2793  0.2611  0.1972
  580DPPI   GL2 9192  11.296  17.826   9.459  0.1374  0.2430  0.3599
  580DPPI   C1A 9193  11.340  18.241   9.106 -0.2840  0.2787  0.0308
  580DPPI   C2A 9194  11.425  18.146   8.660  0.2841  0.0762 -0.0576
  580DPPI   C3A 9195  11.249  18.237   8.269 -0.0862  0.0835  0.0952
  580DPPI   C4A 9196  11.149  18.398   7.975  0.0609 -0.0129 -0.1435
  580DPPI   C1B 9197  11.241  17.716   8.958 -0.0873 -0.0266 -0.3019
  580DPPI   C2B 9198  11.168  17.734   8.507  0.3132  0.1034  0.4148
  580DPPI   C3B 9199  11.174  17.723   8.073 -0.1100 -0.1237 -0.0660
  580DPPI   C4B 9200  11.283  17.948   7.802  0.0908  0.1108  0.1279
  581DPPI    C1 9201   5.027  11.173  10.371 -0.0456 -0.0387 -0.0057
  581DPPI    C2 9202   5.246  10.876  10.526 -0.0349 -0.0383 -0.0201
  581DPPI    C3 9203   5.346  11.257  10.597 -0.0932 -0.0379  0.0615
  581DPPI   PO4 9204   4.979  10.997  10.052 -0.1652 -0.0182 -0.1119
  581DPPI   GL1 9205   5.250  10.837   9.781 -0.0567 -0.1495  0.2387
  581DPPI   GL2 9206   5.399  10.506   9.697 -0.4128 -0.0615 -0.1653
  581DPPI   C1A 9207   5.097  10.864   9.316 -0.1808  0.0842  0.1010
  581DPPI   C2A 9208   5.129  11.068   8.805  0.1844 -0.1883 -0.1183
  581DPPI   C3A 9209   4.866  11.080   8.384  0.0629 -0.0277 -0.1644
  581DPPI   C4A 9210   4.512  10.785   8.176 -0.1580  0.2051 -0.0183
  581DPPI   C1B 9211   5.230  10.321   9.310 -0.3177 -0.2448  0.0384
  581DPPI   C2B 9212   5.242  10.500   8.939  0.0181  0.2702 -0.1123
  581DPPI   C3B 9213   5.281  10.683   8.473  0.0844  0.1715 -0.4130
  581DPPI   C4B 9214   5.240  10.862   8.078  0.1112  0.2070 -0.0773
  582DPPI    C1 9215  15.442   0.748   9.991 -0.2599  0.1253  0.0811
  582DPPI    C2 9216  15.250   1.064  10.143 -0.4129 -0.0369  0.2289
  582DPPI    C3 9217  15.318   0.742  10.371  0.0755  0.0339  0.1927
  582DPPI   PO4 9218  15.352   0.761   9.721 -0.0020  0.2031  0.0722
  582DPPI   GL1 9219  15.199   0.839   9.335  0.1428 -0.0466  0.2626
  582DPPI   GL2 9220  14.989   0.744   9.082 -0.1494 -0.2431 -0.1269
  582DPPI   C1A 9221  15.213   1.152   8.932 -0.0824  0.3949 -0.0622
  582DPPI   C2A 9222  15.210   1.277   8.483 -0.3274 -0.0852 -0.3840
  582DPPI   C3A 9223  15.062   1.440   8.151  0.1893 -0.0392  0.2527
  582DPPI   C4A 9224  14.855   1.309   7.744  0.0663  0.0348  0.0548
  582DPPI   C1B 9225  15.187   0.677   8.747  0.2931  0.0019  0.0163
  582DPPI   C2B 9226  15.149   0.664   8.359  0.3017 -0.2487  0.0961
  582DPPI   C3B 9227  15.327   0.913   7.976 -0.1395  0.0680  0.0037
  582DPPI   C4B 9228  15.344   1.130   7.549  0.3720  0.0795  0.0733
  583DPPI    C1 9229  11.016  11.088  10.154 -0.0869  0.1236 -0.0349
  583DPPI    C2 9230  10.658  11.177   9.998 -0.1896 -0.1500  0.0389
  583DPPI    C3 9231  10.726  11.231  10.389 -0.0965  0.0539 -0.0041
  583DPPI   PO4 9232  11.167  11.108   9.943 -0.4744 -0.1811 -0.1649
  583DPPI   GL1 9233  11.180  11.221   9.524 -0.0494  0.1951 -0.0523
  583DPPI   GL2 9234  10.809  11.300   9.555  0.0527  0.2082  0.0540
  583DPPI   C1A 9235  11.415  11.010   9.187 -0.0176 -0.2616  0.0950
  583DPPI   C2A 9236  11.609  10.904   8.894 -0.6429  0.2934  0.0307
  583DPPI   C3A 9237  11.766  10.702   8.494  0.2216 -0.1451  0.0063
  583DPPI   C4A 9238  11.903  10.522   8.127  0.1116  0.1426  0.1176
  583DPPI   C1B 9239  10.637  11.450   9.184  0.1153  0.2110 -0.0501
  583DPPI   C2B 9240  10.801  11.557   8.759  0.0922  0.0572 -0.2139
  583DPPI   C3B 9241  10.940  11.315   8.357 -0.0302  0.2386 -0.1403
  583DPPI   C4B 9242  10.690  11.324   7.977  0.1052  0.1350  0.2223
  584DPPI    C1 9243   3.944   5.718   9.883 -0.0125 -0.0335 -0.0118
  584DPPI    C2 9244   4.041   5.648  10.265 -0.0019  0.0207 -0.0046
  584DPPI    C3 9245   4.259   5.902  10.047  0.1237 -0.1758 -0.1106
  584DPPI   PO4 9246   3.961   5.558   9.724 -0.1960 -0.3081  0.3357
  584DPPI   GL1 9247   3.643   5.365   9.469  0.2571  0.0281 -0.2110
  584DPPI   GL2 9248   3.310   5.386   9.365  0.1318  0.2920 -0.1235
  584DPPI   C1A 9249   3.912   5.245   9.083 -0.2012  0.3223  0.1554
  584DPPI   C2A 9250   4.102   5.148   8.627 -0.1304  0.3829 -0.3651
  584DPPI   C3A 9251   4.227   5.304   8.231 -0.0980  0.1823 -0.1802
  584DPPI   C4A 9252   4.513   5.154   7.940  0.2667  0.1641  0.1257
  584DPPI   C1B 9253   3.231   5.535   8.968 -0.0604  0.1636  0.2758
  584DPPI   C2B 9254   3.239   5.559   8.488 -0.0506 -0.3008  0.2597
  584DPPI   C3B 9255   3.186   5.435   8.168 -0.0792 -0.1339 -0.2765
  584DPPI   C4B 9256   3.162   5.137   7.835  0.2454  0.2570 -0.0844
  585DPPI    C1 9257   2.794   9.881  10.354 -0.1334  0.0795 -0.0132
  585DPPI    C2 9258   2.960  10.125  10.623  0.0087 -0.1700  0.1294
  585DPPI    C3 9259   2.703   9.842  10.741 -0.2277 -0.0316 -0.0459
  585DPPI   PO4 9260   2.876  10.060  10.114  0.1558 -0.2322 -0.1772
  585DPPI   GL1 9261   3.116  10.288   9.691  0.0759 -0.0973 -0.0782
  585DPPI   GL2 9262   2.950  10.465   9.489 -0.1719  0.0340  0.1715
  585DPPI   C1A 9263   3.364   9.991   9.420  0.1232 -0.3360  0.2356
  585DPPI   C2A 9264   3.371   9.976   8.843 -0.1837  0.0177  0.0491
  585DPPI   C3A 9265   3.411   9.996   8.351 -0.3869  0.1747  0.0086
  585DPPI   C4A 9266   3.304   9.632   8.073 -0.1366  0.1924 -0.3048
  585DPPI   C1B 9267   3.112  10.460   9.029 -0.0959 -0.0125  0.1092
  585DPPI   C2B 9268   2.949  10.127   8.673  0.1497 -0.2368  0.2005
  585DPPI   C3B 9269   2.864  10.000   8.231 -0.2958  0.1453 -0.0721
  585DPPI   C4B 9270   2.569  10.178   7.899 -0.1698 -0.1933 -0.2111
  586DPPI    C1 9271  17.222   0.134   9.872 -0.0798  0.1717  0.0829
  586DPPI    C2 9272  17.101  -0.091  10.180  0.0423 -0.0436 -0.0247
  586DPPI    C3 9273  16.884   0.226  10.067  0.0373  0.0845  0.3313
  586DPPI   PO4 9274  17.230   0.004   9.678 -0.1109 -0.2267 -0.0828
  586DPPI   GL1 9275  16.996  -0.125   9.320 -0.1181  0.0879  0.1646
  586DPPI   GL2 9276  17.178  -0.274   9.012  0.0618  0.1006 -0.1071
  586DPPI   C1A 9277  16.747  -0.127   8.907 -0.2516  0.0246  0.1486
  586DPPI   C2A 9278  16.651  -0.194   8.520 -0.0318  0.1814  0.0042
  586DPPI   C3A 9279  16.812  -0.203   8.093 -0.1396  0.0334  0.0429
  586DPPI   C4A 9280  17.059   0.044   7.882  0.0352 -0.0842 -0.1504
  586DPPI   C1B 9281  17.126  -0.262   8.575 -0.0700  0.3236  0.3985
  586DPPI   C2B 9282  17.446  -0.315   8.210  0.1485  0.0128  0.1606
  586DPPI   C3B 9283  17.343  -0.332   7.744  0.2290 -0.1130  0.1026
  586DPPI   C4B 9284  17.234  -0.137   7.397  0.0891  0.0232  0.2434
  587DPPI    C1 9285  11.211  14.111   9.759 -0.0900  0.3191  0.1126
  587DPPI    C2 9286  11.304  14.402  10.018  0.1562  0.0020  0.3890
  587DPPI    C3 9287  11.544  14.084   9.979 -0.0359 -0.1007 -0.0123
  587DPPI   PO4 9288  11.219  14.137   9.465  0.1068  0.1606 -0.0369
  587DPPI   GL1 9289  11.477  13.934   9.195 -0.1550 -0.1493  0.2200
  587DPPI   GL2 9290  11.557  14.315   9.124  0.0124 -0.1560  0.3216
  587DPPI   C1A 9291  11.480  13.540   9.013 -0.0854 -0.5172 -0.2187
  587DPPI   C2A 9292  11.508  13.252   8.804  0.1395  0.2926 -0.1895
  587DPPI   C3A 9293  11.224  13.018   8.605  0.1569  0.1223 -0.1554
  587DPPI   C4A 9294  10.935  12.836   8.378 -0.0862  0.0185  0.3583
  587DPPI   C1B 9295  11.684  14.289   8.720  0.1486  0.0515 -0.0125
  587DPPI   C2B 9296  11.704  14.524   8.355  0.0873  0.1496 -0.1726
  587DPPI   C3B 9297  11.977  14.543   8.115  0.0813  0.0015 -0.2022
  587DPPI   C4B 9298  12.318  14.464   7.787  0.2088  0.1001  0.0977
  588DPPI    C1 9299  12.980  16.472   9.781  0.1839  0.1630  0.1492
  588DPPI    C2 9300  12.983  16.287  10.136  0.1612  0.0367  0.0841
  588DPPI    C3 9301  12.774  16.625  10.088  0.1357  0.0351  0.1814
  588DPPI   PO4 9302  13.167  16.482   9.603 -0.0123 -0.0176 -0.0009
  588DPPI   GL1 9303  13.205  16.196   9.240 -0.1047 -0.0204 -0.0624
  588DPPI   GL2 9304  13.477  16.154   9.127  0.1752  0.0816 -0.1679
  588DPPI   C1A 9305  13.119  16.505   8.896 -0.0214  0.0522  0.0378
  588DPPI   C2A 9306  13.079  16.497   8.470 -0.1638 -0.0072 -0.0935
  588DPPI   C3A 9307  13.025  16.532   8.115  0.0686 -0.2046  0.0757
  588DPPI   C4A 9308  12.758  16.434   7.731  0.1560  0.1045  0.0708
  588DPPI   C1B 9309  13.305  16.052   8.693 -0.0531 -0.0438 -0.0187
  588DPPI   C2B 9310  13.297  16.067   8.237  0.0652  0.0697 -0.0425
  588DPPI   C3B 9311  13.227  16.127   7.786 -0.1265  0.0940 -0.0243
  588DPPI   C4B 9312  13.290  15.811   7.392 -0.2015 -0.0535 -0.0220
  589DPPI    C1 9313  16.242   6.792  10.061  0.0745  0.0665  0.0986
  589DPPI    C2 9314  16.446   6.551  10.307  0.0023 -0.1881 -0.0865
  589DPPI    C3 9315  16.120   6.742  10.439  0.1061 -0.1261  0.0843
  589DPPI   PO4 9316  16.366   6.808   9.843  0.0038 -0.0653 -0.1328
  589DPPI   GL1 9317  16.570   6.978   9.554 -0.1299  0.0475 -0.1395
  589DPPI   GL2 9318  16.565   7.240   9.423 -0.0632 -0.1348  0.0451
  589DPPI   C1A 9319  16.480   6.689   9.257  0.1426  0.1412 -0.0913
  589DPPI   C2A 9320  16.196   6.645   8.845 -0.1455  0.2339 -0.2985
  589DPPI   C3A 9321  15.925   6.660   8.454 -0.1386 -0.1022 -0.0833
  589DPPI   C4A 9322  15.968   6.281   8.182 -0.0880 -0.1378 -0.0533
  589DPPI   C1B 9323  16.546   7.165   8.894 -0.0334  0.3567 -0.1433
  589DPPI   C2B 9324  16.425   6.968   8.469 -0.1692  0.1925  0.2597
  589DPPI   C3B 9325  16.405   6.452   8.439  0.4107  0.4762 -0.0285
  589DPPI   C4B 9326  16.515   6.039   8.361 -0.0526 -0.0153 -0.3446
  590DPPI    C1 9327   9.211  15.091   9.326 -0.0445  0.1196  0.0975
  590DPPI    C2 9328   9.121  14.929   9.681  0.1778 -0.0964  0.0582
  590DPPI    C3 9329   9.120  14.702   9.351  0.1205  0.0699 -0.0575
  590DPPI   PO4 9330   9.183  15.389   9.327 -0.2347  0.3096 -0.1032
  590DPPI   GL1 9331   9.208  15.644   8.915 -0.2467  0.0645 -0.0600
  590DPPI   GL2 9332   9.462  15.830   8.994 -0.1713  0.0584  0.0801
  590DPPI   C1A 9333   9.054  15.711   8.526 -0.1725 -0.0503  0.0880
  590DPPI   C2A 9334   9.198  15.883   8.097  0.1149 -0.2361  0.1096
  590DPPI   C3A 9335   9.120  15.739   7.642 -0.0265  0.3999  0.3115
  590DPPI   C4A 9336   8.837  15.581   7.400 -0.2289  0.1016 -0.2978
  590DPPI   C1B 9337   9.560  15.802   8.477 -0.1340 -0.0289 -0.0571
  590DPPI   C2B 9338   9.686  15.849   8.072  0.2360  0.3600  0.3114
  590DPPI   C3B 9339   9.578  15.817   7.720  0.0825 -0.1323 -0.0154
  590DPPI   C4B 9340   9.779  15.955   7.388 -0.1090 -0.2042  0.2046
  591DPPI    C1 9341   4.328   5.174  10.137 -0.0118  0.1511 -0.1039
  591DPPI    C2 9342   4.630   5.157  10.400 -0.1135  0.0953  0.0102
  591DPPI    C3 9343   4.263   5.258  10.523 -0.2150 -0.1741 -0.0635
  591DPPI   PO4 9344   4.375   5.412   9.978  0.0076  0.2526  0.0395
  591DPPI   GL1 9345   4.494   5.395   9.531  0.0772  0.0680 -0.2490
  591DPPI   GL2 9346   4.753   5.279   9.353 -0.1031  0.3649  0.1407
  591DPPI   C1A 9347   4.362   5.538   9.219  0.3227  0.2304  0.1351
  591DPPI   C2A 9348   4.209   5.616   8.834 -0.0101  0.0724  0.1587
  591DPPI   C3A 9349   4.339   5.789   8.445  0.0349 -0.1603  0.0624
  591DPPI   C4A 9350   4.197   5.950   8.068 -0.0743 -0.2412 -0.2090
  591DPPI   C1B 9351   4.641   5.217   8.888 -0.1018 -0.0867  0.1113
  591DPPI   C2B 9352   4.693   5.534   8.639 -0.1384 -0.2011  0.0699
  591DPPI   C3B 9353   4.826   5.854   8.416  0.3420  0.1437  0.0678
  591DPPI   C4B 9354   4.639   6.119   8.150  0.1042  0.0240  0.3139
  592DPPI    C1 9355  11.825  13.186   9.778 -0.1497 -0.0557 -0.1678
  592DPPI    C2 9356  11.518  13.241  10.028  0.1287  0.1359  0.1408
  592DPPI    C3 9357  11.868  13.110  10.169  0.2168  0.0019 -0.1936
  592DPPI   PO4 9358  11.810  13.323   9.644  0.0961  0.0425  0.1836
  592DPPI   GL1 9359  11.719  13.123   9.265  0.2923 -0.1741 -0.2194
  592DPPI   GL2 9360  11.917  12.936   9.272 -0.2001 -0.1264  0.1023
  592DPPI   C1A 9361  11.956  13.339   8.942 -0.0597  0.0329 -0.2167
  592DPPI   C2A 9362  11.780  13.607   8.612  0.1063  0.0198 -0.3367
  592DPPI   C3A 9363  11.850  13.649   8.159  0.1647  0.4962  0.0955
  592DPPI   C4A 9364  11.969  13.564   7.701  0.2859 -0.0546  0.0823
  592DPPI   C1B 9365  12.080  12.825   8.860 -0.1213  0.2125  0.2322
  592DPPI   C2B 9366  12.201  12.661   8.439  0.2385 -0.3352 -0.1887
  592DPPI   C3B 9367  12.434  12.774   8.052  0.1339  0.2625 -0.4227
  592DPPI   C4B 9368  12.784  12.892   7.768 -0.1136 -0.1138  0.0318
  593DPPI    C1 9369   0.554   9.528  10.294  0.0385 -0.1427  0.0477
  593DPPI    C2 9370   0.340   9.210  10.407 -0.1107  0.0485  0.3144
  593DPPI    C3 9371   0.595   9.381  10.663  0.0142  0.1085  0.1522
  593DPPI   PO4 9372   0.609   9.401  10.008  0.0740  0.1264 -0.1871
  593DPPI   GL1 9373   0.516   9.289   9.612  0.1240 -0.1601  0.1077
  593DPPI   GL2 9374   0.840   9.261   9.583 -0.0920 -0.0016  0.1537
  593DPPI   C1A 9375   0.251   9.229   9.317  0.1515 -0.0917 -0.0110
  593DPPI   C2A 9376   0.262   9.264   8.902 -0.2676 -0.1414  0.0505
  593DPPI   C3A 9377   0.334   9.157   8.563 -0.2406 -0.0506 -0.0899
  593DPPI   C4A 9378   0.308   9.104   8.150 -0.3333  0.2150 -0.0426
  593DPPI   C1B 9379   0.755   9.294   9.157  0.1551 -0.0095 -0.2246
  593DPPI   C2B 9380   0.801   9.270   8.670  0.0897 -0.1248  0.0378
  593DPPI   C3B 9381   0.781   9.331   8.279 -0.1300  0.1632  0.0477
  593DPPI   C4B 9382   0.935   9.171   7.921  0.0164  0.1827  0.0287
  594PYPI    C1 9383  16.848   9.268  10.264 -0.0178  0.0975 -0.0491
  594PYPI    C2 9384  17.156   9.523  10.263 -0.1000  0.2008 -0.3602
  594PYPI    C3 9385  16.790   9.652  10.362 -0.0313  0.0558  0.1085
  594PYPI   PO4 9386  16.855   9.189  10.025  0.2573 -0.0058  0.0124
  594PYPI   GL1 9387  16.702   9.148   9.566 -0.0422 -0.2750 -0.1907
  594PYPI   GL2 9388  16.766   8.970   9.365 -0.2106  0.2667 -0.0722
  594PYPI   C1A 9389  16.705   9.461   9.309  0.1577  0.0912  0.0553
  594PYPI   C2A 9390  16.921   9.812   9.093 -0.0981  0.1315 -0.3473
  594PYPI   D3A 9391  17.042   9.963   8.735 -0.0379  0.0367 -0.0311
  594PYPI   C4A 9392  17.290  10.140   8.708 -0.0973 -0.1102 -0.0998
  594PYPI   C1B 9393  16.799   8.963   8.892 -0.1290  0.0773  0.1170
  594PYPI   C2B 9394  16.635   8.875   8.511  0.0598 -0.0616 -0.2530
  594PYPI   C3B 9395  16.222   9.023   8.300 -0.2651  0.5452 -0.0614
  594PYPI   C4B 9396  16.016   8.803   7.943 -0.2489  0.3606 -0.0408
  595PYPI    C1 9397   6.357   4.399  10.049  0.0240  0.2942  0.0891
  595PYPI    C2 9398   6.289   4.019  10.155  0.0890  0.1593 -0.3326
  595PYPI    C3 9399   6.612   4.211  10.293 -0.0312  0.1200  0.0140
  595PYPI   PO4 9400   6.283   4.442   9.747 -0.2534  0.2787 -0.2666
  595PYPI   GL1 9401   6.205   4.610   9.393 -0.1506 -0.4182  0.2963
  595PYPI   GL2 9402   6.076   4.886   9.338  0.2951  0.2909 -0.0255
  595PYPI   C1A 9403   5.911   4.566   9.012  0.1191  0.0236 -0.1161
  595PYPI   C2A 9404   5.790   4.562   8.620  0.0467 -0.2434 -0.1011
  595PYPI   D3A 9405   5.584   4.612   8.267  0.0034 -0.3067  0.3393
  595PYPI   C4A 9406   5.812   4.760   7.905 -0.2536 -0.0430 -0.1037
  595PYPI   C1B 9407   6.378   4.859   8.932  0.0922 -0.0302 -0.1495
  595PYPI   C2B 9408   6.590   4.833   8.552  0.3332  0.0525 -0.2532
  595PYPI   C3B 9409   6.726   4.734   8.194 -0.0239 -0.3922 -0.2977
  595PYPI   C4B 9410   6.855   4.946   7.890  0.0122  0.0499 -0.3554
  596PYPI    C1 9411   0.758  12.442  10.440  0.0085 -0.2077  0.2630
  596PYPI    C2 9412   0.657  12.107  10.246  0.0031 -0.0675  0.0192
  596PYPI    C3 9413   0.923  12.093  10.544  0.0968 -0.2697 -0.0716
  596PYPI   PO4 9414   0.835  12.606  10.282  0.1266 -0.1231 -0.3529
  596PYPI   GL1 9415   0.886  12.544   9.802  0.1235  0.0115 -0.0093
  596PYPI   GL2 9416   0.664  12.567   9.743  0.0158 -0.0877 -0.2275
  596PYPI   C1A 9417   1.091  12.684   9.469  0.1423  0.4264 -0.2423
  596PYPI   C2A 9418   1.081  12.775   9.054 -0.2967 -0.0839  0.2112
  596PYPI   D3A 9419   0.901  12.685   8.567 -0.0394  0.2878  0.0328
  596PYPI   C4A 9420   0.616  12.567   8.239 -0.3686  0.1781 -0.1040
  596PYPI   C1B 9421   0.476  12.460   9.400  0.2293 -0.0219 -0.3595
  596PYPI   C2B 9422   0.863  12.307   9.047  0.0914 -0.0599  0.0519
  596PYPI   C3B 9423   0.739  12.192   8.604 -0.1244  0.0292  0.1187
  596PYPI   C4B 9424   0.838  12.106   8.148  0.0098  0.4878 -0.2082
  597PYPI    C1 9425  14.809   6.795  10.057  0.0477  0.1160  0.2416
  597PYPI    C2 9426  14.587   6.580  10.312  0.0845 -0.1702  0.0370
  597PYPI    C3 9427  14.977   6.502  10.270  0.0653 -0.1691 -0.1538
  597PYPI   PO4 9428  14.706   6.835   9.880  0.2265 -0.2181  0.0773
  597PYPI   GL1 9429  14.793   6.865   9.400 -0.1435 -0.0891  0.3134
  597PYPI   GL2 9430  14.588   6.564   9.362  0.0681 -0.0592 -0.0600
  597PYPI   C1A 9431  15.091   6.420   9.178 -0.0270 -0.2859  0.0801
  597PYPI   C2A 9432  15.239   6.213   8.828 -0.1655 -0.0883  0.0923
  597PYPI   D3A 9433  15.121   5.993   8.545 -0.2062  0.1895 -0.1461
  597PYPI   C4A 9434  14.959   6.274   8.237 -0.1878  0.2204  0.0036
  597PYPI   C1B 9435  14.669   6.695   8.970  0.1685 -0.1642  0.0709
  597PYPI   C2B 9436  14.340   6.534   8.626 -0.0154 -0.3342  0.1517
  597PYPI   C3B 9437  13.878   6.298   8.731 -0.1581  0.1718 -0.0217
  597PYPI   C4B 9438  13.722   6.126   9.039  0.0084 -0.1380 -0.4181
  598PYPI    C1 9439   8.554  13.098   9.426  0.1795  0.0206  0.2686
  598PYPI    C2 9440   8.224  12.986   9.621 -0.0347 -0.0456 -0.1212
  598PYPI    C3 9441   8.481  12.710   9.489  0.0783 -0.0044  0.0101
  598PYPI   PO4 9442   8.511  13.217   9.248  0.0448 -0.0956  0.3285
  598PYPI   GL1 9443   8.682  13.042   8.837  0.0466 -0.1639  0.0823
  598PYPI   GL2 9444   8.624  12.803   8.908 -0.0007 -0.1713  0.0117
  598PYPI   C1A 9445   8.364  13.111   8.596  0.0172  0.1688 -0.0657
  598PYPI   C2A 9446   8.235  13.314   8.219  0.0567  0.3389  0.1735
  598PYPI   D3A 9447   8.147  13.536   7.828  0.2626 -0.1659 -0.0546
  598PYPI   C4A 9448   8.319  13.409   7.468 -0.0675  0.0425 -0.5036
  598PYPI   C1B 9449   8.627  12.415   8.654 -0.1074 -0.2186 -0.1115
  598PYPI   C2B 9450   8.630  12.197   8.238 -0.3077 -0.1393 -0.5058
  598PYPI   C3B 9451   8.732  12.375   7.812 -0.1114  0.1487  0.2269
  598PYPI   C4B 9452   9.035  12.721   7.864 -0.3766  0.0772  0.0102
  599PYPI    C1 9453   6.276   0.972   9.691 -0.0691 -0.0407 -0.0423
  599PYPI    C2 9454   6.004   0.709   9.820  0.1089 -0.1790  0.0570
  599PYPI    C3 9455   6.223   0.915  10.084  0.0183  0.0198 -0.0212
  599PYPI   PO4 9456   6.207   1.007   9.431 -0.2077 -0.4205  0.1630
  599PYPI   GL1 9457   6.383   0.904   9.080  0.0401  0.1594 -0.0968
  599PYPI   GL2 9458   6.523   1.380   9.143  0.0341 -0.0636 -0.2445
  599PYPI   C1A 9459   6.346   0.883   8.650 -0.1708  0.1261 -0.2128
  599PYPI   C2A 9460   6.382   1.097   8.252 -0.1860  0.0721 -0.1157
  599PYPI   D3A 9461   6.567   1.033   7.886  0.2318  0.2198 -0.0741
  599PYPI   C4A 9462   6.988   0.903   7.562  0.1155  0.0570 -0.5089
  599PYPI   C1B 9463   6.493   1.534   8.769 -0.1499 -0.0431 -0.1245
  599PYPI   C2B 9464   6.566   1.572   8.256 -0.3162  0.1605  0.1677
  599PYPI   C3B 9465   6.601   1.589   7.816 -0.0440  0.2426 -0.1502
  599PYPI   C4B 9466   6.897   1.547   7.415  0.0413  0.1653  0.0867
  600PYPI    C1 9467  13.166  13.019  10.127  0.0359 -0.0458  0.0167
  600PYPI    C2 9468  13.486  13.197  10.289  0.0647  0.0153 -0.1062
  600PYPI    C3 9469  13.201  13.046  10.525  0.2300 -0.1244  0.0065
  600PYPI   PO4 9470  13.240  12.724   9.979 -0.1923 -0.0414  0.0600
  600PYPI   GL1 9471  13.370  12.865   9.569 -0.0084 -0.2801 -0.0161
  600PYPI   GL2 9472  13.694  13.006   9.499  0.1315  0.0770  0.1777
  600PYPI   C1A 9473  13.366  12.768   9.074  0.2747 -0.4950 -0.3630
  600PYPI   C2A 9474  13.333  12.643   8.631 -0.0395 -0.2728 -0.4193
  600PYPI   D3A 9475  13.513  12.465   8.322 -0.1037 -0.1995 -0.0824
  600PYPI   C4A 9476  13.166  12.345   8.098 -0.1377  0.1005  0.0465
  600PYPI   C1B 9477  13.714  13.218   9.259  0.1592 -0.2458  0.0817
  600PYPI   C2B 9478  13.727  13.205   8.870  0.1332  0.3746 -0.0177
  600PYPI   C3B 9479  13.712  12.984   8.414 -0.0089 -0.0313 -0.0799
  600PYPI   C4B 9480  13.780  12.754   7.986 -0.3500 -0.1612  0.2359
  601PYPI    C1 9481   5.754   1.968   9.803  0.1347  0.1179 -0.0547
  601PYPI    C2 9482   5.446   1.959   9.549  0.1890  0.0400 -0.1183
  601PYPI    C3 9483   5.498   1.661   9.810  0.0480  0.1925  0.0869
  601PYPI   PO4 9484   5.935   1.926   9.678  0.1874 -0.1298  0.0269
  601PYPI   GL1 9485   5.952   2.042   9.276  0.0605  0.0349 -0.2961
  601PYPI   GL2 9486   5.740   2.223   9.171  0.0909 -0.2599 -0.1520
  601PYPI   C1A 9487   6.204   1.878   8.941  0.3119  0.1540 -0.3285
  601PYPI   C2A 9488   6.257   1.922   8.621  0.1740 -0.1796  0.1525
  601PYPI   D3A 9489   6.206   1.932   8.178  0.0551 -0.1080 -0.0685
  601PYPI   C4A 9490   6.199   2.398   8.062  0.3504 -0.1842 -0.2424
  601PYPI   C1B 9491   5.930   2.308   8.828  0.1235  0.2783  0.0917
  601PYPI   C2B 9492   6.283   2.428   8.659  0.0075  0.0102  0.1117
  601PYPI   C3B 9493   6.396   2.740   8.404 -0.1617 -0.0936  0.0656
  601PYPI   C4B 9494   6.359   3.185   8.435  0.0717 -0.1396  0.3243
  602PYPI    C1 9495   7.281  17.475  10.080  0.0450  0.0023  0.1855
  602PYPI    C2 9496   7.326  17.607  10.455  0.0674 -0.1101  0.2228
  602PYPI    C3 9497   7.518  17.277  10.334  0.2697  0.0729  0.0342
  602PYPI   PO4 9498   7.268  17.629   9.871 -0.0449  0.0330  0.3421
  602PYPI   GL1 9499   6.911  17.864   9.527 -0.0535 -0.2664 -0.1842
  602PYPI   GL2 9500   7.063  18.080   9.374  0.3331 -0.0660  0.1828
  602PYPI   C1A 9501   6.742  17.586   9.168 -0.1686  0.5916  0.0661
  602PYPI   C2A 9502   6.524  17.565   8.759 -0.3124 -0.0857  0.1835
  602PYPI   D3A 9503   6.334  17.335   8.275  0.1147 -0.0322 -0.0017
  602PYPI   C4A 9504   6.249  16.916   8.024 -0.1208 -0.0974  0.0267
  602PYPI   C1B 9505   7.016  17.938   8.914  0.0466 -0.2794  0.1597
  602PYPI   C2B 9506   6.944  17.863   8.494  0.0150  0.4583 -0.0277
  602PYPI   C3B 9507   6.840  17.517   8.303  0.0820 -0.0020 -0.2794
  602PYPI   C4B 9508   6.694  17.325   7.879 -0.0888  0.3501 -0.1559
  603PYPI    C1 9509   8.291   2.324   9.873 -0.1644 -0.1803  0.0058
  603PYPI    C2 9510   8.036   2.476  10.142 -0.2137 -0.1742 -0.0443
  603PYPI    C3 9511   8.144   2.693   9.823  0.1611 -0.0230  0.1787
  603PYPI   PO4 9512   8.132   2.069   9.826 -0.0228 -0.0066  0.1859
  603PYPI   GL1 9513   8.210   1.834   9.467 -0.3147  0.4613 -0.1920
  603PYPI   GL2 9514   8.497   1.578   9.354  0.2008  0.1966 -0.0676
  603PYPI   C1A 9515   7.888   1.994   9.117 -0.1083 -0.2353  0.0530
  603PYPI   C2A 9516   7.572   2.200   8.990 -0.0307  0.0755  0.0532
  603PYPI   D3A 9517   7.173   2.013   8.840  0.0365 -0.0395 -0.3370
  603PYPI   C4A 9518   6.773   1.960   8.742  0.3267 -0.1423 -0.3266
  603PYPI   C1B 9519   8.524   1.588   8.911 -0.0649  0.1562  0.1668
  603PYPI   C2B 9520   8.365   1.539   8.449 -0.1895 -0.2904  0.1077
  603PYPI   C3B 9521   8.494   1.703   8.090 -0.3095 -0.1082 -0.0535
  603PYPI   C4B 9522   8.492   2.003   8.009 -0.0734  0.1986 -0.1573
  604PYPI    C1 9523  10.167  15.117   9.587 -0.1450  0.0075 -0.0786
  604PYPI    C2 9524  10.017  14.815   9.803  0.0613  0.0060  0.0658
  604PYPI    C3 9525  10.131  15.152   9.984  0.0159  0.0957 -0.0710
  604PYPI   PO4 9526  10.264  14.943   9.352 -0.2040 -0.0685 -0.2467
  604PYPI   GL1 9527  10.321  15.032   8.988 -0.2247  0.0292 -0.0143
  604PYPI   GL2 9528  10.457  14.924   8.765 -0.1300  0.0171 -0.2403
  604PYPI   C1A 9529   9.936  15.058   8.692 -0.1458 -0.2093  0.0179
  604PYPI   C2A 9530   9.664  14.974   8.442 -0.1148  0.0420  0.0545
  604PYPI   D3A 9531   9.209  14.919   8.379 -0.1564 -0.1942 -0.4194
  604PYPI   C4A 9532   9.116  14.586   8.252  0.2542 -0.2481  0.0570
  604PYPI   C1B 9533  10.627  14.819   8.358 -0.1686 -0.1748  0.1571
  604PYPI   C2B 9534  10.657  15.040   7.997 -0.2003 -0.1032  0.2472
  604PYPI   C3B 9535  10.833  15.124   7.701 -0.2622 -0.3110  0.1814
  604PYPI   C4B 9536  10.999  15.437   7.376 -0.0454  0.0594 -0.2372
  605PYPI    C1 9537  15.399  14.657   9.693  0.0285 -0.0489  0.2917
  605PYPI    C2 9538  15.056  14.629   9.895  0.0666 -0.0379  0.3581
  605PYPI    C3 9539  15.382  14.774  10.074  0.0180  0.2858  0.1913
  605PYPI   PO4 9540  15.413  14.524   9.589  0.0162 -0.1087  0.2015
  605PYPI   GL1 9541  15.588  14.166   9.360 -0.1114 -0.1545 -0.1829
  605PYPI   GL2 9542  15.725  14.506   9.147 -0.0486 -0.3745 -0.1316
  605PYPI   C1A 9543  15.431  14.017   9.000 -0.1756  0.1742  0.3118
  605PYPI   C2A 9544  15.515  14.011   8.521 -0.2498 -0.0888  0.0990
  605PYPI   D3A 9545  15.622  13.919   8.023  0.2849  0.1938  0.0948
  605PYPI   C4A 9546  15.849  14.052   7.714 -0.2620  0.1678  0.0830
  605PYPI   C1B 9547  15.761  14.396   8.816  0.1427  0.1624  0.3694
  605PYPI   C2B 9548  15.787  14.433   8.385  0.1462 -0.3810  0.0428
  605PYPI   C3B 9549  15.702  14.405   7.994  0.0843  0.1185  0.4029
  605PYPI   C4B 9550  15.773  14.504   7.597  0.1923 -0.1567  0.3462
  606PYPI    C1 9551  13.598   3.432  10.112  0.0795 -0.1897 -0.1608
  606PYPI    C2 9552  13.728   3.210  10.419 -0.0616  0.0242  0.0573
  606PYPI    C3 9553  13.349   3.179  10.295  0.0063 -0.0925 -0.1258
  606PYPI   PO4 9554  13.629   3.617  10.110  0.0871  0.0999 -0.1291
  606PYPI   GL1 9555  13.580   3.831   9.720  0.1279 -0.0836 -0.3179
  606PYPI   GL2 9556  13.397   3.572   9.654  0.2238  0.0195  0.0939
  606PYPI   C1A 9557  13.822   4.013   9.375  0.2551 -0.2592  0.0155
  606PYPI   C2A 9558  14.036   4.267   9.175 -0.0255  0.3517 -0.1310
  606PYPI   D3A 9559  14.259   4.374   8.836 -0.1282 -0.2544  0.3176
  606PYPI   C4A 9560  14.244   4.016   8.557  0.1709  0.1936 -0.0901
  606PYPI   C1B 9561  13.418   3.691   9.150 -0.0147 -0.1378 -0.3021
  606PYPI   C2B 9562  13.565   3.962   8.824 -0.1448 -0.0496 -0.1102
  606PYPI   C3B 9563  13.785   4.183   8.580  0.1040 -0.4649  0.0209
  606PYPI   C4B 9564  13.982   4.558   8.311  0.1887  0.1164 -0.0301
  607ERGO   ROH 9565   1.674   9.386   9.602 -0.0488 -0.1192  0.0188
  607ERGO    R1 9566   1.559   9.273   9.369 -0.0893 -0.0370 -0.0012
  607ERGO    R2 9567   1.324   9.367   9.258 -0.0240  0.1039 -0.0177
  607ERGO    R3 9568   1.476   9.386   9.034  0.0082  0.0345 -0.0024
  607ERGO    R4 9569   1.201   9.418   8.940  0.0336  0.2604 -0.0161
  607ERGO    R5 9570   1.347   9.275   8.865 -0.0657  0.1627 -0.0337
  607ERGO    C1 9571   1.271   9.465   8.543  0.0974  0.2865 -0.0008
  607ERGO    C2 9572   1.258   9.543   8.103  0.2528 -0.1693  0.0885
  608ERGO   ROH 9573  13.866  18.604   5.157 -0.2016 -0.4507 -0.0752
  608ERGO    R1 9574  13.927  18.579   5.433 -0.0755 -0.1767 -0.0758
  608ERGO    R2 9575  13.977  18.798   5.594 -0.2019 -0.0002 -0.2709
  608ERGO    R3 9576  13.780  18.689   5.747 -0.0530 -0.0498 -0.1094
  608ERGO    R4 9577  13.997  18.749   5.936 -0.0564  0.3381 -0.2259
  608ERGO    R5 9578  13.897  18.557   5.909  0.1215  0.2136 -0.0147
  608ERGO    C1 9579  13.823  18.619   6.278  0.1681  0.4882 -0.0480
  608ERGO    C2 9580  14.072  18.478   6.575  0.0904 -0.2553  0.0588
  609ERGO   ROH 9581   5.525  16.545   5.328 -0.0671 -0.0090 -0.3090
  609ERGO    R1 9582   5.342  16.570   5.542  0.0519  0.3038 -0.2409
  609ERGO    R2 9583   5.308  16.374   5.733 -0.3430  0.2750 -0.3417
  609ERGO    R3 9584   5.359  16.577   5.906  0.1808  0.0726 -0.2390
  609ERGO    R4 9585   5.298  16.347   6.077 -0.3908  0.1097 -0.3541
  609ERGO    R5 9586   5.204  16.543   6.085  0.0922  0.3613 -0.2497
  609ERGO    C1 9587   5.342  16.522   6.440  0.0733 -0.1766 -0.2649
  609ERGO    C2 9588   5.395  16.471   6.773 -0.0684  0.0996  0.0784
  610ERGO   ROH 9589   8.437   7.920   5.941 -0.4013 -0.3957  0.0314
  610ERGO    R1 9590   8.293   7.964   6.181 -0.2525 -0.3173  0.1084
  610ERGO    R2 9591   8.372   7.859   6.423 -0.0444 -0.1540  0.1163
  610ERGO    R3 9592   8.358   8.118   6.504 -0.0839 -0.1131 -0.0205
  610ERGO    R4 9593   8.239   7.965   6.724 -0.0368 -0.0159  0.0711
  610ERGO    R5 9594   8.148   8.133   6.619 -0.0756 -0.0886 -0.0107
  610ERGO    C1 9595   8.148   8.270   6.975 -0.0694  0.1030 -0.0838
  610ERGO    C2 9596   7.962   8.461   7.259  0.1965 -0.2206  0.0034
  611ERGO   ROH 9597  17.965   4.611   9.436  0.1482 -0.0507  0.0087
  611ERGO    R1 9598  17.727   4.597   9.285  0.1883 -0.1972 -0.0400
  611ERGO    R2 9599  17.680   4.759   9.065  0.0273 -0.0397  0.1169
  611ERGO    R3 9600  17.636   4.521   8.941  0.3315  0.0265 -0.1324
  611ERGO    R4 9601  17.517   4.722   8.763 -0.2492  0.0683  0.2475
  611ERGO    R5 9602  17.418   4.545   8.843  0.1609 -0.2345  0.1468
  611ERGO    C1 9603  17.382   4.478   8.469 -0.1245  0.1933  0.0895
  611ERGO    C2 9604  17.490   4.495   8.132  0.5002  0.1027  0.0435
  612ERGO   ROH 9605  14.801  13.238   9.672 -0.0456  0.0643 -0.0469
  612ERGO    R1 9606  14.864  13.259   9.397 -0.0187 -0.0220 -0.0472
  612ERGO    R2 9607  14.785  13.071   9.211 -0.1103 -0.0132 -0.0139
  612ERGO    R3 9608  14.679  13.287   9.085  0.0142  0.0197 -0.0640
  612ERGO    R4 9609  14.797  13.126   8.871 -0.1868 -0.1692 -0.0434
  612ERGO    R5 9610  14.836  13.337   8.911 -0.0046 -0.1781 -0.1432
  612ERGO    C1 9611  14.706  13.362   8.553 -0.1144 -0.2292 -0.1077
  612ERGO    C2 9612  14.840  13.542   8.227  0.2926  0.3637  0.1861
  613ERGO   ROH 9613  14.080  17.510   5.210 -0.1107  0.0519  0.0059
  613ERGO    R1 9614  14.183  17.421   5.458 -0.0854  0.0071 -0.0207
  613ERGO    R2 9615  14.267  17.594   5.656 -0.0529 -0.0291 -0.0041
  613ERGO    R3 9616  14.093  17.453   5.809 -0.0410 -0.0442 -0.0039
  613ERGO    R4 9617  14.197  17.662   5.987 -0.1482  0.0427 -0.0383
  613ERGO    R5 9618  14.195  17.447   6.025 -0.0855  0.0510  0.0216
  613ERGO    C1 9619  13.992  17.569   6.324 -0.1925  0.0704 -0.0581
  613ERGO    C2 9620  13.905  17.529   6.695 -0.0649  0.4453 -0.2215
  614ERGO   ROH 9621   0.643   9.366   5.779  0.0984  0.0567  0.0195
  614ERGO    R1 9622   0.609   9.283   6.048  0.0777  0.0945  0.0290
  614ERGO    R2 9623   0.821   9.254   6.222  0.0701  0.0764  0.0379
  614ERGO    R3 9624   0.674   9.422   6.378  0.0968  0.1226  0.0128
  614ERGO    R4 9625   0.871   9.303   6.561 -0.0254  0.0029  0.0629
  614ERGO    R5 9626   0.654   9.307   6.587 -0.0315  0.1023 -0.0116
  614ERGO    C1 9627   0.762   9.490   6.904 -0.0560  0.0035  0.0538
  614ERGO    C2 9628   1.054   9.699   7.091 -0.0034  0.2830 -0.2679
  615ERGO   ROH 9629  10.836   4.135   5.320  0.3144 -0.1415  0.0364
  615ERGO    R1 9630  10.680   4.171   5.553  0.3712  0.1143  0.0375
  615ERGO    R2 9631  10.541   3.964   5.673 -0.0923  0.3613 -0.0483
  615ERGO    R3 9632  10.679   4.043   5.894  0.0707 -0.0158 -0.0083
  615ERGO    R4 9633  10.456   3.886   5.999 -0.1328  0.2066 -0.0956
  615ERGO    R5 9634  10.510   4.088   6.057  0.1667  0.0869  0.0646
  615ERGO    C1 9635  10.536   3.914   6.395 -0.0033 -0.2376 -0.0856
  615ERGO    C2 9636  10.435   3.762   6.741 -0.2089 -0.1156 -0.1170
  616ERGO   ROH 9637  11.953  19.010   9.029 -0.0274 -0.1301 -0.0306
  616ERGO    R1 9638  11.953  18.848   8.797 -0.1015 -0.0783 -0.0660
  616ERGO    R2 9639  11.873  18.942   8.550  0.1392  0.0748 -0.0832
  616ERGO    R3 9640  12.117  18.851   8.472  0.0730 -0.2031  0.0173
  616ERGO    R4 9641  11.963  18.874   8.223  0.3308  0.4469 -0.1140
  616ERGO    R5 9642  12.069  18.697   8.295 -0.0227  0.1466 -0.2785
  616ERGO    C1 9643  12.244  18.749   7.960  0.3800  0.4028 -0.0374
  616ERGO    C2 9644  12.379  18.829   7.817 -0.1721  0.1808 -0.0420
  617ERGO   ROH 9645   9.393   5.722   9.573 -0.0264  0.1245  0.0687
  617ERGO    R1 9646   9.287   5.818   9.329  0.0464  0.1079  0.0304
  617ERGO    R2 9647   9.418   6.003   9.171  0.1785 -0.0390 -0.0336
  617ERGO    R3 9648   9.385   5.815   8.978  0.0561 -0.0878  0.0333
  617ERGO    R4 9649   9.392   6.069   8.833  0.1245 -0.1345 -0.0487
  617ERGO    R5 9650   9.237   5.917   8.820  0.0587 -0.0771  0.0367
  617ERGO    C1 9651   9.346   5.930   8.455 -0.0218 -0.2358  0.0054
  617ERGO    C2 9652   9.334   5.973   8.099  0.1514  0.1516 -0.2862
  618ERGO   ROH 9653   0.067   3.436   5.691 -0.1870  0.0122 -0.1407
  618ERGO    R1 9654   0.191   3.442   5.945 -0.1158 -0.1984 -0.1694
  618ERGO    R2 9655   0.146   3.644   6.128  0.2879 -0.1047 -0.1700
  618ERGO    R3 9656   0.082   3.438   6.292 -0.0476  0.0134 -0.1430
  618ERGO    R4 9657   0.207   3.636   6.468  0.1687 -0.1080 -0.1478
  618ERGO    R5 9658   0.264   3.427   6.448 -0.1061 -0.1966 -0.0822
  618ERGO    C1 9659   0.182   3.438   6.820 -0.2157  0.0009 -0.1096
  618ERGO    C2 9660   0.270   3.311   7.105  0.0010 -0.0948 -0.1250
  619ERGO   ROH 9661   5.109  11.075   5.475 -0.0477 -0.0855 -0.0732
  619ERGO    R1 9662   5.161  11.042   5.751 -0.0361 -0.0654 -0.0729
  619ERGO    R2 9663   4.977  11.108   5.947 -0.0171 -0.0245 -0.0687
  619ERGO    R3 9664   5.019  10.851   6.026 -0.0436 -0.0220 -0.0464
  619ERGO    R4 9665   4.891  10.980   6.256  0.1173  0.0554  0.0022
  619ERGO    R5 9666   5.079  10.870   6.257  0.0885  0.0039 -0.0817
  619ERGO    C1 9667   4.882  10.665   6.511  0.1705  0.1045  0.0643
  619ERGO    C2 9668   4.845  10.553   6.833 -0.0635  0.1929  0.1791
  620ERGO   ROH 9669   7.159   6.323   9.319  0.1060  0.1976 -0.3788
  620ERGO    R1 9670   7.160   6.192   9.068  0.1085  0.2079 -0.3841
  620ERGO    R2 9671   6.936   6.179   8.906  0.0551  0.0471 -0.2985
  620ERGO    R3 9672   7.104   6.285   8.721 -0.0946  0.1809 -0.3609
  620ERGO    R4 9673   6.894   6.155   8.564 -0.0086 -0.0646 -0.2834
  620ERGO    R5 9674   7.108   6.123   8.545  0.0228  0.1462 -0.3291
  620ERGO    C1 9675   7.027   6.241   8.191 -0.1863 -0.0041 -0.3331
  620ERGO    C2 9676   6.975   6.293   7.932  0.0787  0.0244 -0.3359
  621ERGO   ROH 9677   2.694   1.773   9.460 -0.1848  0.0119 -0.0293
  621ERGO    R1 9678   2.649   1.941   9.236 -0.4130  0.1092  0.0874
  621ERGO    R2 9679   2.507   2.177   9.253 -0.0343  0.3214  0.4292
  621ERGO    R3 9680   2.730   2.282   9.140 -0.1056  0.0071 -0.0305
  621ERGO    R4 9681   2.531   2.499   9.130  0.1909  0.3324  0.4972
  621ERGO    R5 9682   2.646   2.419   8.962 -0.2977  0.2014  0.1997
  621ERGO    C1 9683   2.755   2.785   8.951  0.2551  0.0438  0.1053
  621ERGO    C2 9684   2.645   3.054   8.961 -0.1153  0.0129 -0.4499
  622ERGO   ROH 9685   8.873   8.521   5.708 -0.3912 -0.1103 -0.0291
  622ERGO    R1 9686   9.006   8.642   5.926 -0.1381 -0.3477 -0.0479
  622ERGO    R2 9687   8.903   8.859   6.063  0.3533 -0.0373 -0.1509
  622ERGO    R3 9688   8.938   8.699   6.279 -0.0779 -0.0500 -0.0805
  622ERGO    R4 9689   8.904   8.967   6.391  0.5155  0.0900 -0.1918
  622ERGO    R5 9690   9.069   8.830   6.430  0.1966 -0.2892 -0.0974
  622ERGO    C1 9691   8.938   8.880   6.785  0.2052  0.1523 -0.1494
  622ERGO    C2 9692   8.884   8.798   7.190  0.2110  0.4885  0.1651
  623ERGO   ROH 9693   2.027  17.274   5.429 -0.1659  0.1916  0.2047
  623ERGO    R1 9694   2.072  17.091   5.641 -0.0694  0.0722  0.0816
  623ERGO    R2 9695   2.172  17.170   5.886  0.0936 -0.0758  0.0587
  623ERGO    R3 9696   1.950  17.045   5.980  0.1307 -0.0868  0.1354
  623ERGO    R4 9697   2.147  17.019   6.196  0.0686  0.3344  0.2644
  623ERGO    R5 9698   2.035  16.857   6.102  0.2064  0.1279  0.4330
  623ERGO    C1 9699   1.924  16.813   6.465  0.0890  0.5630  0.4561
  623ERGO    C2 9700   2.008  16.795   6.797  0.0967 -0.0419 -0.0771
  624ERGO   ROH 9701   6.330  17.245   5.552 -0.0863  0.3308 -0.1966
  624ERGO    R1 9702   6.127  17.201   5.744  0.0632  0.1798 -0.0703
  624ERGO    R2 9703   6.166  17.044   5.968  0.2701  0.0804 -0.1712
  624ERGO    R3 9704   6.081  17.267   6.099  0.3001 -0.0048 -0.0036
  624ERGO    R4 9705   6.096  17.060   6.307  0.3350 -0.1376 -0.1456
  624ERGO    R5 9706   5.923  17.185   6.260  0.3309 -0.1043 -0.0271
  624ERGO    C1 9707   5.975  17.278   6.626  0.4009 -0.3449  0.0265
  624ERGO    C2 9708   5.845  17.453   6.901 -0.1777  0.1265  0.1493
  625ERGO   ROH 9709  11.062   3.180   9.228 -0.0335 -0.0538  0.1663
  625ERGO    R1 9710  11.020   3.108   8.957  0.1400  0.0606  0.1085
  625ERGO    R2 9711  11.215   3.136   8.764  0.3626 -0.1268  0.3083
  625ERGO    R3 9712  11.166   2.872   8.721  0.0854 -0.0620  0.1932
  625ERGO    R4 9713  11.236   2.978   8.457  0.4375 -0.0542  0.2741
  625ERGO    R5 9714  11.057   2.865   8.508  0.2521  0.1363  0.0920
  625ERGO    C1 9715  11.202   2.638   8.239  0.2209  0.0489  0.1460
  625ERGO    C2 9716  11.355   2.401   7.977  0.1869  0.0732  0.0429
  626ERGO   ROH 9717  19.018  11.614   5.726  0.0600 -0.1470 -0.0409
  626ERGO    R1 9718  19.005  11.486   5.978  0.1019 -0.1135 -0.0214
  626ERGO    R2 9719  19.182  11.540   6.183  0.1515 -0.1030 -0.0652
  626ERGO    R3 9720  18.954  11.586   6.324  0.1847 -0.0634 -0.0243
  626ERGO    R4 9721  19.170  11.597   6.523  0.2094 -0.1618 -0.0528
  626ERGO    R5 9722  18.990  11.473   6.532  0.1775 -0.1102 -0.0507
  626ERGO    C1 9723  18.949  11.674   6.854  0.2743 -0.1590 -0.0072
  626ERGO    C2 9724  19.005  11.689   7.227  0.2160 -0.1163  0.0393
  627ERGO   ROH 9725  13.819  12.719   5.599  0.0586 -0.1205  0.0816
  627ERGO    R1 9726  13.702  12.696   5.856  0.0665 -0.1410  0.0839
  627ERGO    R2 9727  13.809  12.536   6.055  0.1586 -0.0412  0.1195
  627ERGO    R3 9728  13.801  12.766   6.199  0.0195 -0.0158  0.0717
  627ERGO    R4 9729  13.797  12.553   6.400 -0.0905  0.0262  0.1088
  627ERGO    R5 9730  13.654  12.717   6.382 -0.1023 -0.0008 -0.0232
  627ERGO    C1 9731  13.782  12.779   6.736 -0.3662  0.0893  0.0576
  627ERGO    C2 9732  13.686  12.845   7.135 -0.1803 -0.2804  0.0929
  628ERGO   ROH 9733  11.533  12.324   8.654 -0.0524 -0.0737 -0.0194
  628ERGO    R1 9734  11.576  12.483   8.424 -0.1102 -0.0035  0.0185
  628ERGO    R2 9735  11.452  12.433   8.182 -0.1073  0.0211  0.0136
  628ERGO    R3 9736  11.373  12.692   8.205 -0.1813 -0.0065  0.0804
  628ERGO    R4 9737  11.341  12.629   7.921 -0.0499  0.0905  0.0408
  628ERGO    R5 9738  11.453  12.796   8.005 -0.1245  0.0885  0.1503
  628ERGO    C1 9739  11.202  12.987   7.790 -0.0859  0.1051  0.1193
  628ERGO    C2 9740  11.025  13.243   7.551 -0.1456  0.0523  0.1213
  629ERGO   ROH 9741  18.852  13.948   5.666 -0.2450  0.0771  0.0055
  629ERGO    R1 9742  18.914  13.947   5.942 -0.0913 -0.0224 -0.0275
  629ERGO    R2 9743  19.116  14.102   6.051 -0.1172  0.0433 -0.0623
  629ERGO    R3 9744  18.917  14.189   6.214 -0.0818 -0.1510  0.0864
  629ERGO    R4 9745  19.160  14.209   6.376 -0.0067 -0.0339 -0.0521
  629ERGO    R5 9746  18.977  14.105   6.430  0.1013 -0.1790  0.0227
  629ERGO    C1 9747  19.000  14.353   6.719  0.0910 -0.2613  0.0935
  629ERGO    C2 9748  18.981  14.493   7.092 -0.3336  0.1439  0.1388
  630ERGO   ROH 9749  16.611  11.635   9.746  0.0688 -0.2883 -0.0299
  630ERGO    R1 9750  16.413  11.654   9.544  0.0325 -0.0873  0.0230
  630ERGO    R2 9751  16.394  11.872   9.375  0.2748 -0.1130 -0.0387
  630ERGO    R3 9752  16.407  11.682   9.181 -0.0380 -0.1950  0.0151
  630ERGO    R4 9753  16.296  11.917   9.047  0.2524 -0.0726 -0.0265
  630ERGO    R5 9754  16.210  11.717   9.050 -0.0281  0.0416  0.0562
  630ERGO    C1 9755  16.251  11.765   8.674 -0.0543 -0.1262  0.0312
  630ERGO    C2 9756  16.387  11.921   8.385  0.0596 -0.0483  0.2702
  631ERGO   ROH 9757   4.004  13.561   5.516  0.1018 -0.1178 -0.0505
  631ERGO    R1 9758   4.122  13.546   5.773  0.1505  0.0762 -0.0599
  631ERGO    R2 9759   4.148  13.767   5.938 -0.1406  0.1356 -0.0874
  631ERGO    R3 9760   4.018  13.608   6.116  0.0960 -0.0298 -0.0570
  631ERGO    R4 9761   4.159  13.804   6.282  0.0134  0.0535 -0.0828
  631ERGO    R5 9762   4.169  13.587   6.300  0.2167  0.0555 -0.1448
  631ERGO    C1 9763   4.043  13.676   6.649  0.3253 -0.1495 -0.0516
  631ERGO    C2 9764   4.079  13.697   6.893 -0.1218 -0.4853 -0.0077
  632ERGO   ROH 9765   9.263   1.747   5.500  0.0086 -0.3848 -0.1785
  632ERGO    R1 9766   9.181   1.788   5.768  0.1488 -0.1856 -0.1648
  632ERGO    R2 9767   8.971   1.650   5.882  0.0484  0.0787 -0.0286
  632ERGO    R3 9768   9.157   1.588   6.070  0.0535 -0.0322 -0.0684
  632ERGO    R4 9769   8.901   1.565   6.210  0.0506 -0.1206 -0.0780
  632ERGO    R5 9770   9.072   1.684   6.272  0.0521 -0.1532 -0.0081
  632ERGO    C1 9771   9.035   1.457   6.577  0.0566 -0.3407 -0.1440
  632ERGO    C2 9772   8.992   1.390   6.869 -0.1016 -0.2822 -0.3848
  633ERGO   ROH 9773  16.985   5.295   9.695  0.2681  0.1793  0.0206
  633ERGO    R1 9774  16.813   5.307   9.471  0.2622 -0.0707  0.0128
  633ERGO    R2 9775  16.667   5.533   9.406  0.0644 -0.2335 -0.0823
  633ERGO    R3 9776  16.789   5.503   9.166  0.0877 -0.2220 -0.0754
  633ERGO    R4 9777  16.582   5.707   9.120  0.1214 -0.1773 -0.0687
  633ERGO    R5 9778  16.612   5.523   9.006  0.1030 -0.1714 -0.0930
  633ERGO    C1 9779  16.648   5.780   8.727  0.1765 -0.1338 -0.0544
  633ERGO    C2 9780  16.921   5.971   8.591 -0.1516 -0.0901  0.1449
  634ERGO   ROH 9781  18.846  16.270   9.461  0.1791 -0.2032 -0.0191
  634ERGO    R1 9782  18.953  16.298   9.200 -0.0360  0.1967 -0.0711
  634ERGO    R2 9783  18.961  16.089   9.019  0.3684  0.3037 -0.1756
  634ERGO    R3 9784  18.830  16.265   8.859 -0.1608  0.0772 -0.0182
  634ERGO    R4 9785  18.954  16.074   8.674  0.4096  0.5615 -0.1905
  634ERGO    R5 9786  18.974  16.291   8.669 -0.2185  0.6533 -0.0090
  634ERGO    C1 9787  18.827  16.231   8.322 -0.0632  0.4990 -0.0514
  634ERGO    C2 9788  18.906  16.467   8.063 -0.3207 -0.0114  0.1071
  635ERGO   ROH 9789  10.631  10.186   5.644  0.1063 -0.1678 -0.0464
  635ERGO    R1 9790  10.775  10.413   5.734 -0.2120  0.0218 -0.0017
  635ERGO    R2 9791  10.681  10.579   5.935 -0.2667 -0.3866  0.3221
  635ERGO    R3 9792  10.923  10.525   6.047  0.0128 -0.0435 -0.0824
  635ERGO    R4 9793  10.835  10.772   6.176 -0.3040 -0.3513  0.3182
  635ERGO    R5 9794  11.025  10.740   6.075 -0.3692  0.1354  0.0042
  635ERGO    C1 9795  11.151  10.834   6.422 -0.0635 -0.0087 -0.0639
  635ERGO    C2 9796  11.330  10.772   6.724  0.1717  0.0935  0.0722
  636ERGO   ROH 9797  12.740   2.731   5.518  0.0456  0.1314  0.0387
  636ERGO    R1 9798  12.857   2.724   5.776  0.0888 -0.1522  0.0150
  636ERGO    R2 9799  12.791   2.904   5.975  0.4933 -0.0414  0.0667
  636ERGO    R3 9800  12.740   2.678   6.117  0.0588  0.0237  0.0270
  636ERGO    R4 9801  12.855   2.865   6.312  0.3921 -0.2284  0.0649
  636ERGO    R5 9802  12.923   2.663   6.271  0.0162 -0.3506  0.0405
  636ERGO    C1 9803  12.844   2.631   6.643 -0.0749 -0.2761  0.0267
  636ERGO    C2 9804  12.659   2.770   6.949  0.3604 -0.5778 -0.0120
  637ERGO   ROH 9805  12.156  10.416   5.620  0.3492  0.1368  0.0786
  637ERGO    R1 9806  12.008  10.352   5.853  0.1863  0.0737 -0.0415
  637ERGO    R2 9807  12.124  10.241   6.077  0.0323  0.0363  0.0150
  637ERGO    R3 9808  12.008  10.453   6.202 -0.0770 -0.0041 -0.0149
  637ERGO    R4 9809  12.066  10.261   6.417  0.0517  0.0567  0.0178
  637ERGO    R5 9810  11.873  10.353   6.373 -0.0091 -0.0566  0.0146
  637ERGO    C1 9811  11.922  10.471   6.733 -0.0397  0.0307 -0.0086
  637ERGO    C2 9812  12.057  10.470   7.035 -0.1700 -0.1155  0.3168
  638ERGO   ROH 9813   8.417   7.660   9.548  0.2280  0.1804 -0.0228
  638ERGO    R1 9814   8.367   7.593   9.277 -0.0014  0.1851  0.0158
  638ERGO    R2 9815   8.140   7.677   9.143  0.0125  0.4233  0.1263
  638ERGO    R3 9816   8.320   7.775   8.966  0.0319  0.1831  0.0112
  638ERGO    R4 9817   8.084   7.715   8.804 -0.0377  0.2193  0.1108
  638ERGO    R5 9818   8.286   7.645   8.768 -0.0940  0.0665  0.1111
  638ERGO    C1 9819   8.221   7.830   8.440 -0.0487 -0.1250 -0.0063
  638ERGO    C2 9820   8.131   8.023   8.150 -0.1679 -0.4588  0.1429
  639ERGO   ROH 9821   0.047   1.427   9.375  0.1931  0.0591  0.0978
  639ERGO    R1 9822   0.039   1.475   9.096  0.0896  0.0142  0.0927
  639ERGO    R2 9823  -0.055   1.711   8.987  0.0879  0.0123  0.0921
  639ERGO    R3 9824   0.187   1.713   8.864  0.0391 -0.0501 -0.0067
  639ERGO    R4 9825   0.006   1.847   8.676  0.0073  0.0503  0.0926
  639ERGO    R5 9826   0.136   1.677   8.632 -0.0694  0.0115  0.0064
  639ERGO    C1 9827   0.269   1.929   8.378 -0.0853  0.0138  0.0000
  639ERGO    C2 9828   0.180   2.037   8.039  0.4310 -0.0312 -0.0733
  640ERGO   ROH 9829  17.749  10.267   9.411 -0.2142  0.0752 -0.0272
  640ERGO    R1 9830  17.871  10.302   9.158 -0.0904  0.0663  0.0319
  640ERGO    R2 9831  17.726  10.357   8.929  0.0283  0.0990 -0.0284
  640ERGO    R3 9832  17.897  10.568   8.912  0.0722  0.0721  0.0514
  640ERGO    R4 9833  17.814  10.516   8.635  0.0321  0.2004  0.0264
  640ERGO    R5 9834  18.018  10.530   8.709  0.0476  0.1256  0.0199
  640ERGO    C1 9835  18.025  10.807   8.448  0.0757  0.2341  0.1331
  640ERGO    C2 9836  18.206  10.919   8.186 -0.1047 -0.0987  0.1533
  641ERGO   ROH 9837  12.923   7.354   5.548 -0.1413  0.0133  0.0654
  641ERGO    R1 9838  12.915   7.312   5.828 -0.0886 -0.0952  0.0508
  641ERGO    R2 9839  13.077   7.128   5.954  0.0099 -0.0706 -0.0378
  641ERGO    R3 9840  13.147   7.342   6.107 -0.0684 -0.0951  0.0339
  641ERGO    R4 9841  13.249   7.109   6.254  0.1618 -0.0977 -0.1253
  641ERGO    R5 9842  13.119   7.266   6.332  0.0881 -0.2249  0.0114
  641ERGO    C1 9843  13.415   7.300   6.571  0.1767 -0.1366 -0.1091
  641ERGO    C2 9844  13.692   7.063   6.848 -0.3026  0.1515  0.1800
  642ERGO   ROH 9845  16.169  14.960   9.339 -0.1931 -0.0108 -0.0814
  642ERGO    R1 9846  16.088  14.870   9.083 -0.1976  0.0933 -0.1170
  642ERGO    R2 9847  16.073  15.039   8.864  0.0558  0.1278 -0.1112
  642ERGO    R3 9848  16.235  14.852   8.750 -0.0976 -0.0347 -0.0666
  642ERGO    R4 9849  16.055  14.937   8.535  0.0042  0.1009 -0.0998
  642ERGO    R5 9850  16.091  14.732   8.601 -0.1889  0.0755 -0.0683
  642ERGO    C1 9851  16.196  14.702   8.236 -0.1700 -0.0673 -0.0515
  642ERGO    C2 9852  16.243  14.507   7.953 -0.1737  0.1254 -0.0539
  643ERGO   ROH 9853   1.766  10.640   5.430  0.0573 -0.0184  0.1755
  643ERGO    R1 9854   1.979  10.625   5.617  0.0322 -0.1721  0.1927
  643ERGO    R2 9855   2.041  10.833   5.788  0.3410 -0.1062  0.0072
  643ERGO    R3 9856   2.014  10.641   5.979  0.0430  0.1003  0.1817
  643ERGO    R4 9857   2.192  10.841   6.099  0.4181 -0.0955 -0.0299
  643ERGO    R5 9858   2.231  10.627   6.080  0.0445 -0.1871  0.1472
  643ERGO    C1 9859   2.254  10.666   6.459  0.1832  0.1047  0.1124
  643ERGO    C2 9860   2.384  10.679   6.846 -0.0422 -0.0213  0.0732
  644ERGO   ROH 9861  15.268   3.183   5.391 -0.0837  0.1803  0.0643
  644ERGO    R1 9862  15.302   3.293   5.649 -0.2446  0.2578  0.0542
  644ERGO    R2 9863  15.090   3.387   5.800 -0.4160 -0.1948  0.1162
  644ERGO    R3 9864  15.188   3.216   5.986  0.0134  0.0075  0.0876
  644ERGO    R4 9865  15.040   3.416   6.140 -0.1955 -0.1900  0.1488
  644ERGO    R5 9866  15.247   3.356   6.171 -0.0673  0.1537  0.0037
  644ERGO    C1 9867  15.103   3.271   6.514  0.3361  0.0027  0.1410
  644ERGO    C2 9868  15.138   3.227   6.795  0.4226  0.1822  0.1895
  645ERGO   ROH 9869  15.977   6.781   5.665 -0.2886 -0.0302 -0.0700
  645ERGO    R1 9870  15.805   6.827   5.885 -0.0580  0.0064  0.1058
  645ERGO    R2 9871  15.893   6.817   6.147  0.2694  0.2690  0.0121
  645ERGO    R3 9872  15.784   7.066   6.159  0.0982  0.1990 -0.0474
  645ERGO    R4 9873  15.800   6.979   6.438  0.2378  0.3085 -0.0195
  645ERGO    R5 9874  15.623   7.053   6.335  0.1560  0.1483  0.0028
  645ERGO    C1 9875  15.645   7.307   6.618  0.0585  0.2657 -0.0938
  645ERGO    C2 9876  15.535   7.357   6.919 -0.0715  0.2127  0.2034
  646ERGO   ROH 9877  13.663  14.530   9.430  0.2429  0.0342 -0.0998
  646ERGO    R1 9878  13.575  14.652   9.191  0.2531  0.0769 -0.0827
  646ERGO    R2 9879  13.686  14.593   8.945  0.0865 -0.0797 -0.1274
  646ERGO    R3 9880  13.427  14.541   8.877  0.0018  0.1586  0.0061
  646ERGO    R4 9881  13.549  14.647   8.632 -0.0123 -0.0425 -0.0780
  646ERGO    R5 9882  13.368  14.720   8.729  0.1085  0.1679 -0.0191
  646ERGO    C1 9883  13.228  14.630   8.386 -0.1492  0.2028  0.0761
  646ERGO    C2 9884  13.292  14.658   8.024 -0.0637  0.1025  0.0701
  647ERGO   ROH 9885   8.211   3.922   5.468  0.1925  0.1555  0.0390
  647ERGO    R1 9886   8.318   3.816   5.708 -0.0170  0.1667  0.1407
  647ERGO    R2 9887   8.565   3.693   5.719 -0.1681 -0.1434  0.2960
  647ERGO    R3 9888   8.611   3.876   5.916 -0.0049 -0.0728  0.1927
  647ERGO    R4 9889   8.651   3.616   6.045 -0.3021 -0.0350  0.3571
  647ERGO    R5 9890   8.519   3.775   6.113 -0.1418  0.1462  0.2401
  647ERGO    C1 9891   8.744   3.742   6.419 -0.2270  0.0945  0.2957
  647ERGO    C2 9892   8.839   3.630   6.666 -0.1704 -0.2361 -0.1043
  648ERGO   ROH 9893   7.142  11.242   5.378 -0.0835  0.3029  0.0828
  648ERGO    R1 9894   7.157  11.279   5.659 -0.1581  0.1362  0.1105
  648ERGO    R2 9895   6.976  11.166   5.834 -0.0835 -0.1483  0.0162
  648ERGO    R3 9896   7.200  11.066   5.951 -0.0046 -0.0188 -0.0236
  648ERGO    R4 9897   6.995  11.058   6.161  0.0063 -0.2829 -0.0329
  648ERGO    R5 9898   7.192  11.151   6.175 -0.0740 -0.1298  0.0126
  648ERGO    C1 9899   7.217  10.901   6.463  0.1327 -0.2396 -0.0989
  648ERGO    C2 9900   7.103  10.802   6.694  0.1120 -0.1575 -0.0324
  649ERGO   ROH 9901   8.418   4.221   9.186  0.0896  0.3965  0.0152
  649ERGO    R1 9902   8.410   4.176   8.907  0.1030  0.1772  0.0485
  649ERGO    R2 9903   8.178   4.111   8.774  0.1070  0.0875  0.0862
  649ERGO    R3 9904   8.244   4.326   8.620  0.1300 -0.0365 -0.0804
  649ERGO    R4 9905   8.045   4.179   8.462  0.1987 -0.1983 -0.0191
  649ERGO    R5 9906   8.243   4.240   8.396  0.2126 -0.2320 -0.0088
  649ERGO    C1 9907   8.029   4.420   8.136  0.2736 -0.4812 -0.2367
  649ERGO    C2 9908   7.915   4.521   7.850 -0.3250 -0.0348 -0.0916
  650ERGO   ROH 9909  14.266  12.171   9.664 -0.2205  0.0839  0.0581
  650ERGO    R1 9910  14.181  12.087   9.407 -0.2240 -0.0290  0.0952
  650ERGO    R2 9911  13.918  12.105   9.324 -0.1918  0.1156  0.0231
  650ERGO    R3 9912  14.027  12.242   9.116 -0.0382 -0.1099 -0.0498
  650ERGO    R4 9913  13.794  12.106   9.001 -0.2015  0.0820  0.0274
  650ERGO    R5 9914  13.999  12.097   8.928 -0.2048 -0.1842  0.0261
  650ERGO    C1 9915  13.824  12.236   8.618 -0.0631 -0.1492 -0.0386
  650ERGO    C2 9916  13.929  12.209   8.272 -0.1683 -0.1498 -0.1052
  651ERGO   ROH 9917   7.287  18.189   5.425 -0.0221 -0.0377 -0.1829
  651ERGO    R1 9918   7.350  18.248   5.694  0.0125 -0.0179 -0.1969
  651ERGO    R2 9919   7.201  18.423   5.848 -0.0171 -0.0793 -0.1683
  651ERGO    R3 9920   7.188  18.211   6.018  0.0974 -0.0811 -0.1588
  651ERGO    R4 9921   7.146  18.446   6.188 -0.2151 -0.0915 -0.1970
  651ERGO    R5 9922   7.294  18.289   6.218 -0.0737  0.0459 -0.1085
  651ERGO    C1 9923   7.102  18.261   6.546 -0.2228 -0.1002 -0.2047
  651ERGO    C2 9924   7.100  18.328   6.942  0.1228 -0.3864  0.1578
  652ERGO   ROH 9925   3.903   1.147   9.052 -0.1675 -0.2488 -0.0467
  652ERGO    R1 9926   3.939   1.183   8.774  0.0622 -0.0952  0.0001
  652ERGO    R2 9927   4.106   1.023   8.624 -0.0370 -0.2019  0.0017
  652ERGO    R3 9928   3.884   0.986   8.472  0.0120  0.1840 -0.1764
  652ERGO    R4 9929   4.093   0.831   8.337 -0.1819 -0.3471  0.1036
  652ERGO    R5 9930   3.965   0.984   8.247  0.2173 -0.1193 -0.1050
  652ERGO    C1 9931   3.875   0.685   8.027 -0.2203 -0.0695 -0.0044
  652ERGO    C2 9932   3.687   0.430   7.878 -0.0839  0.1266 -0.0091
  653ERGO   ROH 9933   8.496  13.552   5.361 -0.0508  0.0216  0.1327
  653ERGO    R1 9934   8.477  13.404   5.602 -0.0801  0.1255  0.1951
  653ERGO    R2 9935   8.679  13.240   5.692 -0.1894 -0.0309  0.1619
  653ERGO    R3 9936   8.656  13.389   5.918  0.0499  0.0748  0.1196
  653ERGO    R4 9937   8.673  13.112   6.013  0.0059  0.1065  0.2222
  653ERGO    R5 9938   8.518  13.257   6.062  0.1048  0.1931  0.2834
  653ERGO    C1 9939   8.647  13.178   6.412  0.3442  0.2857  0.2176
  653ERGO    C2 9940   8.783  13.097   6.812 -0.0531  0.2004  0.0578
  654ERGO   ROH 9941   5.734   2.570   5.464  0.1018 -0.1813 -0.0931
  654ERGO    R1 9942   5.683   2.523   5.739  0.0805 -0.2033 -0.1007
  654ERGO    R2 9943   5.793   2.310   5.876  0.2507 -0.0882 -0.0548
  654ERGO    R3 9944   5.879   2.505   6.045  0.0270  0.0118 -0.0520
  654ERGO    R4 9945   5.796   2.287   6.221  0.2040 -0.0584 -0.0525
  654ERGO    R5 9946   5.729   2.494   6.231 -0.0012 -0.1203 -0.0815
  654ERGO    C1 9947   5.879   2.456   6.580 -0.0331  0.0528 -0.0484
  654ERGO    C2 9948   5.864   2.469   6.946  0.1669 -0.0488 -0.0951
  655ERGO   ROH 9949  12.489  19.090   9.031 -0.0650  0.0697 -0.1388
  655ERGO    R1 9950  12.440  18.945   8.792 -0.0163  0.1096 -0.1726
  655ERGO    R2 9951  12.570  19.002   8.555  0.1939  0.0081 -0.0823
  655ERGO    R3 9952  12.635  18.738   8.564 -0.0231 -0.0462 -0.0402
  655ERGO    R4 9953  12.551  18.784   8.287 -0.0271 -0.0266 -0.0408
  655ERGO    R5 9954  12.474  18.632   8.423 -0.1357  0.0612  0.0021
  655ERGO    C1 9955  12.601  18.410   8.141 -0.3595 -0.0978  0.0230
  655ERGO    C2 9956  12.680  18.453   7.709 -0.1555  0.0019 -0.1234
  656ERGO   ROH 9957  16.980  16.785   5.301 -0.1872 -0.1888  0.0960
  656ERGO    R1 9958  17.055  16.929   5.532  0.0316 -0.2057  0.0385
  656ERGO    R2 9959  16.890  16.953   5.752  0.0332  0.1902  0.0052
  656ERGO    R3 9960  17.106  16.855   5.885 -0.1539 -0.1312  0.0818
  656ERGO    R4 9961  16.943  16.985   6.092  0.2260  0.6201 -0.0593
  656ERGO    R5 9962  17.154  17.021   6.050  0.3149  0.0345 -0.2050
  656ERGO    C1 9963  17.178  16.911   6.415  0.1629  0.5689 -0.0250
  656ERGO    C2 9964  17.046  16.853   6.693  0.0484  0.1757 -0.0670
  657ERGO   ROH 9965   3.542   2.828   9.153  0.1885  0.0227  0.1246
  657ERGO    R1 9966   3.741   2.841   8.952  0.1393  0.0128  0.0746
  657ERGO    R2 9967   3.796   2.628   8.785  0.1655 -0.0314  0.1355
  657ERGO    R3 9968   3.753   2.813   8.590  0.0629 -0.1113  0.0816
  657ERGO    R4 9969   3.959   2.636   8.480  0.0989 -0.0746  0.0988
  657ERGO    R5 9970   3.970   2.853   8.496  0.0282 -0.0668  0.0231
  657ERGO    C1 9971   4.013   2.813   8.119 -0.0362 -0.1747  0.0267
  657ERGO    C2 9972   4.033   2.860   7.711 -0.0740 -0.1192 -0.0117
  658ERGO   ROH 9973   4.026  10.970   5.249  0.0134 -0.2559 -0.0658
  658ERGO    R1 9974   3.959  10.929   5.521  0.1514  0.1214  0.0314
  658ERGO    R2 9975   3.941  10.677   5.633 -0.3662  0.2404  0.2369
  658ERGO    R3 9976   4.117  10.780   5.813  0.0572 -0.0418  0.0015
  658ERGO    R4 9977   3.925  10.628   5.975 -0.1787  0.5290  0.2912
  658ERGO    R5 9978   3.982  10.837   6.002  0.3550  0.4282  0.0911
  658ERGO    C1 9979   4.081  10.696   6.343  0.3281  0.4321  0.1017
  658ERGO    C2 9980   4.008  10.583   6.715  0.0756  0.1428  0.0754
  659ERGO   ROH 9981   6.790   4.882   5.362 -0.0827  0.3163 -0.0725
  659ERGO    R1 9982   6.915   4.745   5.576 -0.0066  0.1386 -0.2275
  659ERGO    R2 9983   6.980   4.869   5.814  0.2088 -0.0219 -0.1985
  659ERGO    R3 9984   6.835   4.667   5.922  0.1816 -0.0116 -0.2167
  659ERGO    R4 9985   7.042   4.723   6.121  0.0566  0.0849 -0.1160
  659ERGO    R5 9986   6.996   4.529   6.033  0.1402  0.0502 -0.0799
  659ERGO    C1 9987   6.941   4.448   6.401 -0.0576  0.1566 -0.0849
  659ERGO    C2 9988   7.006   4.321   6.718  0.0774 -0.1458  0.4969
  660ERGO   ROH 9989  11.708  15.282   9.170  0.2558 -0.1761 -0.0436
  660ERGO    R1 9990  11.691  15.346   8.895  0.1932 -0.0825 -0.0178
  660ERGO    R2 9991  11.865  15.244   8.708  0.1450 -0.0241 -0.0924
  660ERGO    R3 9992  11.636  15.166   8.584  0.1145  0.0253 -0.0680
  660ERGO    R4 9993  11.851  15.093   8.397  0.0947 -0.1465 -0.0316
  660ERGO    R5 9994  11.674  15.214   8.352  0.1473 -0.0857 -0.0881
  660ERGO    C1 9995  11.627  14.932   8.100  0.0368 -0.1715  0.0269
  660ERGO    C2 9996  11.575  14.682   7.832 -0.3406 -0.0110  0.3021
  661ERGO   ROH 9997  16.535   8.434   9.325 -0.0146  0.0853  0.1025
  661ERGO    R1 9998  16.453   8.550   9.080  0.0385 -0.0407  0.0250
  661ERGO    R2 9999  16.461   8.413   8.840 -0.1465 -0.2488  0.1390
  661ERGO    R310000  16.199   8.484   8.828 -0.0846 -0.0101  0.1383
  661ERGO    R410001  16.279   8.447   8.548 -0.0969 -0.0298  0.1311
  661ERGO    R510002  16.185   8.624   8.634  0.0552  0.0433  0.1614
  661ERGO    C110003  15.927   8.534   8.367 -0.0097  0.3216  0.1257
  661ERGO    C210004  15.683   8.527   8.246 -0.2513 -0.2965 -0.2386
  662ERGO   ROH10005   5.298   4.256   9.278 -0.4226  0.1416 -0.0443
  662ERGO    R110006   5.413   4.244   9.020 -0.2285 -0.0061  0.0466
  662ERGO    R210007   5.368   4.033   8.847 -0.2750 -0.0016  0.0497
  662ERGO    R310008   5.293   4.232   8.677  0.0286  0.0350 -0.0463
  662ERGO    R410009   5.387   4.015   8.502 -0.2490 -0.1706  0.0597
  662ERGO    R510010   5.455   4.222   8.500  0.0431 -0.2652 -0.0192
  662ERGO    C110011   5.328   4.190   8.142  0.0511 -0.2347 -0.0245
  662ERGO    C210012   5.386   4.026   7.805  0.1548  0.0615  0.0389
  663ERGO   ROH10013   3.104   9.503   7.631 -0.0181 -0.1560 -0.2678
  663ERGO    R110014   3.157   9.781   7.620  0.0767 -0.1667 -0.0885
  663ERGO    R210015   3.067   9.942   7.414  0.2180 -0.0233 -0.0355
  663ERGO    R310016   2.962  10.088   7.619  0.1780 -0.1000 -0.0002
  663ERGO    R410017   2.900  10.243   7.379  0.3573  0.0666  0.0539
  663ERGO    R510018   3.002  10.315   7.557  0.3026 -0.0776  0.1486
  663ERGO    C110019   2.705  10.555   7.550  0.4010  0.0468  0.1391
  663ERGO    C210020   2.563  10.944   7.595 -0.2101  0.1835 -0.0583
  664ERGO   ROH10021   7.353   4.658   9.014 -0.1596  0.1508 -0.0411
  664ERGO    R110022   7.282   4.717   8.746  0.0010  0.1193 -0.0929
  664ERGO    R210023   7.095   4.910   8.681 -0.0241  0.0558 -0.2253
  664ERGO    R310024   7.296   5.006   8.526  0.0513  0.1196 -0.0881
  664ERGO    R410025   7.052   5.078   8.382  0.1291  0.0425 -0.2547
  664ERGO    R510026   7.222   4.969   8.301  0.2175  0.0977 -0.1390
  664ERGO    C110027   7.216   5.266   8.062  0.2890  0.0946 -0.1431
  664ERGO    C210028   7.230   5.246   7.735  0.0509 -0.1194  0.4325
  665ERGO   ROH10029  16.341  19.033   5.340  0.1035 -0.1630  0.0425
  665ERGO    R110030  16.452  19.117   5.586  0.0398 -0.0872  0.0453
  665ERGO    R210031  16.306  19.124   5.821  0.0368 -0.2163  0.0452
  665ERGO    R310032  16.509  18.970   5.914  0.1620 -0.0590  0.0378
  665ERGO    R410033  16.380  19.077   6.155  0.0484 -0.2008  0.0453
  665ERGO    R510034  16.592  19.090   6.105  0.0449 -0.0134  0.0628
  665ERGO    C110035  16.614  18.904   6.437  0.1726 -0.0440  0.0383
  665ERGO    C210036  16.516  18.692   6.562  0.1232 -0.0280 -0.0974
  666ERGO   ROH10037   6.047   1.300   9.042 -0.0930  0.0205 -0.2046
  666ERGO    R110038   6.076   1.286   8.761 -0.1543 -0.1781 -0.2049
  666ERGO    R210039   5.860   1.264   8.590 -0.2133 -0.1198 -0.1612
  666ERGO    R310040   5.971   1.483   8.474 -0.0593 -0.2716 -0.2995
  666ERGO    R410041   5.782   1.381   8.274 -0.3261 -0.0788 -0.1166
  666ERGO    R510042   5.994   1.423   8.243 -0.3152 -0.3296 -0.3001
  666ERGO    C110043   5.840   1.655   7.981 -0.2471 -0.1975 -0.2205
  666ERGO    C210044   5.935   1.753   7.726  0.0445 -0.0441  0.0169
  667ERGO   ROH10045   0.102   9.275   5.739 -0.2304 -0.0256  0.0578
  667ERGO    R110046   0.172   9.318   6.010  0.1237 -0.3560  0.0255
  667ERGO    R210047  -0.014   9.379   6.204  0.4554  0.2372  0.1761
  667ERGO    R310048   0.094   9.164   6.331 -0.1862 -0.2105  0.0257
  667ERGO    R410049  -0.060   9.303   6.538  0.5131  0.3615  0.2139
  667ERGO    R510050   0.151   9.246   6.549  0.3514 -0.4251 -0.0118
  667ERGO    C110051   0.016   9.058   6.852 -0.0560  0.0136  0.0946
  667ERGO    C210052   0.042   8.868   7.071 -0.1317  0.0637 -0.0102
  668ERGO   ROH10053   5.668   8.066   8.929  0.2113 -0.3573 -0.1686
  668ERGO    R110054   5.667   8.143   8.656 -0.1776 -0.1752 -0.1227
  668ERGO    R210055   5.805   8.003   8.462  0.0569  0.2978 -0.3130
  668ERGO    R310056   5.562   7.996   8.341 -0.0256 -0.2491 -0.1400
  668ERGO    R410057   5.752   7.937   8.127 -0.0205  0.2858 -0.2984
  668ERGO    R510058   5.599   8.091   8.125 -0.4075 -0.0749 -0.1368
  668ERGO    C110059   5.492   7.891   7.819 -0.1430 -0.2346 -0.1271
  668ERGO    C210060   5.447   7.627   7.638  0.0058 -0.0054 -0.1410
  669ERGO   ROH10061  12.614   8.678   9.612 -0.0385 -0.2414  0.1271
  669ERGO    R110062  12.746   8.619   9.369  0.0586 -0.2169  0.1748
  669ERGO    R210063  12.765   8.362   9.268 -0.1651 -0.1656  0.0113
  669ERGO    R310064  12.655   8.476   9.047  0.1124  0.1115  0.0067
  669ERGO    R410065  12.824   8.262   8.942 -0.3291 -0.2736  0.0122
  669ERGO    R510066  12.829   8.472   8.884  0.1438 -0.2595  0.0340
  669ERGO    C110067  12.755   8.311   8.546 -0.1642 -0.0764  0.0086
  669ERGO    C210068  12.711   8.382   8.271 -0.0677 -0.1997  0.1808
  670ERGO   ROH10069   6.001  13.366   5.240  0.2958 -0.1828 -0.0388
  670ERGO    R110070   5.993  13.184   5.456  0.1858 -0.1283  0.0062
  670ERGO    R210071   6.160  13.205   5.674  0.1309 -0.1166  0.0580
  670ERGO    R310072   5.927  13.200   5.814  0.0845 -0.0168 -0.0192
  670ERGO    R410073   6.136  13.179   6.018 -0.0079 -0.1688  0.0433
  670ERGO    R510074   5.966  13.044   5.991 -0.0665 -0.0668 -0.0364
  670ERGO    C110075   5.903  13.160   6.349 -0.1323 -0.1055 -0.0377
  670ERGO    C210076   5.917  13.103   6.752 -0.1333  0.2500  0.2303
  671ERGO   ROH10077   7.734  11.889   5.675  0.0169  0.0781 -0.1034
  671ERGO    R110078   7.896  11.990   5.884 -0.0104  0.0291 -0.0584
  671ERGO    R210079   7.806  12.180   6.064 -0.0172  0.0234 -0.0568
  671ERGO    R310080   7.884  11.996   6.247 -0.0849 -0.0087 -0.0597
  671ERGO    R410081   7.763  12.210   6.406  0.1444  0.1148 -0.0435
  671ERGO    R510082   7.961  12.125   6.433  0.0923 -0.0357 -0.1117
  671ERGO    C110083   7.812  12.054   6.777  0.1749  0.1379 -0.0384
  671ERGO    C210084   7.602  11.982   7.025 -0.2563  0.0861  0.0796
  672ERGO   ROH10085   8.458  16.114   9.271 -0.3611 -0.1709 -0.0582
  672ERGO    R110086   8.556  16.051   9.013 -0.2356 -0.0583 -0.0385
  672ERGO    R210087   8.411  16.098   8.783 -0.1237  0.0390 -0.0881
  672ERGO    R310088   8.634  16.234   8.708 -0.0884  0.0739  0.0759
  672ERGO    R410089   8.532  16.119   8.459  0.2059 -0.0913  0.0221
  672ERGO    R510090   8.733  16.097   8.538  0.1348  0.0149  0.2464
  672ERGO    C110091   8.811  16.258   8.201  0.4309 -0.1348  0.2402
  672ERGO    C210092   8.823  16.345   7.912  0.0245 -0.1538 -0.0162
  673ERGO   ROH10093  16.664   1.748   9.183 -0.0694 -0.1297 -0.1330
  673ERGO    R110094  16.702   1.620   8.934 -0.0772 -0.0680 -0.1664
  673ERGO    R210095  16.515   1.629   8.731 -0.0744  0.0039 -0.1700
  673ERGO    R310096  16.725   1.721   8.585 -0.0613  0.0236 -0.1377
  673ERGO    R410097  16.504   1.706   8.394 -0.0360  0.0637 -0.1576
  673ERGO    R510098  16.701   1.616   8.372 -0.0411  0.0650 -0.1566
  673ERGO    C110099  16.695   1.838   8.062 -0.0014  0.1171 -0.1200
  673ERGO    C210100  16.603   1.879   7.736  0.0980  0.3896  0.1093
  674loPI    C110101  16.222  18.564   4.536 -0.1988 -0.2318 -0.0104
  674loPI    C210102  15.846  18.697   4.498 -0.0678  0.0345 -0.4397
  674loPI    C310103  16.154  18.934   4.403  0.2125 -0.1950 -0.1321
  674loPI   PO410104  16.245  18.450   4.828 -0.0989  0.0041 -0.0566
  674loPI   GL110105  16.222  18.557   5.249  0.1329 -0.0940 -0.1379
  674loPI   GL210106  16.235  18.312   5.372 -0.2815  0.0716 -0.0157
  674loPI   C1A10107  16.147  18.670   5.676 -0.1545 -0.1018  0.0469
  674loPI   C2A10108  16.168  18.624   6.148  0.2683 -0.2406 -0.0800
  674loPI   C3A10109  16.066  18.436   6.574  0.1201  0.0601 -0.4420
  674loPI   C4A10110  16.389  18.318   6.815 -0.3078 -0.2087 -0.0940
  674loPI   C5A10111  16.580  17.855   6.879  0.0009 -0.1197  0.1359
  674loPI   C6A10112  16.545  17.454   7.240  0.1612 -0.2372 -0.0391
  674loPI   C1B10113  16.206  18.152   5.782 -0.4550 -0.4353  0.1106
  674loPI   C2B10114  16.138  18.079   6.225 -0.0335 -0.2354 -0.0599
  674loPI   C3B10115  16.081  17.871   6.638  0.1218 -0.0005  0.0698
  674loPI   C4B10116  16.111  17.769   7.058 -0.3213 -0.0350  0.0538
  675loPI    C110117  16.303   8.709   4.750 -0.0045 -0.0647  0.0256
  675loPI    C210118  16.629   8.586   4.947 -0.0894 -0.1666  0.1037
  675loPI    C310119  16.484   8.369   4.644  0.0207 -0.0279 -0.0505
  675loPI   PO410120  16.151   8.948   5.037 -0.2637 -0.0015  0.2493
  675loPI   GL110121  16.147   9.078   5.504 -0.0521 -0.0959 -0.1310
  675loPI   GL210122  15.792   9.055   5.502 -0.1504  0.0405 -0.3134
  675loPI   C1A10123  16.155   9.128   5.919  0.2286 -0.1277  0.3814
  675loPI   C2A10124  16.217   9.230   6.397 -0.1778  0.2143 -0.2510
  675loPI   C3A10125  16.422   9.232   6.809 -0.0601  0.2118  0.0786
  675loPI   C4A10126  16.391   9.255   7.176 -0.0535 -0.0062 -0.0030
  675loPI   C5A10127  16.767   9.070   7.382 -0.1142 -0.0477 -0.0529
  675loPI   C6A10128  17.049   9.160   7.633 -0.0840  0.1238  0.0959
  675loPI   C1B10129  15.696   8.933   5.971  0.1940  0.1145 -0.2327
  675loPI   C2B10130  15.843   8.847   6.356  0.1045 -0.0302 -0.0304
  675loPI   C3B10131  15.943   9.010   6.736 -0.0542 -0.1347  0.2152
  675loPI   C4B10132  15.916   8.886   7.148 -0.1277 -0.1424 -0.1754
  676loPI    C110133   3.434  10.396   4.552 -0.4658  0.2492  0.1420
  676loPI    C210134   3.504  10.052   4.360 -0.1065  0.2389  0.2835
  676loPI    C310135   3.142  10.221   4.343 -0.2500 -0.0785  0.1074
  676loPI   PO410136   3.505  10.337   4.928  0.4131  0.2470  0.0065
  676loPI   GL110137   3.218  10.522   5.297 -0.1629 -0.1252  0.2694
  676loPI   GL210138   3.561  10.519   5.407 -0.1447 -0.2103 -0.0188
  676loPI   C1A10139   3.074  10.564   5.683  0.0241  0.0692  0.1149
  676loPI   C2A10140   3.183  10.561   6.081  0.0726 -0.1896 -0.2244
  676loPI   C3A10141   3.037  10.366   6.388  0.0499 -0.3144  0.1368
  676loPI   C4A10142   2.760  10.294   6.766  0.1907 -0.0215 -0.0437
  676loPI   C5A10143   2.567  10.092   7.050  0.0004 -0.0623 -0.3994
  676loPI   C6A10144   2.476  10.051   7.411  0.1941  0.0511 -0.0146
  676loPI   C1B10145   3.570  10.251   5.826 -0.2046  0.1893 -0.3064
  676loPI   C2B10146   3.586  10.294   6.280 -0.0127  0.1121  0.1554
  676loPI   C3B10147   3.489  10.299   6.632  0.0031  0.0056 -0.1801
  676loPI   C4B10148   3.259  10.497   6.899  0.2746  0.3180  0.1416
  677loPI    C110149  11.701   3.472   4.453 -0.0408  0.4564 -0.0042
  677loPI    C210150  11.331   3.329   4.399  0.1542 -0.1511  0.1775
  677loPI    C310151  11.627   3.216   4.154  0.2943  0.0423  0.2544
  677loPI   PO410152  11.598   3.763   4.582 -0.1652 -0.0168  0.1602
  677loPI   GL110153  11.615   3.883   5.063  0.2768  0.0797 -0.2387
  677loPI   GL210154  11.618   3.741   5.259 -0.1333 -0.2066  0.0299
  677loPI   C1A10155  11.354   4.065   5.449  0.0537 -0.0164 -0.2497
  677loPI   C2A10156  11.105   3.903   5.703  0.0923 -0.0355  0.3696
  677loPI   C3A10157  11.108   3.741   6.154  0.1263 -0.0708 -0.5174
  677loPI   C4A10158  11.000   3.791   6.494  0.2943  0.0405  0.0021
  677loPI   C5A10159  10.920   3.982   6.954  0.2561 -0.0167  0.0700
  677loPI   C6A10160  10.620   3.879   7.295 -0.1805  0.0571  0.1084
  677loPI   C1B10161  11.574   3.674   5.673 -0.3478  0.2405  0.0538
  677loPI   C2B10162  11.534   3.433   6.058 -0.2111 -0.4031 -0.1512
  677loPI   C3B10163  11.620   3.399   6.453 -0.1843  0.0446  0.1981
  677loPI   C4B10164  11.693   3.335   6.866  0.2276 -0.0627  0.3349
  678loPI    C110165   3.164   9.394   4.893  0.5109  0.0716 -0.0648
  678loPI    C210166   3.225   9.089   5.145  0.3695  0.2033  0.1317
  678loPI    C310167   3.376   9.076   4.775  0.0387 -0.2800  0.0044
  678loPI   PO410168   3.228   9.610   5.033  0.1633 -0.0842  0.0123
  678loPI   GL110169   3.283   9.548   5.394 -0.4209  0.0769  0.1059
  678loPI   GL210170   3.152   9.256   5.610 -0.1569 -0.0832  0.0377
  678loPI   C1A10171   3.291   9.795   5.745  0.0112  0.0186  0.2179
  678loPI   C2A10172   3.356   9.902   6.184  0.2594  0.3761 -0.0885
  678loPI   C3A10173   3.177   9.868   6.535 -0.4273  0.2569  0.0898
  678loPI   C4A10174   3.156   9.976   6.919 -0.1737 -0.0177 -0.0078
  678loPI   C5A10175   3.448  10.128   7.190 -0.1281 -0.1347  0.0331
  678loPI   C6A10176   3.519  10.126   7.568  0.1766  0.1343  0.1438
  678loPI   C1B10177   3.204   8.921   6.023  0.0633 -0.0633  0.0234
  678loPI   C2B10178   3.150   8.858   6.437 -0.0513  0.1462 -0.0537
  678loPI   C3B10179   3.201   8.896   6.939 -0.1020  0.4240  0.1742
  678loPI   C4B10180   3.607   8.773   7.196 -0.2865 -0.1589 -0.0770
  679loPI    C110181   6.232  14.004   5.089 -0.1852 -0.1595 -0.1635
  679loPI    C210182   6.324  13.977   4.700  0.0023  0.3392 -0.1611
  679loPI    C310183   6.533  14.221   4.939  0.1656 -0.2740  0.3498
  679loPI   PO410184   6.212  13.823   5.216  0.3611 -0.0602  0.1876
  679loPI   GL110185   6.401  13.658   5.479 -0.2446 -0.2207 -0.1860
  679loPI   GL210186   6.724  13.442   5.421  0.2185 -0.1803 -0.2772
  679loPI   C1A10187   6.614  13.879   5.797  0.0160 -0.0851 -0.0444
  679loPI   C2A10188   6.546  13.952   6.265  0.2905 -0.3132  0.2237
  679loPI   C3A10189   6.648  13.764   6.664  0.2304  0.3710  0.3585
  679loPI   C4A10190   6.823  13.675   7.134  0.0372  0.0375 -0.0846
  679loPI   C5A10191   7.300  13.527   7.230 -0.1028  0.1947 -0.1777
  679loPI   C6A10192   7.772  13.402   7.330 -0.1511  0.1096 -0.0945
  679loPI   C1B10193   6.551  13.372   5.845 -0.0729 -0.0321 -0.2535
  679loPI   C2B10194   6.650  13.403   6.233  0.3617  0.1247  0.3063
  679loPI   C3B10195   6.920  13.231   6.543  0.3060  0.2663  0.1952
  679loPI   C4B10196   7.202  13.228   6.799 -0.2165 -0.1044 -0.0137
  680loPI    C110197   8.679  18.665   4.714 -0.1324  0.1879 -0.0090
  680loPI    C210198   8.331  18.525   4.573  0.0061  0.0773 -0.2487
  680loPI    C310199   8.650  18.546   4.333  0.1826  0.1208 -0.0148
  680loPI   PO410200   8.769  18.476   4.977 -0.0543 -0.3369 -0.3882
  680loPI   GL110201   8.826  18.721   5.329 -0.0778 -0.0111  0.0854
  680loPI   GL210202   9.057  18.534   5.468  0.2000  0.2582 -0.1357
  680loPI   C1A10203   8.958  18.914   5.752  0.0609  0.0894  0.1135
  680loPI   C2A10204   9.114  18.816   6.218  0.1810 -0.1511  0.1758
  680loPI   C3A10205   9.299  18.805   6.589 -0.2119 -0.0774 -0.3817
  680loPI   C4A10206   9.061  18.804   6.955  0.0043  0.1536  0.1086
  680loPI   C5A10207   8.575  18.748   7.112 -0.1205  0.0376 -0.0028
  680loPI   C6A10208   8.255  18.762   7.398  0.4683 -0.0951 -0.0211
  680loPI   C1B10209   9.141  18.397   5.944 -0.0557 -0.2185 -0.1087
  680loPI   C2B10210   8.825  18.347   6.202 -0.2373  0.3597  0.4657
  680loPI   C3B10211   8.853  18.395   6.683 -0.0362  0.2465 -0.2098
  680loPI   C4B10212   8.890  18.360   7.072  0.2454 -0.1952  0.0481
  681loPI    C110213   2.584  11.919   4.687  0.2912 -0.2122 -0.2780
  681loPI    C210214   2.689  12.251   4.489  0.2021 -0.0538 -0.0630
  681loPI    C310215   2.424  11.999   4.329  0.0329  0.1388 -0.0901
  681loPI   PO410216   2.528  12.028   4.950  0.1404  0.1572 -0.3768
  681loPI   GL110217   2.591  11.884   5.390 -0.3647  0.2099 -0.1354
  681loPI   GL210218   2.786  12.030   5.421 -0.2432 -0.1012 -0.2148
  681loPI   C1A10219   2.524  11.750   5.791 -0.0449 -0.1863  0.1041
  681loPI   C2A10220   2.340  11.709   6.212  0.1379 -0.0672  0.1266
  681loPI   C3A10221   2.098  11.805   6.619 -0.0129  0.4664  0.0754
  681loPI   C4A10222   2.052  11.673   6.997  0.0105  0.1211 -0.2565
  681loPI   C5A10223   2.125  11.391   7.350 -0.1865  0.0547  0.0842
  681loPI   C6A10224   2.102  11.070   7.674  0.2728 -0.2491 -0.1707
  681loPI   C1B10225   2.648  12.288   5.872  0.2171  0.0865 -0.2444
  681loPI   C2B10226   2.523  12.153   6.257 -0.0287 -0.3083  0.1062
  681loPI   C3B10227   2.594  12.159   6.659  0.3443 -0.1186 -0.0084
  681loPI   C4B10228   2.856  12.073   6.893  0.1847 -0.0921 -0.2111
  682loPI    C110229   2.914  11.679   4.966 -0.1247 -0.0038  0.1523
  682loPI    C210230   3.294  11.769   4.880  0.0058 -0.1327  0.5695
  682loPI    C310231   3.020  12.059   4.901  0.0538 -0.0512  0.1603
  682loPI   PO410232   2.931  11.509   5.158 -0.1553 -0.1978  0.1493
  682loPI   GL110233   3.035  11.524   5.578 -0.1812  0.0351 -0.0504
  682loPI   GL210234   3.281  11.762   5.480  0.0035  0.1194 -0.0746
  682loPI   C1A10235   3.093  11.508   6.010 -0.1314 -0.3229 -0.1194
  682loPI   C2A10236   2.862  11.643   6.333 -0.3336 -0.5493  0.1971
  682loPI   C3A10237   2.581  11.632   6.738  0.0015  0.2225  0.0181
  682loPI   C4A10238   2.553  11.714   7.135 -0.1642 -0.2870  0.0939
  682loPI   C5A10239   2.661  12.130   7.402 -0.0540 -0.1551 -0.0897
  682loPI   C6A10240   2.857  12.525   7.563 -0.3421 -0.4440  0.0147
  682loPI   C1B10241   3.535  11.757   5.785 -0.0105 -0.2100  0.1268
  682loPI   C2B10242   3.745  11.813   6.170 -0.1972  0.1738  0.0479
  682loPI   C3B10243   3.701  11.729   6.652  0.1969 -0.0895  0.3084
  682loPI   C4B10244   3.518  11.405   7.025  0.0810  0.5391  0.2138
  683loPI    C110245   6.415   0.434   4.838  0.1789  0.2296  0.1102
  683loPI    C210246   6.660   0.626   4.587  0.0995 -0.0333 -0.1754
  683loPI    C310247   6.624   0.228   4.566 -0.2438 -0.0131 -0.0404
  683loPI   PO410248   6.392   0.460   5.041 -0.0893  0.1093  0.1998
  683loPI   GL110249   6.452   0.719   5.461  0.4255  0.1121  0.1248
  683loPI   GL210250   6.529   1.035   5.366 -0.0927  0.1042 -0.2710
  683loPI   C1A10251   6.604   0.380   5.846  0.1743 -0.1709 -0.1284
  683loPI   C2A10252   6.641   0.334   6.308 -0.0448 -0.1217  0.2079
  683loPI   C3A10253   6.705   0.193   6.610  0.0438  0.1039 -0.1894
  683loPI   C4A10254   7.033  -0.045   6.962  0.1092 -0.2200  0.1960
  683loPI   C5A10255   7.298  -0.312   7.177 -0.1017 -0.2373 -0.0213
  683loPI   C6A10256   7.360  -0.672   7.425  0.4142  0.1209 -0.0492
  683loPI   C1B10257   6.756   1.048   5.830 -0.2543  0.1062  0.0117
  683loPI   C2B10258   7.021   1.162   6.240  0.3487 -0.0792 -0.1842
  683loPI   C3B10259   7.360   1.308   6.483 -0.3073 -0.1665  0.4116
  683loPI   C4B10260   7.672   1.493   6.655  0.1033  0.1170 -0.1927
  684loPI    C110261   2.466   7.885   4.939  0.0629 -0.1342 -0.0526
  684loPI    C210262   2.092   8.016   4.885  0.0276 -0.2271 -0.0361
  684loPI    C310263   2.344   7.994   4.574  0.0488 -0.0756 -0.0304
  684loPI   PO410264   2.453   7.840   5.139 -0.0874  0.3164 -0.1019
  684loPI   GL110265   2.443   7.806   5.522  0.0017  0.1528 -0.1947
  684loPI   GL210266   2.812   7.777   5.797 -0.2033  0.3855 -0.0906
  684loPI   C1A10267   2.349   7.727   5.963 -0.0899  0.1651  0.3380
  684loPI   C2A10268   2.200   7.675   6.332 -0.6244 -0.2169  0.0239
  684loPI   C3A10269   2.286   7.495   6.779 -0.0017 -0.0765 -0.1496
  684loPI   C4A10270   2.577   7.321   7.057  0.0826 -0.0638  0.1643
  684loPI   C5A10271   2.737   7.039   7.407  0.0667 -0.0612 -0.2988
  684loPI   C6A10272   2.823   6.883   7.883  0.3016 -0.1051  0.0575
  684loPI   C1B10273   2.721   7.403   6.133  0.1430  0.2471  0.1696
  684loPI   C2B10274   2.609   7.186   6.426  0.0705 -0.3043  0.4682
  684loPI   C3B10275   2.620   6.887   6.794  0.2071  0.0111  0.2144
  684loPI   C4B10276   2.485   6.704   7.174 -0.0810  0.1053  0.2716
  685loPI    C110277  11.157   4.859   4.865  0.1775  0.1363 -0.0308
  685loPI    C210278  11.495   4.754   5.051  0.2326  0.1698 -0.1116
  685loPI    C310279  11.456   4.692   4.658  0.1110  0.0863 -0.0870
  685loPI   PO410280  10.933   4.674   5.011  0.0561 -0.2656  0.1352
  685loPI   GL110281  10.839   4.613   5.427  0.2162 -0.1443  0.2929
  685loPI   GL210282  11.193   4.533   5.447  0.0854 -0.0149  0.1530
  685loPI   C1A10283  10.985   4.420   5.830  0.0843 -0.0334  0.0490
  685loPI   C2A10284  11.055   4.227   6.239 -0.1241 -0.0265  0.2909
  685loPI   C3A10285  10.979   4.278   6.584 -0.0265  0.0985 -0.1838
  685loPI   C4A10286  10.980   4.523   6.800  0.1732 -0.2619 -0.3528
  685loPI   C5A10287  11.167   4.958   7.001 -0.3401 -0.0480  0.1515
  685loPI   C6A10288  11.345   5.313   6.794  0.0492 -0.1413  0.2589
  685loPI   C1B10289  11.478   4.526   5.879 -0.2483 -0.1453  0.3039
  685loPI   C2B10290  11.519   4.437   6.282 -0.2457  0.2117 -0.2237
  685loPI   C3B10291  11.748   4.329   6.677  0.3227  0.1348  0.1669
  685loPI   C4B10292  12.101   4.595   6.556  0.3120 -0.0383  0.3801
  686loPI    C110293   3.858  12.956   4.699  0.0705  0.1317  0.0011
  686loPI    C210294   4.076  12.732   4.450  0.0935  0.1647 -0.0087
  686loPI    C310295   3.677  12.701   4.450  0.1001  0.0763  0.0363
  686loPI   PO410296   3.913  12.857   4.945 -0.0016  0.2256  0.0342
  686loPI   GL110297   3.932  12.726   5.379 -0.0969  0.0080  0.3204
  686loPI   GL210298   3.675  12.558   5.391 -0.0597 -0.0812  0.1485
  686loPI   C1A10299   3.680  12.764   5.827 -0.1853  0.1522  0.0764
  686loPI   C2A10300   3.614  12.738   6.258  0.0186  0.2463 -0.1803
  686loPI   C3A10301   3.405  12.686   6.626  0.2115 -0.3484 -0.1186
  686loPI   C4A10302   3.511  12.743   7.084 -0.4795 -0.1152  0.0281
  686loPI   C5A10303   3.777  12.769   7.525  0.0388 -0.1801 -0.0307
  686loPI   C6A10304   3.592  12.713   7.959 -0.0013  0.0780  0.1831
  686loPI   C1B10305   3.662  12.289   5.710  0.4093 -0.0903 -0.3890
  686loPI   C2B10306   3.667  12.280   6.198 -0.0845 -0.1376  0.3958
  686loPI   C3B10307   3.770  12.314   6.547  0.1312  0.0692 -0.0468
  686loPI   C4B10308   3.772  12.347   6.955  0.0350  0.3267  0.0402
  687loPI    C110309   8.314  11.465   5.104  0.0409 -0.1182  0.0549
  687loPI    C210310   8.042  11.213   4.956 -0.0351  0.0403 -0.0792
  687loPI    C310311   8.432  11.135   4.912 -0.0555 -0.2201  0.1696
  687loPI   PO410312   8.265  11.460   5.304  0.2722  0.1399 -0.2494
  687loPI   GL110313   8.034  11.263   5.584  0.2217 -0.0174  0.0936
  687loPI   GL210314   8.263  11.212   5.777  0.1660 -0.1850 -0.0285
  687loPI   C1A10315   7.702  11.388   5.730  0.2117 -0.0806  0.2291
  687loPI   C2A10316   7.531  11.527   6.096  0.2129  0.1234 -0.1286
  687loPI   C3A10317   7.612  11.330   6.496  0.3245  0.3379 -0.0688
  687loPI   C4A10318   7.641  11.001   6.744  0.0334  0.0280  0.0994
  687loPI   C5A10319   7.629  10.666   6.474  0.2518 -0.3913  0.1432
  687loPI   C6A10320   7.505  10.560   6.156  0.0964 -0.2809  0.2250
  687loPI   C1B10321   8.016  11.532   6.045 -0.1406 -0.1091  0.0246
  687loPI   C2B10322   8.004  11.616   6.546 -0.1107 -0.3860 -0.0499
  687loPI   C3B10323   7.712  11.480   6.932 -0.2051  0.1430 -0.0769
  687loPI   C4B10324   7.510  11.620   7.352  0.1012  0.2306  0.0364
  688loPI    C110325  16.294  16.415   4.486 -0.2158  0.2336 -0.0538
  688loPI    C210326  16.344  16.052   4.326 -0.2093  0.1633  0.1059
  688loPI    C310327  16.230  16.358   4.095 -0.1046  0.0853 -0.0511
  688loPI   PO410328  16.209  16.343   4.757  0.0339 -0.5840 -0.0856
  688loPI   GL110329  16.218  16.412   5.137 -0.1766  0.1995  0.1106
  688loPI   GL210330  16.539  16.573   5.091 -0.0403 -0.2304 -0.0748
  688loPI   C1A10331  16.174  16.285   5.584 -0.2925  0.1212 -0.3110
  688loPI   C2A10332  16.437  16.194   5.881  0.1221  0.3092  0.0882
  688loPI   C3A10333  16.594  16.350   6.294  0.0032 -0.1596  0.1681
  688loPI   C4A10334  16.963  16.456   6.399 -0.2833  0.0691  0.0827
  688loPI   C5A10335  16.898  16.307   6.828 -0.0218 -0.2406  0.0167
  688loPI   C6A10336  16.928  15.860   6.949  0.1103 -0.0060  0.2605
  688loPI   C1B10337  16.413  16.704   5.539 -0.0917 -0.2236 -0.1597
  688loPI   C2B10338  16.500  16.752   6.006 -0.1171  0.1658  0.0436
  688loPI   C3B10339  16.494  16.877   6.426 -0.0904  0.0487  0.0794
  688loPI   C4B10340  16.405  16.684   6.821  0.0137 -0.0177 -0.1779
  689loPI    C110341   7.667   6.989   5.069  0.1478  0.0831  0.0188
  689loPI    C210342   7.903   6.907   5.382  0.1808  0.0855 -0.0054
  689loPI    C310343   7.988   6.755   5.022 -0.1735 -0.3882  0.1021
  689loPI   PO410344   7.401   6.994   5.269  0.2002 -0.1967  0.1029
  689loPI   GL110345   7.445   6.758   5.723 -0.0444 -0.0817 -0.2981
  689loPI   GL210346   7.342   6.478   5.752 -0.0264 -0.1423 -0.0158
  689loPI   C1A10347   7.486   6.694   6.162 -0.0951  0.0265  0.0069
  689loPI   C2A10348   7.250   6.777   6.540  0.1126  0.2445 -0.1906
  689loPI   C3A10349   7.234   6.969   6.908 -0.0810 -0.3654  0.2301
  689loPI   C4A10350   7.013   7.057   7.231 -0.0886 -0.2517  0.0071
  689loPI   C5A10351   6.619   7.105   7.483 -0.2699  0.0787 -0.1506
  689loPI   C6A10352   6.390   7.070   7.767  0.0376  0.0792  0.0125
  689loPI   C1B10353   7.029   6.560   6.015 -0.1365  0.1037  0.0493
  689loPI   C2B10354   6.570   6.800   5.986  0.0392  0.1299  0.1427
  689loPI   C3B10355   6.216   6.889   6.265  0.3281 -0.1998 -0.1935
  689loPI   C4B10356   6.245   6.917   6.786  0.0808  0.2158  0.1781
  690loPI    C110357  11.361   9.622   5.011  0.2259 -0.0356 -0.1426
  690loPI    C210358  11.557   9.970   5.030 -0.1185  0.1477  0.1969
  690loPI    C310359  11.497   9.793   4.676  0.4488  0.2009  0.0648
  690loPI   PO410360  11.421   9.501   5.299 -0.0421  0.0267  0.0173
  690loPI   GL110361  11.488   9.164   5.500  0.2145  0.0387 -0.2333
  690loPI   GL210362  11.623   9.281   5.723  0.1310 -0.1498  0.1446
  690loPI   C1A10363  11.264   9.066   5.911 -0.4325 -0.0165  0.0952
  690loPI   C2A10364  11.118   8.959   6.275  0.1381 -0.0718  0.1451
  690loPI   C3A10365  10.790   8.865   6.450  0.2443  0.1321 -0.1799
  690loPI   C4A10366  10.700   8.507   6.800 -0.3319  0.1414 -0.1827
  690loPI   C5A10367  10.851   8.536   7.226 -0.3330 -0.4023  0.1464
  690loPI   C6A10368  10.863   8.219   7.601  0.0498 -0.0222 -0.0123
  690loPI   C1B10369  11.585   9.415   6.070 -0.0208  0.1262 -0.2705
  690loPI   C2B10370  11.485   9.428   6.524  0.2402  0.0035  0.1631
  690loPI   C3B10371  11.421   9.308   6.965  0.0512  0.2044 -0.1229
  690loPI   C4B10372  11.411   9.469   7.385  0.1604 -0.3141  0.1799
  691loPI    C110373  10.855  17.072   5.037 -0.0573 -0.0232  0.2792
  691loPI    C210374  10.637  17.192   5.350 -0.0907  0.1867  0.1778
  691loPI    C310375  10.665  17.424   5.026 -0.2442 -0.1297 -0.0682
  691loPI   PO410376  10.984  16.792   5.144  0.3323 -0.0128 -0.2385
  691loPI   GL110377  11.347  16.732   5.375  0.2563  0.3656 -0.2814
  691loPI   GL210378  11.579  16.795   5.234 -0.0478 -0.0792  0.2173
  691loPI   C1A10379  11.072  16.792   5.797  0.1624 -0.3996 -0.1733
  691loPI   C2A10380  11.121  16.938   6.223  0.1093  0.0619  0.2522
  691loPI   C3A10381  11.134  16.859   6.637 -0.0038 -0.0509  0.0226
  691loPI   C4A10382  11.232  16.691   7.035 -0.1737 -0.1755 -0.3108
  691loPI   C5A10383  11.754  16.595   7.078  0.0053  0.2534  0.0777
  691loPI   C6A10384  12.133  16.541   6.950 -0.0398 -0.0879  0.2144
  691loPI   C1B10385  11.510  17.066   5.709 -0.0424 -0.0094  0.0583
  691loPI   C2B10386  11.629  17.213   6.047 -0.1546 -0.0714  0.0196
  691loPI   C3B10387  11.657  17.085   6.448  0.0158  0.0111  0.1013
  691loPI   C4B10388  11.716  16.694   6.569  0.0782  0.6595  0.2210
  692loPI    C110389  14.911  13.880   4.778  0.1236  0.2264 -0.3136
  692loPI    C210390  14.833  13.496   4.699 -0.2269  0.1971  0.1303
  692loPI    C310391  14.719  13.780   4.441 -0.2467  0.0269 -0.0512
  692loPI   PO410392  14.722  13.961   5.006 -0.2758  0.0744 -0.1028
  692loPI   GL110393  14.572  13.808   5.343  0.0201 -0.1658  0.1676
  692loPI   GL210394  14.279  13.878   5.380  0.2759 -0.2033  0.0373
  692loPI   C1A10395  14.377  13.661   5.771  0.1306  0.0504  0.1743
  692loPI   C2A10396  14.342  13.747   6.230  0.3929  0.2139  0.0966
  692loPI   C3A10397  14.433  13.589   6.604 -0.0671 -0.1902 -0.0568
  692loPI   C4A10398  14.687  13.634   6.961 -0.0000  0.1446  0.0983
  692loPI   C5A10399  14.693  13.525   7.430  0.0418  0.2553  0.0986
  692loPI   C6A10400  14.838  13.775   7.764  0.1236 -0.2875 -0.2310
  692loPI   C1B10401  14.216  14.266   5.647 -0.1808 -0.3463  0.0735
  692loPI   C2B10402  14.421  14.393   6.037 -0.0987  0.1005 -0.0609
  692loPI   C3B10403  14.285  14.201   6.373 -0.0074  0.0914  0.0385
  692loPI   C4B10404  14.042  14.304   6.689  0.1513  0.0268  0.0105
  693loPI    C110405  18.064   1.407   4.816  0.0010 -0.0093  0.0851
  693loPI    C210406  17.746   1.556   5.007 -0.0044  0.0121  0.0596
  693loPI    C310407  17.918   1.765   4.713 -0.0787 -0.0801 -0.0508
  693loPI   PO410408  18.257   1.303   5.083  0.1877 -0.1579 -0.0136
  693loPI   GL110409  18.450   1.312   5.443  0.1099  0.0712  0.1425
  693loPI   GL210410  18.577   1.611   5.282 -0.1833  0.2017  0.0206
  693loPI   C1A10411  18.431   1.281   6.040  0.0428 -0.0006 -0.1086
  693loPI   C2A10412  18.246   1.346   6.416 -0.1924  0.2661  0.5595
  693loPI   C3A10413  18.192   1.348   6.738 -0.1683 -0.2131  0.0444
  693loPI   C4A10414  18.450   1.487   6.952 -0.0735  0.1242  0.0799
  693loPI   C5A10415  18.884   1.420   7.097 -0.2631  0.1720  0.0387
  693loPI   C6A10416  19.173   1.481   7.453  0.0049  0.0540  0.0174
  693loPI   C1B10417  18.517   1.717   5.754  0.0177 -0.0353 -0.2537
  693loPI   C2B10418  18.221   1.722   6.082  0.1483 -0.0181 -0.5413
  693loPI   C3B10419  18.155   1.843   6.524  0.1615 -0.1128 -0.0585
  693loPI   C4B10420  18.079   2.102   6.806 -0.2246 -0.0718 -0.0354
  694loPI    C110421   9.060  15.103   4.655 -0.0324  0.1003  0.1615
  694loPI    C210422   8.940  15.460   4.520 -0.0225  0.1099  0.1781
  694loPI    C310423   9.059  15.178   4.262  0.0360  0.1426  0.1692
  694loPI   PO410424   8.946  15.186   4.961 -0.2464  0.0121 -0.0222
  694loPI   GL110425   8.659  15.215   5.287 -0.2764  0.1771 -0.4551
  694loPI   GL210426   8.502  14.980   5.145  0.1142 -0.0765  0.1986
  694loPI   C1A10427   8.659  15.159   5.747 -0.2562 -0.3055  0.0170
  694loPI   C2A10428   8.650  15.512   6.186  0.0313 -0.1785 -0.2763
  694loPI   C3A10429   8.539  15.545   6.653  0.1774  0.2300 -0.1535
  694loPI   C4A10430   8.639  15.341   6.943  0.3217 -0.1298  0.1595
  694loPI   C5A10431   8.639  15.061   7.419  0.0241 -0.1281  0.4028
  694loPI   C6A10432   8.484  14.656   7.440  0.2483  0.0089 -0.0731
  694loPI   C1B10433   8.558  14.703   5.509  0.2356 -0.0982 -0.0115
  694loPI   C2B10434   8.384  14.789   5.967  0.0870 -0.0897 -0.2174
  694loPI   C3B10435   8.293  14.665   6.411 -0.0142 -0.1313  0.0619
  694loPI   C4B10436   8.090  14.777   6.772  0.2603 -0.1581  0.0118
  695loPI    C110437  13.428   6.712   5.117  0.2530  0.1946 -0.1636
  695loPI    C210438  13.685   6.557   4.852  0.0563 -0.1130 -0.1800
  695loPI    C310439  13.327   6.686   4.730 -0.0767 -0.3538 -0.0513
  695loPI   PO410440  13.451   6.462   5.316 -0.1185 -0.0443 -0.0081
  695loPI   GL110441  13.539   6.289   5.626  0.1339  0.1487 -0.1069
  695loPI   GL210442  13.851   6.208   5.682  0.0544  0.3927 -0.1777
  695loPI   C1A10443  13.257   6.161   5.834  0.2290 -0.0234 -0.0964
  695loPI   C2A10444  13.149   5.924   6.220 -0.1633  0.0029  0.4051
  695loPI   C3A10445  13.146   5.690   6.504 -0.1171  0.1238 -0.0585
  695loPI   C4A10446  13.036   5.510   6.931 -0.1530 -0.0593 -0.1582
  695loPI   C5A10447  12.854   5.440   7.278 -0.2634 -0.0700  0.2468
  695loPI   C6A10448  12.742   5.745   7.566 -0.2536 -0.1453  0.0451
  695loPI   C1B10449  13.679   6.073   6.111 -0.2388 -0.3159 -0.0457
  695loPI   C2B10450  13.659   6.024   6.571 -0.0446 -0.0727 -0.0782
  695loPI   C3B10451  13.452   5.829   6.952 -0.0530  0.0956  0.2153
  695loPI   C4B10452  13.266   5.751   7.276  0.1387  0.3126  0.0640
  696loPI    C110453   9.682   5.974   5.052  0.2204  0.1885  0.0956
  696loPI    C210454   9.587   5.718   4.760 -0.1739 -0.0125  0.3919
  696loPI    C310455   9.708   6.088   4.669 -0.0480 -0.1510 -0.0285
  696loPI   PO410456   9.458   6.026   5.188  0.3488  0.4282 -0.0543
  696loPI   GL110457   9.406   5.934   5.558 -0.2034 -0.1068 -0.1598
  696loPI   GL210458   9.164   5.683   5.527  0.1403 -0.1677  0.0636
  696loPI   C1A10459   9.446   5.639   5.949 -0.0612 -0.1247 -0.3282
  696loPI   C2A10460   9.408   5.638   6.406  0.1078  0.1438 -0.2047
  696loPI   C3A10461   9.221   5.654   6.794 -0.0442  0.0693  0.1541
  696loPI   C4A10462   9.067   5.822   7.130 -0.0292  0.0947 -0.3486
  696loPI   C5A10463   8.880   5.821   7.458 -0.1395 -0.2205 -0.0753
  696loPI   C6A10464   8.879   6.057   7.806  0.2164  0.0693  0.1453
  696loPI   C1B10465   8.975   5.664   5.998 -0.3257  0.3183 -0.0632
  696loPI   C2B10466   8.872   5.458   6.454 -0.2439 -0.0213  0.2425
  696loPI   C3B10467   8.766   5.481   6.921  0.1046  0.2399  0.2686
  696loPI   C4B10468   8.654   5.307   7.273  0.0775 -0.2710 -0.0115
  697loPI    C110469   8.590  16.594   4.486 -0.1352  0.0705  0.1371
  697loPI    C210470   8.340  16.296   4.581 -0.1906  0.0148 -0.1744
  697loPI    C310471   8.392  16.399   4.198  0.3042 -0.0085 -0.1187
  697loPI   PO410472   8.732  16.565   4.776 -0.2765 -0.1477 -0.0202
  697loPI   GL110473   8.703  16.568   5.202 -0.1484 -0.1465 -0.0897
  697loPI   GL210474   8.496  16.438   5.473  0.4041 -0.0960  0.1003
  697loPI   C1A10475   8.833  16.764   5.555  0.1266 -0.2919 -0.1871
  697loPI   C2A10476   8.642  16.915   5.940  0.2792 -0.1820  0.3350
  697loPI   C3A10477   8.574  17.076   6.355  0.1939 -0.0132 -0.0472
  697loPI   C4A10478   8.583  16.970   6.863 -0.0815 -0.0962 -0.0918
  697loPI   C5A10479   8.585  16.576   7.172  0.0323  0.3527 -0.1351
  697loPI   C6A10480   8.905  16.523   7.416 -0.0306  0.0793 -0.0260
  697loPI   C1B10481   8.488  16.285   5.810 -0.1684  0.1054  0.0688
  697loPI   C2B10482   8.464  16.467   6.201  0.0946  0.1417  0.1013
  697loPI   C3B10483   8.478  16.551   6.627  0.3568 -0.0213  0.1338
  697loPI   C4B10484   8.119  16.749   7.008 -0.1806 -0.0579  0.1882
  698loPI    C110485  17.082  12.680   5.004 -0.0371  0.3363 -0.3736
  698loPI    C210486  16.772  12.443   5.090  0.2720  0.1446  0.2824
  698loPI    C310487  17.001  12.364   4.772 -0.0559  0.0015  0.0754
  698loPI   PO410488  17.052  12.773   5.336 -0.0304  0.2662 -0.0601
  698loPI   GL110489  17.176  12.522   5.756  0.0423 -0.1030  0.1647
  698loPI   GL210490  16.820  12.637   5.763  0.0222  0.0837 -0.0766
  698loPI   C1A10491  17.480  12.658   5.998  0.2296 -0.1457  0.0567
  698loPI   C2A10492  17.657  12.663   6.363 -0.0130 -0.0978  0.2431
  698loPI   C3A10493  17.670  12.540   6.820  0.2071  0.1115  0.1639
  698loPI   C4A10494  17.535  12.618   7.223 -0.0505 -0.0688 -0.0589
  698loPI   C5A10495  17.213  12.591   7.467 -0.1453 -0.0751 -0.4439
  698loPI   C6A10496  16.884  12.453   7.597 -0.0225  0.1405 -0.2164
  698loPI   C1B10497  16.654  12.904   6.099 -0.3015  0.0692 -0.0218
  698loPI   C2B10498  16.554  13.054   6.458 -0.1799  0.2032 -0.1890
  698loPI   C3B10499  16.265  13.352   6.334  0.3527  0.0957  0.0772
  698loPI   C4B10500  15.993  13.707   6.188 -0.2503  0.2239  0.0498
  699loPI    C110501   4.081  15.780   4.536 -0.1413 -0.7397  0.1296
  699loPI    C210502   4.426  15.709   4.727  0.0522 -0.2104 -0.0063
  699loPI    C310503   4.417  15.720   4.327 -0.0667  0.0286  0.0012
  699loPI   PO410504   3.948  15.807   4.720  0.0600 -0.0012  0.0087
  699loPI   GL110505   3.775  15.660   5.186 -0.1505  0.1509  0.0013
  699loPI   GL210506   4.152  15.599   5.236  0.4310  0.1526  0.1637
  699loPI   C1A10507   3.575  15.710   5.581 -0.2343 -0.1297  0.1452
  699loPI   C2A10508   3.475  15.620   5.916 -0.1299 -0.0370 -0.0939
  699loPI   C3A10509   3.376  15.657   6.270  0.1568 -0.2735  0.0300
  699loPI   C4A10510   3.385  15.654   6.697  0.1313 -0.2650 -0.1006
  699loPI   C5A10511   3.438  15.779   7.074 -0.2384 -0.5216  0.1356
  699loPI   C6A10512   3.715  15.743   7.336 -0.1592  0.1560 -0.1429
  699loPI   C1B10513   4.417  15.497   5.628 -0.2378  0.1462  0.0058
  699loPI   C2B10514   4.384  15.307   5.968  0.1986 -0.0817 -0.1178
  699loPI   C3B10515   4.420  15.369   6.435  0.1673 -0.1128  0.2571
  699loPI   C4B10516   4.275  15.417   6.851  0.0791  0.2806  0.1966
  700loPI    C110517  18.211   8.618   5.257  0.3064 -0.0327 -0.0290
  700loPI    C210518  17.938   8.760   5.001  0.0401  0.0569  0.2974
  700loPI    C310519  18.158   8.441   4.902  0.0073  0.1455 -0.0773
  700loPI   PO410520  18.207   8.886   5.403  0.3789  0.1238 -0.0744
  700loPI   GL110521  18.000   9.173   5.772  0.0092  0.0141  0.3389
  700loPI   GL210522  18.374   9.090   5.867 -0.2630 -0.1271  0.0980
  700loPI   C1A10523  18.148   9.543   5.978  0.3396  0.0313 -0.0112
  700loPI   C2A10524  18.251   9.836   6.327 -0.0686  0.1360 -0.2230
  700loPI   C3A10525  18.291   9.883   6.729  0.1238  0.0026  0.0926
  700loPI   C4A10526  18.378  10.134   7.181  0.0219 -0.4821  0.1014
  700loPI   C5A10527  18.516   9.994   7.604  0.0359 -0.1261  0.2262
  700loPI   C6A10528  18.517   9.725   7.983 -0.2132  0.3965 -0.0011
  700loPI   C1B10529  18.233   9.128   6.215  0.0452  0.1551  0.0623
  700loPI   C2B10530  18.304   9.314   6.588 -0.1922  0.2024 -0.2856
  700loPI   C3B10531  18.306   9.394   6.910  0.0928 -0.0162  0.1019
  700loPI   C4B10532  18.337   9.681   7.285  0.1820 -0.1263  0.0223
  701loPI    C110533  16.387  17.193   4.270  0.0762  0.1894 -0.2677
  701loPI    C210534  16.505  16.811   4.244 -0.0784  0.1263 -0.0783
  701loPI    C310535  16.693  17.095   4.032  0.1269 -0.0341 -0.1137
  701loPI   PO410536  16.169  17.234   4.532 -0.1184 -0.2766  0.1529
  701loPI   GL110537  15.933  17.338   4.976 -0.3014 -0.0116  0.0851
  701loPI   GL210538  16.171  17.536   5.034  0.0057 -0.1367 -0.2503
  701loPI   C1A10539  16.037  17.051   5.372 -0.0286 -0.2322 -0.1282
  701loPI   C2A10540  15.990  16.830   5.696 -0.2034  0.1069  0.1299
  701loPI   C3A10541  16.064  16.538   6.068  0.3198  0.0880  0.1726
  701loPI   C4A10542  16.131  16.367   6.434 -0.0070 -0.3225 -0.0709
  701loPI   C5A10543  15.993  16.333   6.773 -0.0841 -0.1124 -0.0720
  701loPI   C6A10544  15.725  16.131   6.972 -0.1744 -0.0959 -0.1241
  701loPI   C1B10545  16.302  17.624   5.466 -0.0079  0.2688 -0.0581
  701loPI   C2B10546  16.408  17.746   5.952 -0.1571  0.1134  0.2544
  701loPI   C3B10547  16.516  17.665   6.388  0.2253  0.2680 -0.0844
  701loPI   C4B10548  16.317  17.432   6.682 -0.1320 -0.1232 -0.2185
  702loPI    C110549  17.361  10.497   4.975 -0.0024 -0.0657 -0.1066
  702loPI    C210550  17.454  10.351   4.614  0.1678 -0.2716  0.0182
  702loPI    C310551  17.075  10.448   4.699  0.1410 -0.1384 -0.2436
  702loPI   PO410552  17.448  10.808   5.119  0.3117  0.0928 -0.0460
  702loPI   GL110553  17.344  10.844   5.490 -0.0046 -0.2151  0.0287
  702loPI   GL210554  17.605  10.926   5.634  0.4135 -0.0554 -0.0726
  702loPI   C1A10555  17.237  10.779   5.957 -0.2575  0.4580  0.1443
  702loPI   C2A10556  17.323  10.779   6.386  0.0851 -0.1239  0.1476
  702loPI   C3A10557  17.325  10.783   6.876  0.2123 -0.2596 -0.1036
  702loPI   C4A10558  17.448  10.772   7.243 -0.3833 -0.1316 -0.3641
  702loPI   C5A10559  17.456  10.971   7.652  0.0990 -0.0020  0.0387
  702loPI   C6A10560  17.661  11.228   7.888 -0.2299 -0.0849 -0.5748
  702loPI   C1B10561  17.617  11.069   6.059  0.0055  0.1221 -0.1295
  702loPI   C2B10562  17.775  11.114   6.449  0.4082 -0.2402 -0.0083
  702loPI   C3B10563  17.580  11.258   6.746  0.0981 -0.0951  0.1907
  702loPI   C4B10564  17.126  11.267   6.916 -0.2221 -0.2636 -0.0301
  703loPI    C110565   8.309   5.176   4.918 -0.0037  0.0249 -0.3003
  703loPI    C210566   8.318   4.792   4.807 -0.3116 -0.0490 -0.0813
  703loPI    C310567   7.987   4.945   4.972 -0.0025  0.1581  0.3660
  703loPI   PO410568   8.506   5.215   5.047  0.0054 -0.3146 -0.0136
  703loPI   GL110569   8.709   5.549   5.255  0.1800 -0.0811  0.0533
  703loPI   GL210570   8.496   5.678   5.423  0.0610  0.1096 -0.1400
  703loPI   C1A10571   8.629   5.240   5.684 -0.0954  0.1229  0.0653
  703loPI   C2A10572   8.590   5.255   6.019  0.1522 -0.1541  0.2224
  703loPI   C3A10573   8.465   5.055   6.428  0.1758 -0.0360 -0.4390
  703loPI   C4A10574   8.176   5.080   6.683  0.1382 -0.2146  0.1150
  703loPI   C5A10575   8.114   5.020   7.145  0.0216  0.0376  0.1033
  703loPI   C6A10576   7.872   4.903   7.532 -0.2345 -0.1864 -0.1440
  703loPI   C1B10577   8.521   5.788   5.777 -0.0334 -0.1975 -0.1130
  703loPI   C2B10578   8.496   5.755   6.198 -0.4262  0.1024 -0.0802
  703loPI   C3B10579   8.371   5.545   6.511  0.0404  0.0435 -0.0667
  703loPI   C4B10580   8.206   5.514   6.988 -0.0204  0.1295  0.3924
  704loPI    C110581  17.492  12.354   4.554  0.0547 -0.0728  0.2051
  704loPI    C210582  17.299  12.578   4.285 -0.0877  0.0817  0.4334
  704loPI    C310583  17.441  12.219   4.180 -0.2431  0.0903  0.1843
  704loPI   PO410584  17.578  12.565   4.758  0.1498  0.2238  0.2087
  704loPI   GL110585  17.538  12.782   5.158 -0.1267 -0.0778 -0.1538
  704loPI   GL210586  17.628  12.461   5.244 -0.1203 -0.3317 -0.0169
  704loPI   C1A10587  17.688  12.882   5.550  0.4646  0.0252  0.0955
  704loPI   C2A10588  17.733  13.129   5.976 -0.1244 -0.2672  0.1251
  704loPI   C3A10589  17.662  13.205   6.374  0.1113  0.0483 -0.1203
  704loPI   C4A10590  17.807  13.089   6.742  0.1431 -0.0411 -0.2726
  704loPI   C5A10591  18.002  13.209   7.078  0.2284  0.0413  0.2203
  704loPI   C6A10592  18.316  13.050   7.183  0.0621 -0.0677  0.1027
  704loPI   C1B10593  17.621  12.363   5.588 -0.3495 -0.1221  0.1013
  704loPI   C2B10594  17.915  12.411   5.861  0.3816 -0.1186 -0.4766
  704loPI   C3B10595  18.024  12.739   6.019 -0.3577 -0.2291 -0.2593
  704loPI   C4B10596  18.123  13.013   6.400 -0.6098  0.0744 -0.0336
  705loPI    C110597  17.985  10.334   4.787 -0.1972  0.0863  0.0845
  705loPI    C210598  18.306  10.566   4.734 -0.2871  0.2610  0.2886
  705loPI    C310599  18.352  10.182   4.835 -0.1392  0.2100  0.0376
  705loPI   PO410600  17.859  10.447   4.967 -0.1071 -0.3561 -0.1926
  705loPI   GL110601  17.715  10.468   5.344  0.0696  0.0543  0.1374
  705loPI   GL210602  17.884  10.481   5.644 -0.0888 -0.1842 -0.1058
  705loPI   C1A10603  17.387  10.335   5.653 -0.1672 -0.2093  0.2856
  705loPI   C2A10604  17.334  10.285   6.225  0.0031  0.0597  0.1636
  705loPI   C3A10605  17.348  10.303   6.675  0.2495  0.1285 -0.0321
  705loPI   C4A10606  17.429   9.967   6.845 -0.3470  0.0223 -0.0427
  705loPI   C5A10607  17.378   9.566   6.920  0.0206  0.0982  0.0466
  705loPI   C6A10608  17.296   9.150   7.150 -0.1126  0.1408 -0.0444
  705loPI   C1B10609  17.738  10.583   6.120 -0.1244 -0.3518  0.0239
  705loPI   C2B10610  17.794  10.691   6.625 -0.0043  0.0742  0.2009
  705loPI   C3B10611  17.822  10.903   6.944  0.0648  0.1531 -0.0222
  705loPI   C4B10612  17.659  11.232   7.274 -0.1316  0.0558 -0.3878
  706loPI    C110613  12.951   7.153   4.811 -0.0075  0.0928  0.1209
  706loPI    C210614  12.688   7.009   4.546 -0.0448 -0.0845  0.2521
  706loPI    C310615  12.980   7.254   4.426 -0.2649  0.1098  0.1041
  706loPI   PO410616  12.993   7.019   4.963 -0.2075  0.0596  0.0145
  706loPI   GL110617  13.035   6.843   5.445 -0.5548 -0.0942 -0.0542
  706loPI   GL210618  13.400   6.997   5.499 -0.0569 -0.1116  0.2313
  706loPI   C1A10619  13.182   6.646   5.907  0.2378 -0.1716  0.0112
  706loPI   C2A10620  13.344   6.404   6.314  0.3638  0.0318  0.1604
  706loPI   C3A10621  13.246   6.237   6.827  0.5773  0.0071  0.0555
  706loPI   C4A10622  13.026   6.190   7.195 -0.2771  0.2422 -0.0273
  706loPI   C5A10623  12.950   6.201   7.675 -0.1739 -0.2243 -0.3874
  706loPI   C6A10624  12.586   6.131   7.842 -0.0423 -0.1699 -0.2349
  706loPI   C1B10625  13.556   7.018   5.897 -0.1692  0.0978  0.0427
  706loPI   C2B10626  13.740   6.954   6.311  0.2309 -0.3005 -0.0540
  706loPI   C3B10627  14.083   6.882   6.596  0.1288  0.1207 -0.0129
  706loPI   C4B10628  14.138   6.738   6.943 -0.1202  0.1345 -0.2115
  707loPI    C110629   9.664  16.988   4.864  0.0380  0.0659  0.1668
  707loPI    C210630   9.884  16.893   4.544  0.0162  0.2243  0.1038
  707loPI    C310631   9.508  17.020   4.497 -0.0714  0.0083  0.2080
  707loPI   PO410632   9.730  16.850   5.032 -0.0111 -0.0841  0.0318
  707loPI   GL110633   9.984  16.855   5.318 -0.0539  0.0804  0.2592
  707loPI   GL210634  10.108  17.131   5.474 -0.1525  0.0467 -0.0377
  707loPI   C1A10635   9.941  16.647   5.698 -0.1711  0.0294 -0.0111
  707loPI   C2A10636   9.993  16.630   6.051 -0.0806 -0.3901 -0.0231
  707loPI   C3A10637  10.208  16.791   6.361  0.0739  0.0070  0.2378
  707loPI   C4A10638  10.507  17.112   6.468 -0.4276  0.1196 -0.1736
  707loPI   C5A10639  10.742  17.302   6.661 -0.0834  0.1330 -0.3280
  707loPI   C6A10640  10.805  17.488   7.068 -0.0856  0.2403 -0.4348
  707loPI   C1B10641   9.825  17.305   5.656  0.0431 -0.2797 -0.2281
  707loPI   C2B10642   9.666  17.468   6.069 -0.1225 -0.1474  0.0639
  707loPI   C3B10643   9.539  17.392   6.356  0.1802 -0.0406 -0.1709
  707loPI   C4B10644   9.600  17.280   6.805 -0.1832  0.0574 -0.1455
  708loPI    C110645  10.412  14.209   4.623 -0.3108 -0.1094 -0.0629
  708loPI    C210646  10.441  14.311   4.237  0.0373  0.0816  0.0099
  708loPI    C310647  10.236  13.984   4.343 -0.0398  0.0140 -0.3374
  708loPI   PO410648  10.661  14.141   4.770  0.2083  0.1043 -0.2154
  708loPI   GL110649  10.730  14.296   5.171  0.3133 -0.4059  0.1732
  708loPI   GL210650  10.702  14.592   5.307  0.0610  0.1504  0.0640
  708loPI   C1A10651  10.986  14.275   5.590 -0.2911  0.1500  0.0550
  708loPI   C2A10652  11.141  14.455   5.868  0.0042  0.2996  0.2566
  708loPI   C3A10653  11.108  14.528   6.393 -0.1201  0.0125 -0.1503
  708loPI   C4A10654  11.236  14.581   6.773 -0.0025 -0.2101 -0.2131
  708loPI   C5A10655  11.569  14.652   6.920  0.4158 -0.0675 -0.1698
  708loPI   C6A10656  11.803  14.510   7.298 -0.2714 -0.1059  0.0711
  708loPI   C1B10657  10.506  14.678   5.762  0.1218  0.1406  0.3589
  708loPI   C2B10658  10.385  14.848   6.127  0.1443  0.1263  0.0469
  708loPI   C3B10659  10.319  14.850   6.536 -0.2593  0.2453  0.1021
  708loPI   C4B10660  10.375  14.958   6.874  0.1891 -0.0270 -0.0323
  709loPI    C110661  10.521  16.531   4.621 -0.0864 -0.2852 -0.1774
  709loPI    C210662  10.903  16.454   4.708 -0.0495 -0.1559 -0.2221
  709loPI    C310663  10.801  16.559   4.336 -0.1342 -0.2252 -0.2187
  709loPI   PO410664  10.496  16.774   4.868  0.0109  0.0511  0.5041
  709loPI   GL110665  10.485  16.758   5.280  0.0855  0.0523  0.0499
  709loPI   GL210666  10.298  16.443   5.428 -0.1636  0.2491 -0.0475
  709loPI   C1A10667  10.541  16.790   5.686  0.3320  0.3135 -0.2849
  709loPI   C2A10668  10.147  17.118   5.942 -0.3048  0.3152  0.2997
  709loPI   C3A10669  10.010  17.235   6.351 -0.0970  0.0257 -0.1358
  709loPI   C4A10670  10.145  17.246   6.789 -0.0876 -0.0351  0.0516
  709loPI   C5A10671  10.406  17.224   7.102 -0.0625  0.0453 -0.2217
  709loPI   C6A10672  10.705  17.214   7.553 -0.2754  0.0813 -0.0718
  709loPI   C1B10673  10.370  16.337   5.822  0.1062 -0.2811  0.2329
  709loPI   C2B10674  10.327  16.297   6.293 -0.2075 -0.0748 -0.2176
  709loPI   C3B10675  10.117  16.424   6.682 -0.5236  0.0413  0.0602
  709loPI   C4B10676   9.880  16.795   6.781 -0.0211 -0.1383  0.2725
  710loPI    C110677  11.765  18.759   4.381 -0.0966 -0.0619 -0.0001
  710loPI    C210678  11.880  18.378   4.417 -0.0928 -0.0528  0.0860
  710loPI    C310679  12.072  18.622   4.164 -0.0308 -0.0814  0.1048
  710loPI   PO410680  11.738  18.830   4.706  0.1877 -0.0237  0.1684
  710loPI   GL110681  11.897  18.649   5.106  0.1797 -0.3627 -0.3858
  710loPI   GL210682  12.251  18.809   5.193  0.1601 -0.3266 -0.2641
  710loPI   C1A10683  11.826  18.716   5.470  0.2135 -0.1158 -0.2063
  710loPI   C2A10684  11.946  18.672   5.887  0.1496  0.2952  0.0424
  710loPI   C3A10685  11.918  18.840   6.243  0.0322  0.1200  0.2573
  710loPI   C4A10686  12.047  18.951   6.725  0.2095  0.3371 -0.0484
  710loPI   C5A10687  12.151  19.332   7.001 -0.3513 -0.1070  0.0468
  710loPI   C6A10688  12.127  19.764   7.071  0.1126 -0.1613 -0.1724
  710loPI   C1B10689  12.212  18.990   5.597  0.1061 -0.0565  0.0232
  710loPI   C2B10690  12.135  19.230   5.968  0.1407  0.4976 -0.1167
  710loPI   C3B10691  12.303  19.432   6.320 -0.3455 -0.0276  0.2212
  710loPI   C4B10692  12.222  19.835   6.591  0.0552  0.1027  0.0752
  711loPI    C110693  12.062   9.007   4.773  0.2836  0.2368  0.1537
  711loPI    C210694  11.888   9.350   4.662 -0.0714  0.0311  0.0571
  711loPI    C310695  12.086   9.130   4.393  0.0316  0.0866  0.0869
  711loPI   PO410696  12.069   9.033   4.992  0.1510 -0.1838 -0.0922
  711loPI   GL110697  11.898   8.981   5.421  0.1196  0.0465 -0.0269
  711loPI   GL210698  12.067   9.260   5.443  0.0082  0.0594  0.1371
  711loPI   C1A10699  11.791   8.720   5.832  0.0141 -0.0655 -0.2798
  711loPI   C2A10700  11.619   8.962   6.263 -0.0189  0.0255  0.0428
  711loPI   C3A10701  11.391   8.942   6.652 -0.3249 -0.1753 -0.0872
  711loPI   C4A10702  11.110   8.885   6.979 -0.1507 -0.2604 -0.2103
  711loPI   C5A10703  10.719   9.035   6.947  0.0254  0.1427  0.0256
  711loPI   C6A10704  10.513   9.332   6.598 -0.0266  0.0475 -0.0057
  711loPI   C1B10705  12.091   9.069   5.929  0.0686  0.2673  0.0286
  711loPI   C2B10706  12.540   9.024   6.201  0.1150 -0.1918 -0.3008
  711loPI   C3B10707  12.527   8.983   6.735  0.1154  0.1744  0.1566
  711loPI   C4B10708  12.318   9.066   7.134  0.0357 -0.0298 -0.2705
  712loPI    C110709  18.908   7.838   5.078  0.0769 -0.2445 -0.0442
  712loPI    C210710  19.079   8.194   5.017 -0.1837 -0.1315 -0.1307
  712loPI    C310711  19.087   7.916   4.729 -0.0652 -0.1614 -0.0992
  712loPI   PO410712  18.898   7.805   5.337 -0.0486 -0.0023  0.0489
  712loPI   GL110713  18.627   7.880   5.615  0.2087  0.0564  0.0080
  712loPI   GL210714  18.239   7.822   5.825  0.1649  0.0600 -0.2664
  712loPI   C1A10715  18.728   7.815   6.043  0.0329  0.0611 -0.3299
  712loPI   C2A10716  18.631   7.868   6.546  0.2847  0.0588  0.0686
  712loPI   C3A10717  18.648   7.929   6.893 -0.0514  0.1173 -0.1374
  712loPI   C4A10718  18.915   7.830   7.294  0.0793 -0.1985 -0.0353
  712loPI   C5A10719  18.962   7.760   7.791  0.4191 -0.0472 -0.2025
  712loPI   C6A10720  19.210   7.588   8.063 -0.2534 -0.3246 -0.2021
  712loPI   C1B10721  18.268   7.982   6.232  0.1219  0.3695  0.0644
  712loPI   C2B10722  18.096   8.280   6.549  0.1833 -0.1768 -0.0566
  712loPI   C3B10723  17.860   8.570   6.821 -0.1931  0.0990  0.0200
  712loPI   C4B10724  17.777   8.758   7.270 -0.2241  0.0472 -0.2931
  713loPI    C110725  16.079   4.764   4.666 -0.3148  0.0649 -0.0028
  713loPI    C210726  15.942   4.393   4.605 -0.1431  0.0269 -0.1693
  713loPI    C310727  16.329   4.476   4.546 -0.1571  0.2069 -0.0201
  713loPI   PO410728  15.875   4.786   4.957  0.0704  0.2199 -0.5588
  713loPI   GL110729  16.060   4.707   5.463 -0.2637 -0.0738 -0.3966
  713loPI   GL210730  15.658   4.693   5.406 -0.1972  0.0733  0.3278
  713loPI   C1A10731  16.072   4.708   5.958  0.0404  0.1710 -0.3756
  713loPI   C2A10732  16.015   4.608   6.536  0.0300  0.2347 -0.0577
  713loPI   C3A10733  15.804   4.412   6.853 -0.0164  0.0677 -0.1110
  713loPI   C4A10734  15.672   4.499   7.321 -0.1148  0.2483  0.1606
  713loPI   C5A10735  15.290   4.224   7.517 -0.2521  0.0399 -0.0479
  713loPI   C6A10736  14.934   4.536   7.664 -0.0891 -0.0510 -0.0550
  713loPI   C1B10737  15.574   4.644   5.813  0.0678  0.1396 -0.5070
  713loPI   C2B10738  15.533   4.791   6.252 -0.0817 -0.3628 -0.1592
  713loPI   C3B10739  15.468   4.745   6.675  0.1554  0.1882 -0.0857
  713loPI   C4B10740  15.273   4.483   7.100 -0.0274  0.0103  0.0414
  714loPI    C110741  18.854   2.200   4.866  0.0338 -0.1965  0.0529
  714loPI    C210742  18.620   2.191   4.542 -0.0823 -0.1036  0.1327
  714loPI    C310743  19.011   2.110   4.510 -0.0969 -0.1146 -0.0263
  714loPI   PO410744  18.760   2.067   5.044  0.1437 -0.1091  0.2890
  714loPI   GL110745  18.477   2.082   5.463 -0.1464  0.1975 -0.1686
  714loPI   GL210746  18.290   2.409   5.439  0.1499 -0.1427 -0.3709
  714loPI   C1A10747  18.209   2.085   5.774  0.2248 -0.0352 -0.1072
  714loPI   C2A10748  17.846   2.010   5.971  0.3290 -0.0036  0.1754
  714loPI   C3A10749  17.677   2.105   6.408  0.0238  0.1340  0.1702
  714loPI   C4A10750  17.566   2.041   6.754  0.0819 -0.1416 -0.0167
  714loPI   C5A10751  17.293   1.834   7.012  0.2210 -0.0524  0.1729
  714loPI   C6A10752  16.917   1.787   7.301  0.3266  0.1268 -0.1740
  714loPI   C1B10753  18.542   2.498   5.805  0.1541  0.3465  0.3005
  714loPI   C2B10754  18.892   2.481   6.230 -0.0623 -0.2240 -0.0986
  714loPI   C3B10755  18.863   2.508   6.643  0.1967  0.4774  0.1403
  714loPI   C4B10756  18.964   2.363   7.072 -0.2238 -0.0218  0.0142
  715loPI    C110757  15.368  18.036   4.715  0.1558 -0.0796 -0.1163
  715loPI    C210758  15.462  18.362   4.504  0.0333 -0.0077 -0.0607
  715loPI    C310759  15.150  18.137   4.395 -0.0680  0.0639  0.0786
  715loPI   PO410760  15.525  18.024   4.891  0.0498 -0.0449  0.2847
  715loPI   GL110761  15.601  18.098   5.289 -0.0689 -0.1996  0.0696
  715loPI   GL210762  15.328  18.176   5.309 -0.0243 -0.0652 -0.1678
  715loPI   C1A10763  15.735  18.309   5.678 -0.0927  0.1512  0.0705
  715loPI   C2A10764  15.622  18.455   6.063 -0.0892  0.1492 -0.0217
  715loPI   C3A10765  15.592  18.419   6.525  0.0655 -0.0522 -0.4085
  715loPI   C4A10766  15.660  18.592   6.964 -0.0883  0.2235 -0.1723
  715loPI   C5A10767  15.881  18.720   7.293  0.1029  0.4717  0.2327
  715loPI   C6A10768  15.933  18.963   7.688 -0.1922  0.0203  0.1920
  715loPI   C1B10769  15.188  18.292   5.727 -0.0842 -0.0866 -0.0101
  715loPI   C2B10770  15.180  18.293   6.187  0.0195  0.1171 -0.1918
  715loPI   C3B10771  15.088  18.298   6.596  0.0037 -0.4995 -0.4062
  715loPI   C4B10772  15.294  18.232   6.999  0.0458  0.2158 -0.0461
  716loPI    C110773  10.408   2.730   4.691  0.4240  0.1944  0.0370
  716loPI    C210774  10.196   2.854   4.375  0.0127 -0.4331  0.0500
  716loPI    C310775  10.590   2.791   4.340  0.1397  0.3388 -0.0888
  716loPI   PO410776  10.417   2.813   4.946  0.2319  0.0756 -0.0547
  716loPI   GL110777  10.385   2.552   5.295  0.1734 -0.0547 -0.0455
  716loPI   GL210778  10.703   2.597   5.368 -0.0521 -0.1481  0.1527
  716loPI   C1A10779  10.304   2.551   5.741  0.2073  0.1839  0.2434
  716loPI   C2A10780  10.070   2.512   6.059 -0.1138 -0.0821  0.0261
  716loPI   C3A10781  10.150   2.465   6.446 -0.3296  0.2625 -0.0702
  716loPI   C4A10782  10.461   2.467   6.750  0.1208  0.2656 -0.0572
  716loPI   C5A10783  10.622   2.492   7.131  0.0568 -0.0673 -0.2825
  716loPI   C6A10784  10.997   2.413   7.395  0.2223 -0.1060 -0.2092
  716loPI   C1B10785  10.899   2.554   5.778 -0.0054 -0.1934 -0.0032
  716loPI   C2B10786  11.083   2.507   6.173  0.0083  0.0306 -0.1121
  716loPI   C3B10787  11.264   2.294   6.467  0.1482 -0.0867  0.0815
  716loPI   C4B10788  11.540   2.441   6.790 -0.0374  0.2265 -0.0387
  717loPI    C110789   9.848  13.379   4.822 -0.1325  0.2079  0.1272
  717loPI    C210790   9.678  13.049   4.673  0.0038  0.1698  0.0536
  717loPI    C310791   9.576  13.409   4.530  0.0094  0.1449 -0.0135
  717loPI   PO410792   9.821  13.241   5.119 -0.2788 -0.0603  0.1160
  717loPI   GL110793   9.571  13.236   5.467  0.0282 -0.0770  0.0055
  717loPI   GL210794   9.327  13.268   5.419 -0.1959  0.1790  0.0854
  717loPI   C1A10795   9.537  13.136   5.938 -0.1398  0.1283 -0.2204
  717loPI   C2A10796   9.751  13.111   6.210 -0.0914 -0.1578  0.0027
  717loPI   C3A10797  10.007  13.282   6.545  0.3108  0.0520  0.2992
  717loPI   C4A10798  10.345  13.622   6.728 -0.0028 -0.2292  0.2759
  717loPI   C5A10799  10.481  13.933   6.940 -0.2220  0.0203  0.0507
  717loPI   C6A10800  10.320  14.131   7.246  0.0040  0.0876 -0.1206
  717loPI   C1B10801   9.125  13.337   5.879  0.0096  0.0857  0.0463
  717loPI   C2B10802   8.976  13.569   6.205 -0.5013 -0.1016 -0.1060
  717loPI   C3B10803   9.069  13.598   6.668  0.1118  0.1272  0.1011
  717loPI   C4B10804   9.301  13.878   6.969  0.0597  0.0221  0.0403
  718loPI    C110805   0.306  11.014   5.290 -0.0625  0.1893 -0.1131
  718loPI    C210806   0.519  11.278   5.079 -0.0596  0.2038 -0.0920
  718loPI    C310807   0.294  11.006   4.891  0.2608 -0.0459 -0.1219
  718loPI   PO410808   0.091  11.115   5.453 -0.1502  0.1397  0.1577
  718loPI   GL110809  -0.185  11.018   5.776 -0.3652 -0.1191 -0.0868
  718loPI   GL210810  -0.200  10.707   5.840  0.1820 -0.2487 -0.1399
  718loPI   C1A10811  -0.095  11.050   6.180  0.0167  0.0056 -0.2962
  718loPI   C2A10812  -0.086  10.902   6.610  0.2138 -0.2578  0.1686
  718loPI   C3A10813   0.142  10.801   6.995  0.1314  0.0313  0.1226
  718loPI   C4A10814   0.185  10.767   7.418  0.1672 -0.2370 -0.1110
  718loPI   C5A10815   0.331  10.645   7.883  0.0046  0.0749 -0.1818
  718loPI   C6A10816   0.104  10.422   8.177 -0.0973 -0.0731  0.0883
  718loPI   C1B10817  -0.523  10.662   6.155 -0.1321  0.2831 -0.2383
  718loPI   C2B10818  -0.540  11.004   6.523  0.0179 -0.3668 -0.1859
  718loPI   C3B10819  -0.462  11.228   6.818 -0.1955  0.1947 -0.0829
  718loPI   C4B10820  -0.562  11.413   7.206  0.1667 -0.1576  0.1635
  719loPI    C110821  17.593  18.324   4.329  0.1571  0.1254 -0.0487
  719loPI    C210822  17.964  18.353   4.182  0.2642 -0.1460  0.1596
  719loPI    C310823  17.682  18.154   3.979  0.2392  0.0323  0.0170
  719loPI   PO410824  17.618  18.211   4.643  0.1846 -0.1019 -0.4955
  719loPI   GL110825  17.734  18.253   5.092 -0.2383 -0.0158 -0.3084
  719loPI   GL210826  17.772  18.618   5.140  0.1899 -0.2740  0.0178
  719loPI   C1A10827  17.433  18.246   5.491  0.1727  0.0435 -0.2516
  719loPI   C2A10828  17.259  17.892   5.727 -0.3165  0.0132 -0.1431
  719loPI   C3A10829  17.208  17.906   6.160  0.0535 -0.1589 -0.1903
  719loPI   C4A10830  17.177  18.225   6.495 -0.2565 -0.1174 -0.2826
  719loPI   C5A10831  17.084  18.046   6.892  0.4421 -0.3040  0.2037
  719loPI   C6A10832  16.810  18.021   7.270 -0.0293 -0.2052  0.0501
  719loPI   C1B10833  17.962  18.723   5.544  0.1487 -0.1235 -0.0160
  719loPI   C2B10834  18.029  18.631   5.972 -0.0527 -0.3583 -0.2456
  719loPI   C3B10835  18.132  18.705   6.386  0.2355  0.0045  0.1187
  719loPI   C4B10836  18.116  18.817   6.719 -0.1800 -0.1123 -0.2026
  720loPI    C110837   9.267   6.242   4.791  0.3361 -0.1084 -0.2126
  720loPI    C210838   9.022   6.266   4.476  0.2168 -0.1925 -0.1270
  720loPI    C310839   9.382   6.439   4.463  0.1072  0.0340 -0.2092
  720loPI   PO410840   9.109   6.331   4.937  0.3058 -0.2208  0.0690
  720loPI   GL110841   9.176   6.444   5.371 -0.0097 -0.1728 -0.2198
  720loPI   GL210842   8.992   6.754   5.291 -0.0440 -0.0559  0.2069
  720loPI   C1A10843   9.314   6.510   5.707 -0.5554 -0.0744 -0.2290
  720loPI   C2A10844   9.434   6.602   6.137  0.0084 -0.0028  0.0040
  720loPI   C3A10845   9.475   6.497   6.570 -0.1524 -0.3618  0.1717
  720loPI   C4A10846   9.493   6.423   7.039  0.2690  0.0597  0.3120
  720loPI   C5A10847   9.184   6.350   7.453 -0.3464 -0.6361  0.0513
  720loPI   C6A10848   8.701   6.274   7.401 -0.0760 -0.4829 -0.2646
  720loPI   C1B10849   8.868   6.649   5.674  0.1002  0.1673 -0.0432
  720loPI   C2B10850   8.952   6.668   6.049 -0.1534 -0.0122  0.1830
  720loPI   C3B10851   8.933   6.584   6.570 -0.0954 -0.1942  0.1233
  720loPI   C4B10852   9.077   6.208   6.857  0.1274  0.2055  0.1611
  721loPI    C110853  14.562   8.011   4.867 -0.0045  0.3561  0.1084
  721loPI    C210854  14.739   8.115   4.524 -0.2257 -0.0329 -0.1310
  721loPI    C310855  14.846   7.778   4.709 -0.2721  0.0563  0.0602
  721loPI   PO410856  14.590   8.271   5.149 -0.0238 -0.1214 -0.1785
  721loPI   GL110857  14.668   8.382   5.533 -0.0014 -0.1110  0.0480
  721loPI   GL210858  14.892   8.508   5.665 -0.0156 -0.2916  0.0217
  721loPI   C1A10859  14.712   7.982   5.797  0.1956 -0.0558  0.2796
  721loPI   C2A10860  14.666   8.014   6.248  0.1761  0.1919  0.2960
  721loPI   C3A10861  14.668   8.011   6.738 -0.2341 -0.1552  0.0032
  721loPI   C4A10862  14.519   8.104   7.147 -0.1574  0.1067  0.1177
  721loPI   C5A10863  14.265   8.105   7.501 -0.0429 -0.3026  0.0206
  721loPI   C6A10864  14.386   7.916   7.867  0.0703  0.0023  0.1498
  721loPI   C1B10865  14.525   8.421   5.999  0.1528  0.2674  0.2198
  721loPI   C2B10866  14.355   8.446   6.383 -0.0955  0.1203 -0.1297
  721loPI   C3B10867  14.411   8.457   6.748 -0.1025  0.3283 -0.4445
  721loPI   C4B10868  14.709   8.561   7.035 -0.0194 -0.2350 -0.1050
  722loPI    C110869  17.051   1.444   5.198  0.5146  0.1568 -0.2377
  722loPI    C210870  17.051   1.324   4.817  0.4425 -0.2157 -0.1247
  722loPI    C310871  16.831   1.639   4.927  0.1221 -0.3685 -0.3136
  722loPI   PO410872  17.350   1.367   5.238  0.0732  0.1021 -0.3275
  722loPI   GL110873  17.442   0.990   5.347 -0.1275 -0.2869 -0.2546
  722loPI   GL210874  17.836   1.087   5.283 -0.2957 -0.4172  0.1125
  722loPI   C1A10875  17.495   1.134   5.733 -0.1264 -0.3841 -0.0031
  722loPI   C2A10876  17.328   1.257   6.184 -0.1413  0.3861  0.0559
  722loPI   C3A10877  17.244   1.078   6.553  0.2515  0.3003 -0.0654
  722loPI   C4A10878  17.232   0.938   6.935  0.2660 -0.1091 -0.0140
  722loPI   C5A10879  17.253   0.617   7.259  0.1190 -0.2974 -0.1516
  722loPI   C6A10880  17.157   0.322   7.504  0.0962  0.0687  0.2486
  722loPI   C1B10881  17.926   1.392   5.662 -0.0594 -0.0984 -0.1445
  722loPI   C2B10882  17.820   1.398   6.005  0.0094 -0.3707  0.0029
  722loPI   C3B10883  17.703   1.405   6.416  0.2296  0.0163  0.0340
  722loPI   C4B10884  17.441   1.518   6.624 -0.0822 -0.1585 -0.1741
  723loPI    C110885  13.321   1.913   4.609 -0.1536  0.0359  0.0028
  723loPI    C210886  13.289   1.615   4.344  0.0667  0.2064 -0.2208
  723loPI    C310887  13.620   1.839   4.354  0.0324  0.2470  0.1554
  723loPI   PO410888  13.143   1.874   4.808  0.1663 -0.1873 -0.2102
  723loPI   GL110889  13.186   1.840   5.248  0.2610 -0.0829 -0.0372
  723loPI   GL210890  13.414   1.683   5.289  0.3498  0.2746 -0.3915
  723loPI   C1A10891  13.360   2.094   5.645  0.1759 -0.2452 -0.1426
  723loPI   C2A10892  13.688   2.109   5.866 -0.2401 -0.0003  0.2233
  723loPI   C3A10893  13.770   2.178   6.326 -0.0141 -0.1445 -0.3110
  723loPI   C4A10894  13.936   2.157   6.648 -0.0917  0.1352 -0.0229
  723loPI   C5A10895  13.834   1.945   7.000  0.1604 -0.1197  0.2865
  723loPI   C6A10896  13.801   1.858   7.504 -0.0698  0.0257  0.0950
  723loPI   C1B10897  13.485   1.649   5.728  0.0003 -0.2845 -0.0200
  723loPI   C2B10898  13.527   1.735   6.143  0.1099 -0.0369 -0.0041
  723loPI   C3B10899  13.639   1.640   6.602  0.1441  0.2775 -0.0332
  723loPI   C4B10900  13.483   1.591   7.039 -0.1190  0.3363 -0.4686
  724loPI    C110901  15.090   6.936   4.714 -0.0641  0.2226 -0.2379
  724loPI    C210902  15.019   6.558   4.604 -0.1126  0.2071 -0.1543
  724loPI    C310903  15.374   6.726   4.527  0.1500 -0.0708  0.3895
  724loPI   PO410904  15.006   6.894   5.007  0.3273 -0.2029  0.0703
  724loPI   GL110905  15.062   6.995   5.379  0.1928 -0.1165 -0.2182
  724loPI   GL210906  15.421   7.051   5.430  0.0463 -0.1176 -0.1191
  724loPI   C1A10907  14.970   7.108   5.833 -0.1673  0.1300 -0.0322
  724loPI   C2A10908  15.057   7.040   6.274 -0.0539  0.0573  0.2664
  724loPI   C3A10909  15.083   7.009   6.737  0.0353  0.1332  0.2162
  724loPI   C4A10910  15.099   7.122   7.111  0.1311  0.0258 -0.2093
  724loPI   C5A10911  15.324   6.998   7.353 -0.1021 -0.1258  0.1282
  724loPI   C6A10912  15.436   6.663   7.488  0.0291 -0.0302  0.2072
  724loPI   C1B10913  15.461   7.151   5.794  0.0703 -0.1768  0.1343
  724loPI   C2B10914  15.388   7.423   6.176  0.3362  0.0805  0.3692
  724loPI   C3B10915  15.503   7.809   6.318 -0.2149 -0.0211  0.0806
  724loPI   C4B10916  15.594   8.000   5.914 -0.1851  0.0479  0.2633
  725loPI    C110917  16.384   4.636   5.079  0.0313  0.0011  0.0651
  725loPI    C210918  16.384   4.988   5.269  0.1456  0.0896 -0.0955
  725loPI    C310919  16.535   4.961   4.900  0.2431 -0.1523 -0.0397
  725loPI   PO410920  16.462   4.485   5.271 -0.0205  0.3124 -0.1067
  725loPI   GL110921  16.679   4.443   5.563  0.0801 -0.1423 -0.1345
  725loPI   GL210922  16.474   4.585   5.805  0.1140  0.0351  0.1908
  725loPI   C1A10923  16.816   4.280   5.975 -0.0065 -0.1979  0.3166
  725loPI   C2A10924  17.022   4.185   6.331 -0.0140  0.2690  0.0662
  725loPI   C3A10925  16.916   4.333   6.762  0.5551  0.4978 -0.1737
  725loPI   C4A10926  16.826   4.460   7.209 -0.1085 -0.1990  0.1223
  725loPI   C5A10927  16.979   4.317   7.620 -0.0095  0.4028  0.0588
  725loPI   C6A10928  17.249   4.150   7.882 -0.0281  0.1367  0.1028
  725loPI   C1B10929  16.482   4.551   6.288  0.4997 -0.0812  0.0267
  725loPI   C2B10930  16.536   4.709   6.723  0.0320  0.0514  0.0774
  725loPI   C3B10931  16.699   4.944   7.144  0.0025  0.0774 -0.1381
  725loPI   C4B10932  16.754   4.874   7.545 -0.1220  0.1611 -0.0269
  726loPI    C110933  12.399  11.656   5.491  0.2918 -0.0138  0.2112
  726loPI    C210934  12.441  11.259   5.501  0.0805 -0.0444 -0.0203
  726loPI    C310935  12.764  11.494   5.512  0.2092 -0.2226  0.0639
  726loPI   PO410936  12.094  11.646   5.391 -0.2535 -0.1997  0.2547
  726loPI   GL110937  11.849  11.751   5.621  0.1334  0.0024  0.1156
  726loPI   GL210938  12.009  11.827   5.870 -0.0576 -0.3180  0.0651
  726loPI   C1A10939  11.581  12.082   5.918  0.0585  0.2355 -0.2042
  726loPI   C2A10940  11.378  12.101   6.360  0.0681  0.0917  0.1064
  726loPI   C3A10941  11.534  12.206   6.808  0.0206  0.0114 -0.0562
  726loPI   C4A10942  11.566  12.275   7.244 -0.0207  0.0574 -0.3481
  726loPI   C5A10943  11.737  12.437   7.676  0.3403  0.2979  0.1194
  726loPI   C6A10944  11.885  12.702   7.888 -0.0473  0.2511  0.0438
  726loPI   C1B10945  12.299  11.730   6.266  0.0177  0.0215  0.1396
  726loPI   C2B10946  12.320  11.682   6.645 -0.0809 -0.2841 -0.0267
  726loPI   C3B10947  12.506  11.798   6.894  0.3387 -0.3067 -0.2376
  726loPI   C4B10948  12.647  11.941   7.400 -0.1215 -0.0219  0.2670
  727loPI    C110949   0.679   3.293   4.490 -0.1130 -0.0661 -0.0363
  727loPI    C210950   0.859   2.936   4.472  0.1747  0.0760 -0.0345
  727loPI    C310951   0.697   3.096   4.143 -0.0886 -0.1213 -0.0038
  727loPI   PO410952   0.544   3.310   4.820 -0.2038  0.0986  0.1529
  727loPI   GL110953   0.567   3.560   5.310 -0.1123 -0.1774 -0.0772
  727loPI   GL210954   0.546   3.217   5.321 -0.0300  0.1436  0.3145
  727loPI   C1A10955   0.639   3.526   5.750  0.0162  0.0032 -0.1732
  727loPI   C2A10956   0.706   3.511   6.132  0.0967  0.1571 -0.0076
  727loPI   C3A10957   0.802   3.412   6.591  0.1133  0.0825  0.1969
  727loPI   C4A10958   0.781   3.317   6.974 -0.0958  0.0015  0.0474
  727loPI   C5A10959   0.785   3.547   7.333  0.0535  0.1822  0.4057
  727loPI   C6A10960   0.754   3.931   7.453 -0.0782  0.3197  0.0611
  727loPI   C1B10961   0.782   3.077   5.822  0.1043 -0.1412 -0.1316
  727loPI   C2B10962   0.918   3.014   6.269  0.0581 -0.4092 -0.1738
  727loPI   C3B10963   1.056   2.966   6.721 -0.2074 -0.1832 -0.0517
  727loPI   C4B10964   1.082   2.922   7.115 -0.3784  0.2954  0.2361
  728loPI    C110965  12.967  11.055   4.965  0.0073 -0.0299 -0.1722
  728loPI    C210966  13.320  11.226   5.045 -0.1738  0.2833 -0.0213
  728loPI    C310967  13.191  11.201   4.667  0.0095  0.1638 -0.0775
  728loPI   PO410968  12.837  11.145   5.191  0.4184 -0.0753 -0.1199
  728loPI   GL110969  12.852  10.950   5.664  0.0954 -0.0111  0.1398
  728loPI   GL210970  12.944  10.692   5.672  0.1124  0.3133 -0.2071
  728loPI   C1A10971  12.764  11.017   6.117 -0.0042  0.4056 -0.1402
  728loPI   C2A10972  12.821  10.834   6.480 -0.1266  0.2229  0.1703
  728loPI   C3A10973  12.820  10.766   6.891 -0.0679 -0.0764 -0.1254
  728loPI   C4A10974  13.070  10.889   7.257 -0.0935 -0.2961  0.1774
  728loPI   C5A10975  12.869  10.821   7.670 -0.0335  0.2058  0.2476
  728loPI   C6A10976  12.745  10.400   7.795  0.0804 -0.0917 -0.0243
  728loPI   C1B10977  12.708  10.557   5.978 -0.0885 -0.1817  0.1289
  728loPI   C2B10978  12.517  10.448   6.467 -0.0153  0.0842  0.0767
  728loPI   C3B10979  12.556  10.335   6.803  0.0388 -0.1197  0.0276
  728loPI   C4B10980  12.543  10.337   7.262  0.2287  0.1579 -0.0907
  729loPI    C110981   1.288   8.853   4.596 -0.2585  0.0321 -0.0430
  729loPI    C210982   1.629   8.909   4.395 -0.2149  0.1941  0.0745
  729loPI    C310983   1.561   8.561   4.580 -0.1620  0.1217 -0.0416
  729loPI   PO410984   1.307   9.025   4.828 -0.2551  0.1610 -0.0344
  729loPI   GL110985   1.515   9.043   5.288  0.4721  0.1011 -0.0659
  729loPI   GL210986   1.551   9.322   5.481 -0.2642 -0.2333 -0.0756
  729loPI   C1A10987   1.382   8.745   5.763  0.0022 -0.1523  0.3013
  729loPI   C2A10988   1.323   8.529   6.190  0.0981  0.0621  0.0937
  729loPI   C3A10989   1.402   8.615   6.666 -0.0653 -0.0992  0.2017
  729loPI   C4A10990   1.539   8.801   7.055  0.0745  0.1281  0.2050
  729loPI   C5A10991   1.643   9.174   7.378 -0.0199  0.2800 -0.0429
  729loPI   C6A10992   1.413   9.233   7.750 -0.0259  0.0145 -0.4668
  729loPI   C1B10993   1.679   9.100   5.875 -0.1664 -0.0374 -0.2965
  729loPI   C2B10994   1.696   8.846   6.163  0.0528 -0.1154  0.2825
  729loPI   C3B10995   1.848   8.983   6.659 -0.0594 -0.2668  0.0711
  729loPI   C4B10996   1.884   9.338   6.915 -0.1095  0.0778 -0.1671
  730loPI    C110997   6.041   7.716   4.876 -0.0395 -0.1203  0.0747
  730loPI    C210998   6.308   7.631   4.591 -0.0172 -0.0167  0.0642
  730loPI    C310999   6.181   8.007   4.640 -0.0022 -0.0298  0.2072
  730loPI   PO411000   6.122   7.537   5.098  0.3337 -0.3266 -0.2124
  730loPI   GL111001   6.048   7.502   5.559  0.1620  0.1212  0.1905
  730loPI   GL211002   5.767   7.726   5.420 -0.1305  0.2203 -0.0298
  730loPI   C1A11003   6.372   7.739   5.881  0.2600  0.0777 -0.1365
  730loPI   C2A11004   6.558   7.813   6.160 -0.0912  0.0939 -0.1202
  730loPI   C3A11005   6.841   7.901   6.391  0.2566  0.0998 -0.0743
  730loPI   C4A11006   6.964   8.112   6.623  0.3262 -0.0033 -0.1707
  730loPI   C5A11007   6.897   8.273   7.011  0.0681  0.3013 -0.1109
  730loPI   C6A11008   6.702   8.027   7.323  0.1562  0.5178 -0.0031
  730loPI   C1B11009   5.744   7.850   5.824 -0.1307 -0.3209 -0.3471
  730loPI   C2B11010   5.936   7.772   6.246  0.1581  0.1445 -0.3407
  730loPI   C3B11011   6.149   7.652   6.588  0.1397 -0.2389  0.1552
  730loPI   C4B11012   6.242   7.566   6.940 -0.3089 -0.1276  0.0957
  731loPI    C111013  15.046   5.715   4.767  0.0157 -0.4988  0.0801
  731loPI    C211014  15.110   5.727   4.373  0.0555 -0.0146  0.0952
  731loPI    C311015  14.753   5.616   4.514  0.0276 -0.1477 -0.0759
  731loPI   PO411016  15.256   5.597   4.916  0.5343 -0.1125 -0.0242
  731loPI   GL111017  15.084   5.439   5.312  0.0350  0.0315  0.1986
  731loPI   GL211018  15.141   5.727   5.389  0.3378 -0.2096  0.2806
  731loPI   C1A11019  15.097   5.222   5.659 -0.2918  0.1941  0.2060
  731loPI   C2A11020  15.171   5.069   6.034  0.3310  0.0933  0.0390
  731loPI   C3A11021  15.170   5.087   6.420 -0.3914 -0.0859 -0.0218
  731loPI   C4A11022  14.982   5.132   6.865 -0.1993  0.0127 -0.0778
  731loPI   C5A11023  14.790   5.306   7.137 -0.1830 -0.0184 -0.0019
  731loPI   C6A11024  14.745   5.715   7.324 -0.0963 -0.0513  0.0214
  731loPI   C1B11025  15.002   5.656   5.896  0.1413  0.2369  0.2684
  731loPI   C2B11026  15.001   5.551   6.410 -0.0753 -0.2136  0.2972
  731loPI   C3B11027  15.030   5.671   6.779 -0.1708  0.0235 -0.0669
  731loPI   C4B11028  15.323   5.911   6.993  0.1509  0.0344  0.0580
  732loPI    C111029   8.918  11.955   5.035  0.2300  0.3304  0.0034
  732loPI    C211030   8.674  12.244   4.903  0.1430  0.2434 -0.0282
  732loPI    C311031   8.875  12.017   4.642  0.1461  0.2197 -0.0052
  732loPI   PO411032   8.659  11.840   5.196 -0.1170  0.0068 -0.2376
  732loPI   GL111033   8.630  11.640   5.557  0.0834 -0.5142 -0.1562
  732loPI   GL211034   8.383  11.842   5.667  0.1576  0.1529 -0.3863
  732loPI   C1A11035   8.638  11.563   5.973  0.0954 -0.3101 -0.2004
  732loPI   C2A11036   8.836  11.560   6.534 -0.0683  0.0959 -0.0940
  732loPI   C3A11037   8.778  11.313   6.889 -0.1221  0.0058 -0.0659
  732loPI   C4A11038   8.877  11.409   7.310  0.0585 -0.0107 -0.2147
  732loPI   C5A11039   8.789  11.488   7.749 -0.3109  0.2243 -0.1211
  732loPI   C6A11040   8.887  11.879   7.959 -0.1138 -0.3250 -0.0506
  732loPI   C1B11041   8.327  11.929   6.129 -0.1723  0.3603  0.0705
  732loPI   C2B11042   8.441  11.876   6.597  0.0997 -0.1755  0.0046
  732loPI   C3B11043   8.403  12.050   7.054 -0.0140  0.0141 -0.0445
  732loPI   C4B11044   8.385  12.285   7.398  0.2402 -0.1940  0.1720
  733loPI    C111045  11.211   6.272   4.602 -0.0037  0.3033  0.1418
  733loPI    C211046  11.500   6.270   4.325 -0.0859 -0.1612  0.0508
  733loPI    C311047  11.134   6.138   4.233 -0.3639  0.5094  0.1385
  733loPI   PO411048  11.356   6.153   4.835 -0.0532  0.0701  0.1682
  733loPI   GL111049  11.248   5.975   5.241 -0.1622  0.1902  0.1312
  733loPI   GL211050  11.018   5.761   5.191 -0.3262  0.0296  0.1857
  733loPI   C1A11051  11.212   6.143   5.699 -0.0600  0.1209  0.1538
  733loPI   C2A11052  11.275   6.309   6.012  0.2048  0.2853 -0.3856
  733loPI   C3A11053  11.018   6.582   6.292  0.3792 -0.2080 -0.0872
  733loPI   C4A11054  11.029   6.612   6.765  0.2192  0.0945 -0.0995
  733loPI   C5A11055  10.968   6.461   7.191 -0.1265  0.2608 -0.3606
  733loPI   C6A11056  11.120   6.282   7.684  0.1497 -0.1107  0.3160
  733loPI   C1B11057  10.990   5.594   5.566 -0.2226  0.0506  0.0625
  733loPI   C2B11058  10.938   5.429   5.973  0.1160  0.1389  0.1452
  733loPI   C3B11059  10.756   5.153   6.234  0.0879 -0.0436  0.0229
  733loPI   C4B11060  10.847   4.997   6.576 -0.2205  0.0999 -0.3528
  734loPI    C111061   1.134   0.852   4.777  0.0418 -0.0185 -0.0405
  734loPI    C211062   1.374   1.152   4.665 -0.0460  0.0637 -0.0106
  734loPI    C311063   1.108   1.001   4.407  0.0035  0.0059 -0.0281
  734loPI   PO411064   1.311   0.612   4.854 -0.2541 -0.1627  0.0160
  734loPI   GL111065   1.302   0.456   5.267  0.1670  0.0222  0.0850
  734loPI   GL211066   1.583   0.572   5.376 -0.1334  0.3427 -0.1304
  734loPI   C1A11067   1.373   0.098   5.565 -0.0414  0.2387  0.5711
  734loPI   C2A11068   1.323   0.081   5.993  0.0352  0.0570 -0.0544
  734loPI   C3A11069   1.445   0.009   6.444  0.0470  0.1546  0.0873
  734loPI   C4A11070   1.263  -0.268   6.759  0.1796  0.1924  0.2159
  734loPI   C5A11071   1.228  -0.575   7.015 -0.3724 -0.1783  0.1271
  734loPI   C6A11072   1.511  -0.690   7.342 -0.1783 -0.1958  0.1774
  734loPI   C1B11073   1.422   0.599   5.868  0.0320  0.0492  0.1556
  734loPI   C2B11074   1.314   0.558   6.350  0.2621 -0.1513 -0.0040
  734loPI   C3B11075   1.386   0.548   6.811  0.0082 -0.0419 -0.3531
  734loPI   C4B11076   1.683   0.598   7.149  0.1794 -0.1582 -0.1597
  735loPI    C111077   8.144   7.143   4.579 -0.0460  0.0230 -0.0963
  735loPI    C211078   8.007   7.505   4.680 -0.1304 -0.0133 -0.0800
  735loPI    C311079   7.750   7.210   4.592 -0.0607 -0.0400 -0.1971
  735loPI   PO411080   8.324   7.017   4.764  0.1499 -0.0723 -0.1923
  735loPI   GL111081   8.437   6.882   5.196  0.1298 -0.1420  0.0937
  735loPI   GL211082   8.340   6.700   5.459 -0.2325  0.2483 -0.0742
  735loPI   C1A11083   8.651   7.051   5.569  0.4759  0.2359 -0.2518
  735loPI   C2A11084   8.802   7.191   5.991  0.0459  0.1820 -0.0548
  735loPI   C3A11085   8.854   7.154   6.434  0.1753 -0.0193 -0.0999
  735loPI   C4A11086   8.702   7.015   6.808 -0.1450 -0.0473 -0.0238
  735loPI   C5A11087   8.555   6.921   7.106  0.0349 -0.0142  0.3451
  735loPI   C6A11088   8.316   6.847   7.544  0.3042 -0.1279  0.1015
  735loPI   C1B11089   8.416   6.578   5.891 -0.1798 -0.3074  0.2305
  735loPI   C2B11090   8.525   6.821   6.279 -0.4498 -0.1138 -0.1030
  735loPI   C3B11091   8.354   6.621   6.632 -0.0852 -0.1941 -0.0324
  735loPI   C4B11092   8.503   6.431   6.977  0.1057 -0.0815 -0.0476
  736loPI    C111093  10.457   9.898   5.001 -0.0092  0.1451 -0.2015
  736loPI    C211094  10.523   9.520   4.886 -0.1718 -0.0034  0.1767
  736loPI    C311095  10.247   9.741   4.699  0.0782  0.0060 -0.1911
  736loPI   PO411096  10.404   9.865   5.320  0.2032  0.0828  0.0554
  736loPI   GL111097   9.956   9.724   5.565 -0.0672  0.2707 -0.0518
  736loPI   GL211098  10.166   9.943   5.732 -0.0706  0.0834 -0.3859
  736loPI   C1A11099   9.695   9.805   5.894  0.3104 -0.0102  0.0306
  736loPI   C2A11100   9.529   9.739   6.312 -0.0580 -0.0099  0.1722
  736loPI   C3A11101   9.516   9.846   6.761 -0.1433  0.0246 -0.1403
  736loPI   C4A11102   9.693   9.528   7.042  0.3092  0.2934  0.2398
  736loPI   C5A11103   9.946   9.203   7.332 -0.1979 -0.0303  0.2904
  736loPI   C6A11104  10.139   8.950   7.721 -0.0126 -0.1471  0.1225
  736loPI   C1B11105  10.418  10.051   6.066  0.0568  0.1291 -0.0642
  736loPI   C2B11106  10.678  10.207   6.291  0.1397  0.0969 -0.0737
  736loPI   C3B11107  10.948  10.431   6.578  0.0372  0.0787 -0.1387
  736loPI   C4B11108  11.044  10.401   7.031 -0.1150  0.0404  0.0267
  737loPI    C111109  13.310   0.109   4.572 -0.0610 -0.1009  0.0237
  737loPI    C211110  13.469  -0.239   4.454  0.0220 -0.0307 -0.0732
  737loPI    C311111  13.516   0.089   4.230 -0.0888  0.0349 -0.0014
  737loPI   PO411112  13.099  -0.048   4.754  0.0985 -0.0713 -0.0903
  737loPI   GL111113  13.011  -0.004   5.120 -0.2313  0.2115  0.0198
  737loPI   GL211114  12.965  -0.369   5.132  0.1328 -0.0921 -0.2114
  737loPI   C1A11115  13.128   0.138   5.593 -0.0990 -0.2255  0.0906
  737loPI   C2A11116  13.007   0.012   6.017  0.0177 -0.0123 -0.0239
  737loPI   C3A11117  12.998   0.030   6.451 -0.1784 -0.1457  0.2229
  737loPI   C4A11118  13.077   0.216   6.911 -0.1320 -0.0099  0.0342
  737loPI   C5A11119  12.992   0.177   7.328  0.1662 -0.1100  0.3106
  737loPI   C6A11120  12.737  -0.119   7.544 -0.2986  0.0162  0.2379
  737loPI   C1B11121  12.841  -0.334   5.508  0.2469  0.2832 -0.0301
  737loPI   C2B11122  12.641  -0.328   5.837 -0.2760 -0.2213  0.2029
  737loPI   C3B11123  12.550  -0.195   6.311  0.2263  0.1599 -0.3169
  737loPI   C4B11124  12.596   0.065   6.684 -0.2023 -0.3557 -0.2645
  738loPI    C111125   7.747   8.645   5.399 -0.0646  0.1616 -0.0624
  738loPI    C211126   7.853   8.322   5.189  0.0256  0.0226  0.1927
  738loPI    C311127   8.126   8.601   5.277 -0.0134  0.0836  0.1217
  738loPI   PO411128   7.665   8.570   5.592  0.1698 -0.3799  0.0803
  738loPI   GL111129   7.547   8.459   5.935 -0.1152  0.3942  0.0300
  738loPI   GL211130   7.232   8.416   5.720 -0.0030 -0.0701 -0.2557
  738loPI   C1A11131   7.424   8.137   6.284  0.0522 -0.1699  0.1994
  738loPI   C2A11132   7.669   7.984   6.582 -0.2172  0.1557 -0.3214
  738loPI   C3A11133   7.689   8.006   6.958  0.2656  0.1119 -0.2653
  738loPI   C4A11134   7.578   7.800   7.333  0.2395 -0.0484 -0.0917
  738loPI   C5A11135   7.616   7.428   7.208  0.2561 -0.1040 -0.2724
  738loPI   C6A11136   7.694   7.114   6.913 -0.0591 -0.1453  0.0723
  738loPI   C1B11137   7.051   8.267   6.055  0.2663  0.1208 -0.1665
  738loPI   C2B11138   7.100   8.550   6.477 -0.3794  0.1281  0.2607
  738loPI   C3B11139   6.961   8.736   6.820 -0.0315 -0.0373  0.1345
  738loPI   C4B11140   6.635   9.058   6.936 -0.0996 -0.2133 -0.2928
  739loPI    C111141   0.200   1.478   4.831  0.0505 -0.0106 -0.0398
  739loPI    C211142   0.100   1.865   4.841 -0.0850 -0.0483  0.1133
  739loPI    C311143  -0.185   1.586   4.807  0.0238 -0.1293 -0.1566
  739loPI   PO411144   0.456   1.481   5.096  0.0958 -0.1685  0.1762
  739loPI   GL111145   0.737   1.651   5.447 -0.0369  0.1021 -0.1720
  739loPI   GL211146   0.475   1.870   5.472  0.2795 -0.0275 -0.0466
  739loPI   C1A11147   0.926   1.519   5.907 -0.2124 -0.0053 -0.1667
  739loPI   C2A11148   0.699   1.442   6.327 -0.0099  0.0559  0.3434
  739loPI   C3A11149   0.560   1.159   6.580 -0.1350 -0.1140  0.0952
  739loPI   C4A11150   0.456   0.914   6.907 -0.1071 -0.1138  0.0093
  739loPI   C5A11151   0.651   0.698   7.188 -0.0628  0.3523 -0.5361
  739loPI   C6A11152   0.626   0.208   7.055  0.1154 -0.1868  0.1809
  739loPI   C1B11153   0.281   1.842   5.875  0.2392 -0.1779 -0.0314
  739loPI   C2B11154  -0.005   1.882   6.201 -0.2184 -0.3179 -0.2476
  739loPI   C3B11155   0.013   2.112   6.592  0.0007  0.0906  0.0717
  739loPI   C4B11156   0.404   2.145   6.705  0.1783  0.0975  0.2290
  740loPI    C111157   5.946   2.852   4.671 -0.0529 -0.0112  0.0759
  740loPI    C211158   6.222   2.809   4.385 -0.0051 -0.1940  0.1480
  740loPI    C311159   5.834   2.807   4.290  0.0155 -0.0120  0.0558
  740loPI   PO411160   6.063   2.698   4.900  0.1007  0.4207  0.2800
  740loPI   GL111161   6.300   2.538   5.135 -0.4206 -0.0000  0.0449
  740loPI   GL211162   6.506   2.806   5.234  0.0272  0.1332  0.0833
  740loPI   C1A11163   6.203   2.180   5.540  0.0334 -0.1710  0.1591
  740loPI   C2A11164   6.240   2.065   6.019 -0.2072 -0.2577  0.0001
  740loPI   C3A11165   6.313   2.183   6.460 -0.0312 -0.3172  0.1214
  740loPI   C4A11166   6.294   2.105   6.757 -0.1357 -0.2034 -0.3111
  740loPI   C5A11167   6.197   1.923   7.296  0.1575 -0.0830  0.2118
  740loPI   C6A11168   6.133   2.267   7.595 -0.2916  0.2567  0.0916
  740loPI   C1B11169   6.223   2.648   5.632  0.2200 -0.2912 -0.1667
  740loPI   C2B11170   5.858   2.980   5.807 -0.0786  0.0830  0.1212
  740loPI   C3B11171   5.760   3.228   6.047  0.0108  0.1602 -0.2059
  740loPI   C4B11172   6.047   3.567   5.985  0.0881  0.3777 -0.2551
  741loPI    C111173   9.136  16.894   4.781  0.1005 -0.1874 -0.0617
  741loPI    C211174   9.049  16.705   4.439 -0.0942 -0.0690 -0.0790
  741loPI    C311175   8.881  17.059   4.520  0.2670  0.0999 -0.0473
  741loPI   PO411176   9.152  16.679   5.025  0.2783  0.0491 -0.0024
  741loPI   GL111177   9.355  16.661   5.329  0.0725 -0.1456 -0.0311
  741loPI   GL211178   9.488  16.905   5.503 -0.0036 -0.0267  0.0859
  741loPI   C1A11179   9.506  16.368   5.576  0.3357  0.1284  0.1232
  741loPI   C2A11180   9.492  16.540   6.066 -0.0337  0.0941 -0.0213
  741loPI   C3A11181   9.472  16.441   6.566  0.1798  0.0297 -0.1359
  741loPI   C4A11182   9.672  16.382   7.001  0.0186  0.0042  0.3163
  741loPI   C5A11183  10.082  16.500   7.263  0.2285  0.4489  0.0209
  741loPI   C6A11184  10.401  16.789   7.403 -0.2977 -0.1519 -0.0416
  741loPI   C1B11185   9.669  16.985   5.980 -0.1578 -0.2835  0.2528
  741loPI   C2B11186   9.565  16.900   6.432  0.3429  0.0965 -0.3318
  741loPI   C3B11187   9.358  16.795   6.842 -0.1754 -0.1090 -0.3076
  741loPI   C4B11188   9.411  16.666   7.257  0.1490 -0.0229  0.1958
  742loPI    C111189   1.627   7.803   5.038  0.1663 -0.0411 -0.1668
  742loPI    C211190   1.327   7.835   4.774  0.1155 -0.3482 -0.1503
  742loPI    C311191   1.568   8.147   4.842 -0.2573 -0.0657 -0.0928
  742loPI   PO411192   1.569   7.766   5.279 -0.1196  0.0557 -0.1966
  742loPI   GL111193   1.482   7.881   5.681  0.0138  0.2822  0.1236
  742loPI   GL211194   1.254   7.694   5.762 -0.2719  0.0955 -0.2473
  742loPI   C1A11195   1.432   8.013   6.090 -0.1314 -0.0555  0.2218
  742loPI   C2A11196   1.317   8.127   6.545 -0.3240 -0.1601  0.1109
  742loPI   C3A11197   1.618   8.100   6.945  0.1181  0.2055  0.0180
  742loPI   C4A11198   1.773   8.207   7.356 -0.0059 -0.1476  0.1359
  742loPI   C5A11199   1.971   8.010   7.720  0.0310 -0.1070 -0.0874
  742loPI   C6A11200   1.810   7.603   7.778  0.0444 -0.0785  0.0032
  742loPI   C1B11201   1.092   7.687   6.228 -0.0603  0.1510  0.1729
  742loPI   C2B11202   1.116   7.727   6.663 -0.0030  0.4084  0.0782
  742loPI   C3B11203   1.165   7.870   7.100  0.3142 -0.0495  0.1718
  742loPI   C4B11204   1.321   7.626   7.489  0.1583  0.4651  0.0561
  743loPI    C111205   6.396  16.868   4.451  0.0547 -0.1515 -0.1329
  743loPI    C211206   6.139  17.029   4.191 -0.0023 -0.1069 -0.0496
  743loPI    C311207   6.522  17.142   4.189 -0.0816  0.1738  0.1347
  743loPI   PO411208   6.246  16.904   4.749  0.2697 -0.2589 -0.1336
  743loPI   GL111209   6.055  16.723   5.074 -0.0775  0.0834  0.0181
  743loPI   GL211210   5.976  16.954   5.360 -0.1037  0.2960 -0.1338
  743loPI   C1A11211   6.047  16.393   5.329 -0.0235 -0.1276  0.1655
  743loPI   C2A11212   6.053  16.464   5.816  0.3494  0.2466 -0.1526
  743loPI   C3A11213   5.848  16.644   6.203 -0.1156 -0.1752  0.1039
  743loPI   C4A11214   5.693  16.846   6.532  0.0317  0.0174 -0.0692
  743loPI   C5A11215   5.552  16.968   6.879 -0.1641  0.0921  0.1848
  743loPI   C6A11216   5.300  16.853   7.286  0.0918  0.0653  0.1970
  743loPI   C1B11217   5.737  16.918   5.780 -0.2186 -0.0321  0.1691
  743loPI   C2B11218   5.423  16.974   6.151 -0.2440  0.3065  0.1249
  743loPI   C3B11219   5.197  16.968   6.503  0.1708 -0.2269  0.0385
  743loPI   C4B11220   4.936  16.971   6.829  0.0884  0.3417  0.1305
  744loPI    C111221   0.190  18.592   4.520  0.1023  0.1594  0.1450
  744loPI    C211222   0.436  18.522   4.213 -0.0402  0.0141  0.0622
  744loPI    C311223   0.058  18.631   4.145 -0.0770 -0.0343  0.1864
  744loPI   PO411224   0.299  18.512   4.749 -0.1631  0.2320  0.1082
  744loPI   GL111225   0.036  18.607   5.091 -0.0037  0.2923  0.1245
  744loPI   GL211226  -0.020  18.910   5.253  0.0879 -0.2146  0.0683
  744loPI   C1A11227   0.252  18.584   5.488 -0.1052 -0.1293  0.0700
  744loPI   C2A11228   0.305  18.612   5.909 -0.1729  0.2617 -0.0023
  744loPI   C3A11229   0.589  18.588   6.303 -0.4271 -0.4766  0.0228
  744loPI   C4A11230   0.582  18.908   6.707  0.0629  0.1504  0.2337
  744loPI   C5A11231   0.722  18.820   7.070 -0.0391  0.0543  0.1802
  744loPI   C6A11232   0.470  18.967   7.445  0.1751 -0.0230 -0.0360
  744loPI   C1B11233   0.122  19.040   5.658  0.1678  0.1535 -0.1635
  744loPI   C2B11234   0.056  19.340   6.044 -0.4004  0.2659 -0.1223
  744loPI   C3B11235  -0.109  19.353   6.482 -0.2489 -0.1893  0.1717
  744loPI   C4B11236  -0.209  19.372   6.889 -0.0841  0.2231  0.2605
  745loPI    C111237   3.415  11.294   4.619 -0.1268 -0.1229 -0.0047
  745loPI    C211238   3.712  11.328   4.354 -0.0173  0.1434  0.1476
  745loPI    C311239   3.385  11.556   4.318 -0.1438 -0.0495  0.0604
  745loPI   PO411240   3.429  11.275   4.843 -0.1016 -0.0469 -0.0234
  745loPI   GL111241   3.356  11.295   5.274  0.2734 -0.2319 -0.2594
  745loPI   GL211242   3.304  11.003   5.413  0.1002 -0.0773  0.1253
  745loPI   C1A11243   3.679  11.323   5.589  0.3485  0.0879  0.3139
  745loPI   C2A11244   3.588  11.307   5.995 -0.1160  0.1482  0.3635
  745loPI   C3A11245   3.667  11.309   6.345 -0.1542 -0.0062 -0.3401
  745loPI   C4A11246   4.012  11.143   6.684 -0.0245  0.0257 -0.0442
  745loPI   C5A11247   4.280  11.114   7.075  0.2593  0.4673  0.0398
  745loPI   C6A11248   4.685  11.172   7.383 -0.1323  0.1562  0.3826
  745loPI   C1B11249   3.505  10.865   5.787  0.3262  0.0147 -0.1793
  745loPI   C2B11250   3.512  10.841   6.289  0.2587 -0.2815 -0.0608
  745loPI   C3B11251   3.563  10.873   6.674 -0.0561 -0.0634 -0.0003
  745loPI   C4B11252   3.254  10.993   6.973  0.3287  0.0153 -0.0665
  746loPI    C111253  11.435   8.144   5.084  0.2827  0.0690  0.2337
  746loPI    C211254  11.417   7.748   5.140  0.1461  0.0129 -0.1731
  746loPI    C311255  11.227   7.995   5.391  0.4604 -0.1598  0.2460
  746loPI   PO411256  11.633   8.153   5.031  0.1549 -0.1110  0.0709
  746loPI   GL111257  11.879   8.373   5.398 -0.4708 -0.1834  0.3954
  746loPI   GL211258  11.614   8.251   5.557 -0.3314 -0.0433 -0.1908
  746loPI   C1A11259  12.219   8.202   5.642 -0.1893  0.1413  0.1145
  746loPI   C2A11260  12.250   8.147   6.187 -0.1723  0.0656  0.0759
  746loPI   C3A11261  12.459   7.973   6.630 -0.0970  0.0831  0.0502
  746loPI   C4A11262  12.532   7.765   6.975  0.0895  0.3004 -0.3395
  746loPI   C5A11263  12.284   7.775   7.369  0.1329  0.0316  0.3831
  746loPI   C6A11264  12.057   8.241   7.510  0.0883 -0.1216  0.0370
  746loPI   C1B11265  11.796   8.186   5.905 -0.2550 -0.1584 -0.1444
  746loPI   C2B11266  11.756   8.094   6.381 -0.3624  0.0635  0.0890
  746loPI   C3B11267  11.926   8.185   6.864  0.3023 -0.2586 -0.0553
  746loPI   C4B11268  12.303   8.219   7.081 -0.1619  0.0627 -0.1663
  747loPI    C111269   2.538   7.355   4.952 -0.2055 -0.0660 -0.0866
  747loPI    C211270   2.538   7.078   4.663 -0.2476  0.1482 -0.2953
  747loPI    C311271   2.565   7.465   4.568 -0.0138  0.2089  0.0029
  747loPI   PO411272   2.406   7.289   5.115 -0.0996  0.1196  0.6414
  747loPI   GL111273   2.418   7.276   5.603 -0.0466 -0.1547  0.0434
  747loPI   GL211274   2.592   7.076   5.529  0.0161  0.0006  0.0193
  747loPI   C1A11275   2.168   7.228   6.093  0.0388  0.2640 -0.0221
  747loPI   C2A11276   1.872   7.306   6.429 -0.1652 -0.0379 -0.2771
  747loPI   C3A11277   1.791   7.548   6.851 -0.3156  0.3164  0.0587
  747loPI   C4A11278   1.952   7.665   7.262  0.2108  0.1617 -0.0083
  747loPI   C5A11279   2.158   8.018   7.142 -0.4253  0.5808  0.0352
  747loPI   C6A11280   2.199   8.462   7.326  0.0878  0.1741 -0.3472
  747loPI   C1B11281   2.509   6.932   5.923  0.0825 -0.1022  0.2855
  747loPI   C2B11282   2.559   6.686   6.297 -0.3478 -0.1256  0.0792
  747loPI   C3B11283   2.390   6.469   6.572 -0.1134 -0.1692 -0.3096
  747loPI   C4B11284   2.287   6.124   6.516  0.0131  0.0702  0.0575
  748loPI    C111285  11.262   6.717   4.910  0.1681  0.2561  0.0238
  748loPI    C211286  11.599   6.577   4.747  0.0234 -0.0854  0.0103
  748loPI    C311287  11.424   6.903   4.595  0.2214 -0.0422 -0.1288
  748loPI   PO411288  11.235   6.641   5.196  0.1072 -0.1332 -0.1042
  748loPI   GL111289  11.066   6.568   5.590 -0.1174 -0.3660 -0.4099
  748loPI   GL211290  11.228   6.729   5.658  0.1444 -0.3933 -0.1162
  748loPI   C1A11291  10.703   6.616   5.858  0.1121  0.2329  0.3080
  748loPI   C2A11292  10.508   6.585   6.286  0.1841  0.0333 -0.1223
  748loPI   C3A11293  10.510   6.515   6.846 -0.1337  0.3297  0.0911
  748loPI   C4A11294  10.306   6.873   7.035  0.2404  0.2149 -0.0531
  748loPI   C5A11295  10.331   7.248   7.237  0.0641  0.2042  0.1432
  748loPI   C6A11296  10.541   7.267   7.697 -0.0253  0.0867  0.0506
  748loPI   C1B11297  11.002   6.984   5.964 -0.1462 -0.2438  0.1441
  748loPI   C2B11298  10.823   7.022   6.403  0.1717 -0.0491  0.1881
  748loPI   C3B11299  10.730   7.050   6.811  0.0726  0.1225  0.2807
  748loPI   C4B11300  10.801   7.196   7.099  0.0321 -0.0301 -0.0459
  749loPI    C111301  15.363   0.791   4.531 -0.1994  0.1104  0.0754
  749loPI    C211302  15.490   0.455   4.355  0.0303  0.1389  0.1826
  749loPI    C311303  15.580   0.811   4.196 -0.1986  0.1521  0.0783
  749loPI   PO411304  15.216   0.566   4.856 -0.0917  0.1202  0.1861
  749loPI   GL111305  15.093   0.230   5.200  0.3916 -0.1588 -0.0202
  749loPI   GL211306  15.364   0.026   5.335  0.1792  0.2488 -0.1463
  749loPI   C1A11307  15.030   0.529   5.485 -0.2515 -0.0361 -0.3490
  749loPI   C2A11308  15.128   0.726   5.811 -0.0883  0.0740 -0.0410
  749loPI   C3A11309  15.086   0.804   6.226  0.1267 -0.0767 -0.1046
  749loPI   C4A11310  15.153   0.926   6.579  0.0637  0.1852  0.3018
  749loPI   C5A11311  15.215   1.006   6.973  0.0558 -0.2162  0.1418
  749loPI   C6A11312  14.913   1.098   7.251 -0.0913  0.1314 -0.3118
  749loPI   C1B11313  15.355   0.283   5.709 -0.1423  0.1968  0.0631
  749loPI   C2B11314  15.468   0.426   6.155 -0.1529 -0.1756  0.0805
  749loPI   C3B11315  15.336   0.289   6.594 -0.0948 -0.1851 -0.1256
  749loPI   C4B11316  15.462   0.446   7.028  0.2227  0.0056  0.2144
  750loPI    C111317  17.440   9.468   4.977 -0.0773  0.0575 -0.0708
  750loPI    C211318  17.524   9.119   4.800 -0.2780 -0.0624  0.0669
  750loPI    C311319  17.169   9.295   4.739 -0.0480  0.2969 -0.2826
  750loPI   PO411320  17.518   9.507   5.125 -0.0487  0.2299 -0.2629
  750loPI   GL111321  17.463   9.404   5.536 -0.1139 -0.1189  0.2353
  750loPI   GL211322  17.091   9.455   5.736 -0.0423  0.1307 -0.0252
  750loPI   C1A11323  17.551   9.392   5.995 -0.0035 -0.3275  0.1933
  750loPI   C2A11324  17.841   9.541   6.366 -0.0319 -0.0790  0.0921
  750loPI   C3A11325  17.841   9.681   6.739  0.1851 -0.2149 -0.3242
  750loPI   C4A11326  17.868   9.859   7.176  0.2629  0.0394  0.2054
  750loPI   C5A11327  17.907   9.860   7.522  0.0295  0.2909  0.3169
  750loPI   C6A11328  17.997   9.543   7.857  0.0471  0.2025 -0.0560
  750loPI   C1B11329  17.028   9.415   6.132 -0.0154  0.0450 -0.1524
  750loPI   C2B11330  17.397   9.287   6.511 -0.0176 -0.3155  0.0463
  750loPI   C3B11331  17.441   8.921   6.723  0.0496  0.3185  0.1872
  750loPI   C4B11332  17.358   8.452   6.935 -0.0063  0.2323  0.0911
  751loPI    C111333  11.519   5.650   4.911 -0.0840  0.0324  0.0688
  751loPI    C211334  11.350   5.299   5.002  0.0342 -0.1298 -0.3187
  751loPI    C311335  11.321   5.445   4.631 -0.0293  0.2824 -0.1567
  751loPI   PO411336  11.745   5.644   4.886 -0.1474 -0.2306 -0.3842
  751loPI   GL111337  11.786   5.931   5.226 -0.3993 -0.4076  0.2923
  751loPI   GL211338  11.873   5.625   5.385 -0.3816 -0.0752 -0.0747
  751loPI   C1A11339  11.694   6.086   5.763 -0.0039 -0.2884  0.0902
  751loPI   C2A11340  11.769   6.116   6.170  0.0961  0.0266  0.2019
  751loPI   C3A11341  11.783   6.126   6.580  0.2720 -0.2085  0.3116
  751loPI   C4A11342  11.917   6.002   7.062 -0.2706 -0.0185  0.0614
  751loPI   C5A11343  12.027   6.301   7.390  0.1733  0.1155 -0.0287
  751loPI   C6A11344  12.094   6.655   7.674 -0.2021 -0.2442 -0.4402
  751loPI   C1B11345  12.118   5.744   5.844  0.0096 -0.0936  0.4409
  751loPI   C2B11346  12.433   5.859   6.116  0.0452 -0.3029  0.1231
  751loPI   C3B11347  12.709   5.935   6.466 -0.0587  0.0346  0.2205
  751loPI   C4B11348  12.773   5.897   6.846 -0.0547 -0.1597 -0.1468
  752loPI    C111349   7.784   4.694   4.634 -0.2431 -0.1930  0.3010
  752loPI    C211350   8.013   4.403   4.785  0.1313 -0.1034 -0.0752
  752loPI    C311351   8.069   4.527   4.409 -0.0854  0.3921  0.0472
  752loPI   PO411352   7.596   4.663   4.812  0.2367  0.2811  0.1329
  752loPI   GL111353   7.653   4.498   5.224 -0.0012 -0.3317 -0.0506
  752loPI   GL211354   7.978   4.470   5.353  0.0803  0.2831  0.0006
  752loPI   C1A11355   7.395   4.470   5.553 -0.0066  0.0363  0.1797
  752loPI   C2A11356   7.012   4.280   5.620  0.3546 -0.1348  0.2750
  752loPI   C3A11357   6.921   4.035   5.899 -0.0237 -0.2719  0.0108
  752loPI   C4A11358   6.856   3.807   6.287 -0.1421  0.0376 -0.1003
  752loPI   C5A11359   7.007   3.797   6.698  0.3741 -0.1847  0.1587
  752loPI   C6A11360   6.870   3.643   7.070  0.0172  0.0274  0.1085
  752loPI   C1B11361   7.956   4.340   5.820 -0.1628  0.1232  0.1162
  752loPI   C2B11362   7.829   4.224   6.267 -0.0848  0.3025 -0.2147
  752loPI   C3B11363   7.905   4.181   6.762 -0.1626  0.3570  0.1632
  752loPI   C4B11364   8.103   4.054   7.114 -0.2747  0.2210  0.0465
  753loPI    C111365  18.416   0.309   4.335 -0.0924 -0.0411  0.1448
  753loPI    C211366  18.176   0.628   4.359 -0.0808 -0.0131 -0.0932
  753loPI    C311367  18.136   0.369   4.056  0.1621 -0.0297 -0.1129
  753loPI   PO411368  18.348   0.236   4.657  0.0148 -0.0119 -0.0166
  753loPI   GL111369  18.122   0.358   4.942 -0.0483  0.0622  0.2707
  753loPI   GL211370  17.805   0.408   5.041  0.1345  0.0382 -0.0606
  753loPI   C1A11371  18.034   0.160   5.397  0.0853 -0.2917  0.0868
  753loPI   C2A11372  17.823   0.073   5.725  0.0047  0.0453 -0.1543
  753loPI   C3A11373  17.828   0.046   6.195  0.2800  0.0739  0.1340
  753loPI   C4A11374  17.652  -0.071   6.689 -0.3289  0.1736 -0.2594
  753loPI   C5A11375  17.416  -0.358   6.969 -0.0646  0.3568 -0.3167
  753loPI   C6A11376  17.202  -0.619   7.214 -0.1561 -0.0353  0.0213
  753loPI   C1B11377  17.702   0.573   5.354  0.1504  0.0483  0.2038
  753loPI   C2B11378  17.624   0.601   5.812  0.0580 -0.0098  0.2775
  753loPI   C3B11379  17.567   0.491   6.257  0.2965  0.3290 -0.3755
  753loPI   C4B11380  17.623   0.549   6.704 -0.0796  0.0685  0.0737
  754loPI    C111381   9.993   2.498   4.916 -0.1567  0.1107 -0.0489
  754loPI    C211382   9.800   2.582   4.576 -0.1808 -0.2614 -0.1317
  754loPI    C311383  10.104   2.322   4.574  0.1808  0.1473  0.0377
  754loPI   PO411384   9.811   2.433   5.085 -0.1565 -0.1551 -0.1373
  754loPI   GL111385   9.671   2.310   5.450 -0.1943 -0.0588 -0.0613
  754loPI   GL211386   9.394   2.271   5.471 -0.0636  0.0150 -0.2412
  754loPI   C1A11387   9.733   2.523   5.705  0.0295 -0.1801  0.0273
  754loPI   C2A11388   9.552   2.622   6.013  0.0139  0.3580 -0.1066
  754loPI   C3A11389   9.541   2.740   6.473 -0.2134 -0.1384  0.3404
  754loPI   C4A11390   9.485   2.950   6.940 -0.2271  0.0028 -0.3856
  754loPI   C5A11391   9.839   3.057   7.269  0.0379  0.0405  0.5548
  754loPI   C6A11392  10.216   2.747   7.221  0.0316 -0.1696  0.0018
  754loPI   C1B11393   9.475   2.125   5.923 -0.0978  0.1148  0.1774
  754loPI   C2B11394   9.508   2.251   6.331 -0.1601 -0.0206 -0.4260
  754loPI   C3B11395   9.714   2.262   6.768  0.2613  0.0089  0.0855
  754loPI   C4B11396   9.573   2.301   7.188  0.0450  0.0569  0.3069
  755loPI    C111397  16.384  11.054   5.186 -0.1708 -0.2935 -0.2202
  755loPI    C211398  16.420  11.160   4.802  0.0096  0.1723 -0.0817
  755loPI    C311399  16.106  11.286   5.015  0.0344  0.1161 -0.0115
  755loPI   PO411400  16.424  10.743   5.197 -0.1491 -0.3871 -0.0960
  755loPI   GL111401  16.322  10.519   5.642 -0.0925  0.0074  0.1314
  755loPI   GL211402  16.088  10.587   5.716 -0.2764 -0.1867 -0.2225
  755loPI   C1A11403  16.675  10.608   5.912  0.1657  0.3300 -0.2795
  755loPI   C2A11404  16.843  10.691   6.268 -0.3844  0.0433 -0.0404
  755loPI   C3A11405  16.783  10.816   6.672 -0.1261  0.0818  0.0856
  755loPI   C4A11406  16.546  11.154   6.917 -0.3541 -0.1737  0.2103
  755loPI   C5A11407  16.292  11.262   7.198  0.2855  0.0368  0.2230
  755loPI   C6A11408  16.120  11.160   7.527 -0.1259 -0.1926 -0.1217
  755loPI   C1B11409  16.157  10.622   6.101 -0.3913 -0.1593  0.1287
  755loPI   C2B11410  16.329  10.681   6.420  0.1624 -0.0256  0.1787
  755loPI   C3B11411  16.239  10.767   6.789 -0.1541  0.3043  0.0457
  755loPI   C4B11412  16.359  10.677   7.234  0.0522 -0.1421 -0.0193
  756loPI    C111413   0.357  12.175   4.767 -0.2032  0.0923  0.3851
  756loPI    C211414   0.094  11.928   4.939 -0.1128 -0.1787  0.1418
  756loPI    C311415   0.013  12.087   4.581 -0.1821  0.1702  0.3085
  756loPI   PO411416   0.444  12.284   4.968 -0.0725  0.0027  0.0832
  756loPI   GL111417   0.355  12.524   5.347 -0.1977 -0.3104 -0.1079
  756loPI   GL211418   0.583  12.360   5.442  0.0855 -0.0499  0.4400
  756loPI   C1A11419   0.184  12.570   5.747  0.0136  0.0207  0.0878
  756loPI   C2A11420   0.355  12.684   6.217  0.1805 -0.1487  0.3557
  756loPI   C3A11421   0.616  12.795   6.666  0.0664  0.0029  0.1100
  756loPI   C4A11422   0.849  12.735   6.993  0.0455 -0.2206  0.1498
  756loPI   C5A11423   1.055  12.538   7.332  0.1065 -0.1123  0.2382
  756loPI   C6A11424   0.992  12.151   7.639  0.1122 -0.2784 -0.3944
  756loPI   C1B11425   0.596  12.325   5.953  0.4815 -0.3107 -0.0146
  756loPI   C2B11426   0.687  12.282   6.352 -0.1916  0.1982  0.1978
  756loPI   C3B11427   0.634  12.228   6.676  0.0745 -0.0365 -0.1677
  756loPI   C4B11428   0.742  12.148   7.158 -0.0577 -0.1074  0.3381
  757loPI    C111429   2.042  13.277   4.824 -0.0029  0.1067 -0.0499
  757loPI    C211430   1.758  13.031   4.686  0.1215 -0.0491 -0.0306
  757loPI    C311431   2.123  12.889   4.768  0.2613  0.1862 -0.2332
  757loPI   PO411432   1.940  13.544   5.059 -0.0006 -0.1061 -0.2753
  757loPI   GL111433   1.886  13.926   5.310  0.1832 -0.2222 -0.2622
  757loPI   GL211434   1.552  13.963   5.262  0.2510  0.0222  0.1368
  757loPI   C1A11435   1.827  13.853   5.814 -0.1069  0.0830 -0.1626
  757loPI   C2A11436   1.713  14.075   6.190  0.1064  0.2843 -0.0649
  757loPI   C3A11437   1.528  14.134   6.563  0.2510  0.1365 -0.1146
  757loPI   C4A11438   1.341  14.385   6.911  0.4106 -0.0038  0.2179
  757loPI   C5A11439   1.528  14.405   7.376  0.3295  0.2744 -0.1121
  757loPI   C6A11440   1.427  14.746   7.558  0.2798  0.0946 -0.0009
  757loPI   C1B11441   1.454  14.138   5.594 -0.2722 -0.0429  0.3865
  757loPI   C2B11442   1.467  14.405   5.963  0.1857  0.0126  0.2901
  757loPI   C3B11443   1.760  14.606   6.356  0.1796 -0.0494  0.0064
  757loPI   C4B11444   1.785  14.822   6.718 -0.0228  0.0147  0.1004
  758loPI    C111445  12.391   3.155   4.690 -0.1603  0.0121 -0.1771
  758loPI    C211446  12.071   3.126   4.451 -0.1266  0.0881 -0.2316
  758loPI    C311447  12.269   3.473   4.480 -0.2619  0.1428  0.0754
  758loPI   PO411448  12.264   3.013   4.951 -0.2598 -0.3331 -0.2242
  758loPI   GL111449  12.297   2.941   5.368  0.0302  0.1032  0.0383
  758loPI   GL211450  12.101   3.239   5.388  0.0481  0.1377  0.0435
  758loPI   C1A11451  12.381   3.048   5.787 -0.0138 -0.1764  0.2018
  758loPI   C2A11452  12.488   3.271   6.194  0.1972  0.2689  0.0863
  758loPI   C3A11453  12.502   3.161   6.584  0.1598  0.1882 -0.1637
  758loPI   C4A11454  12.680   3.302   7.011 -0.1059 -0.0146  0.0552
  758loPI   C5A11455  12.692   2.961   7.405 -0.0357  0.1987 -0.0687
  758loPI   C6A11456  12.513   2.574   7.641 -0.3066  0.0083 -0.2648
  758loPI   C1B11457  11.909   2.908   5.695  0.1083  0.1181 -0.2410
  758loPI   C2B11458  11.961   2.946   6.125 -0.1288 -0.0442  0.1194
  758loPI   C3B11459  11.928   2.983   6.537  0.0125 -0.0915  0.1142
  758loPI   C4B11460  12.210   2.948   6.928  0.2666  0.1189 -0.0472
  759loPI    C111461  10.843   8.375   4.823  0.0877  0.0848  0.0248
  759loPI    C211462  10.859   8.598   4.491  0.0894  0.1120  0.0432
  759loPI    C311463  10.805   8.203   4.464  0.2474  0.0926  0.0035
  759loPI   PO411464  11.016   8.472   5.009 -0.0512 -0.0416 -0.1984
  759loPI   GL111465  11.059   8.427   5.465 -0.4529 -0.0254  0.1211
  759loPI   GL211466  11.317   8.641   5.622  0.1895 -0.0739 -0.1744
  759loPI   C1A11467  10.992   8.167   5.806  0.0151  0.0324  0.2261
  759loPI   C2A11468  10.875   8.459   6.151 -0.3452 -0.0327 -0.1781
  759loPI   C3A11469  11.118   8.533   6.571 -0.2315  0.0978  0.1362
  759loPI   C4A11470  11.290   8.414   7.007 -0.0282  0.2296 -0.3205
  759loPI   C5A11471  11.148   7.998   7.302 -0.0709  0.1950 -0.2227
  759loPI   C6A11472  11.297   7.796   7.595  0.2270 -0.0919 -0.2858
  759loPI   C1B11473  11.377   8.555   6.074  0.0963  0.1090  0.2473
  759loPI   C2B11474  11.343   8.162   6.207  0.0579  0.1924 -0.0050
  759loPI   C3B11475  10.951   7.897   6.318 -0.3328 -0.3365  0.5349
  759loPI   C4B11476  11.004   7.483   6.639  0.0353  0.1658  0.0238
  760loPI    C111477  17.324   1.819   4.743 -0.2004 -0.1451 -0.0115
  760loPI    C211478  17.111   1.652   4.449 -0.0348 -0.2180 -0.0915
  760loPI    C311479  17.488   1.534   4.515  0.1211  0.1941 -0.2158
  760loPI   PO411480  17.259   1.795   4.989  0.0084  0.1761 -0.0969
  760loPI   GL111481  17.323   1.855   5.358  0.0856 -0.3974 -0.0519
  760loPI   GL211482  17.611   1.839   5.474  0.1465 -0.2359 -0.1848
  760loPI   C1A11483  17.248   2.139   5.695 -0.2054  0.1190 -0.0516
  760loPI   C2A11484  17.495   2.399   6.064  0.1277  0.2364  0.3316
  760loPI   C3A11485  17.309   2.462   6.501 -0.0856 -0.2097 -0.2854
  760loPI   C4A11486  17.143   2.308   6.844  0.2110  0.1249 -0.2454
  760loPI   C5A11487  16.791   2.388   7.078 -0.2074 -0.3068 -0.2412
  760loPI   C6A11488  16.469   2.099   7.252 -0.0811 -0.3303  0.2753
  760loPI   C1B11489  17.471   1.721   5.832  0.3436 -0.0529 -0.0335
  760loPI   C2B11490  17.455   1.753   6.186  0.0207  0.3914  0.3209
  760loPI   C3B11491  17.125   1.938   6.502 -0.0206  0.0224  0.2323
  760loPI   C4B11492  16.695   1.940   6.651 -0.0790 -0.2542 -0.2592
  761loPI    C111493   1.898   1.883   4.560 -0.0843 -0.0854 -0.0924
  761loPI    C211494   1.964   2.277   4.531 -0.0165 -0.0790  0.1301
  761loPI    C311495   2.217   2.018   4.359 -0.1285 -0.0240 -0.1214
  761loPI   PO411496   1.893   1.779   4.785  0.0766  0.0150  0.1576
  761loPI   GL111497   1.913   2.154   5.062  0.1402  0.1483 -0.0808
  761loPI   GL211498   1.829   2.330   5.324 -0.0963 -0.3437 -0.0493
  761loPI   C1A11499   1.893   1.912   5.509  0.1079 -0.1517 -0.0368
  761loPI   C2A11500   1.754   1.791   5.947 -0.2620 -0.2292  0.1422
  761loPI   C3A11501   1.753   1.709   6.334  0.2119  0.0131 -0.1503
  761loPI   C4A11502   1.996   1.696   6.711  0.0238  0.2897  0.3550
  761loPI   C5A11503   2.105   1.423   6.922  0.0925 -0.0747  0.1166
  761loPI   C6A11504   2.226   0.983   6.717 -0.1200  0.1013 -0.1811
  761loPI   C1B11505   2.032   2.336   5.776  0.1550  0.0493 -0.0829
  761loPI   C2B11506   2.070   2.156   6.170  0.0407  0.4868 -0.2067
  761loPI   C3B11507   2.225   2.105   6.545  0.1763  0.1472 -0.0054
  761loPI   C4B11508   2.130   2.200   6.921 -0.1219 -0.1588 -0.2226
  762loPI    C111509   0.973   1.896   4.872 -0.1047  0.1453 -0.1775
  762loPI    C211510   0.602   1.814   4.747 -0.1079 -0.0305 -0.0569
  762loPI    C311511   0.871   1.964   4.491 -0.2161 -0.0511 -0.1840
  762loPI   PO411512   1.017   1.649   5.061  0.0463  0.0267  0.0457
  762loPI   GL111513   1.433   1.496   5.012 -0.1257 -0.0327  0.0305
  762loPI   GL211514   1.483   1.833   5.108  0.1834  0.4886  0.0126
  762loPI   C1A11515   1.444   1.517   5.538  0.1700 -0.2471 -0.0118
  762loPI   C2A11516   1.514   1.408   5.951 -0.1027  0.0633  0.0157
  762loPI   C3A11517   1.332   1.354   6.369  0.3028 -0.1314  0.1398
  762loPI   C4A11518   1.023   1.427   6.670  0.0915 -0.1396  0.1882
  762loPI   C5A11519   0.669   1.468   6.964  0.2060 -0.0260  0.0039
  762loPI   C6A11520   0.166   1.442   6.963 -0.0817 -0.0456  0.1124
  762loPI   C1B11521   1.451   2.040   5.444 -0.2784 -0.0853 -0.0169
  762loPI   C2B11522   1.317   1.917   5.827 -0.1289  0.0971 -0.0233
  762loPI   C3B11523   1.076   1.862   6.321  0.0026 -0.1313  0.2635
  762loPI   C4B11524   0.943   2.013   6.677 -0.3130  0.4278  0.0578
  763loPI    C111525   6.602   6.497   5.010  0.1070 -0.1263 -0.0011
  763loPI    C211526   6.910   6.475   4.756  0.1096  0.2321 -0.0350
  763loPI    C311527   6.569   6.283   4.674  0.1856  0.1653 -0.1986
  763loPI   PO411528   6.644   6.723   5.144  0.0718  0.1288  0.1213
  763loPI   GL111529   6.351   6.807   5.536 -0.1433  0.1378 -0.2879
  763loPI   GL211530   6.329   6.471   5.490 -0.1003 -0.1131 -0.0953
  763loPI   C1A11531   6.068   7.030   5.772 -0.1568 -0.0345  0.1305
  763loPI   C2A11532   5.979   7.317   6.038 -0.2567  0.2096 -0.1737
  763loPI   C3A11533   5.881   7.316   6.474 -0.0358 -0.2196  0.0444
  763loPI   C4A11534   5.679   7.273   6.916  0.1558 -0.0395  0.2949
  763loPI   C5A11535   5.426   7.226   7.326  0.0803  0.1577 -0.0103
  763loPI   C6A11536   5.096   7.218   7.558  0.0926 -0.0543 -0.4522
  763loPI   C1B11537   6.112   6.481   5.885 -0.0094 -0.1430  0.2413
  763loPI   C2B11538   6.186   6.430   6.329  0.0969  0.0857  0.1357
  763loPI   C3B11539   6.213   6.370   6.704  0.0169  0.2669  0.2179
  763loPI   C4B11540   6.297   6.317   7.142 -0.2125 -0.1222  0.0227
  764loPI    C111541  12.268  15.177   4.899  0.0073 -0.1087 -0.0122
  764loPI    C211542  12.452  15.421   5.157 -0.0180  0.1683 -0.2510
  764loPI    C311543  12.154  15.559   4.927  0.0032 -0.0741 -0.4286
  764loPI   PO411544  12.393  14.929   5.025  0.1556 -0.0247  0.2116
  764loPI   GL111545  12.513  14.707   5.294 -0.1168  0.0142 -0.0781
  764loPI   GL211546  12.495  14.416   5.110  0.2169 -0.1149  0.0238
  764loPI   C1A11547  12.480  14.665   5.749  0.0305 -0.1576 -0.1104
  764loPI   C2A11548  12.504  14.780   6.235  0.0251 -0.1569 -0.3019
  764loPI   C3A11549  12.800  14.755   6.561  0.0674  0.1524  0.1203
  764loPI   C4A11550  12.610  14.678   7.022 -0.0553 -0.1025  0.0594
  764loPI   C5A11551  12.279  14.805   7.339 -0.1290  0.0607  0.2252
  764loPI   C6A11552  11.968  14.873   7.632 -0.0338 -0.0406  0.5186
  764loPI   C1B11553  12.512  14.236   5.496 -0.0833  0.0892  0.3133
  764loPI   C2B11554  12.774  14.199   5.827  0.0510  0.1855  0.0353
  764loPI   C3B11555  12.561  14.241   6.252  0.2007 -0.0149 -0.0127
  764loPI   C4B11556  12.533  14.315   6.664 -0.2152  0.0797 -0.0494
  765loPI    C111557   4.357  13.282   4.883 -0.1244  0.1924  0.0408
  765loPI    C211558   4.504  13.013   4.627  0.0891  0.0780  0.2798
  765loPI    C311559   4.266  13.305   4.494 -0.0266 -0.1410 -0.0045
  765loPI   PO411560   4.211  13.215   5.061  0.0265 -0.0082  0.0690
  765loPI   GL111561   4.262  13.083   5.506  0.2586  0.2006  0.1021
  765loPI   GL211562   4.493  13.322   5.477 -0.3295  0.0908 -0.2412
  765loPI   C1A11563   4.065  13.052   5.894 -0.0788  0.3561 -0.2076
  765loPI   C2A11564   4.198  13.072   6.299 -0.0440 -0.1584 -0.2560
  765loPI   C3A11565   4.282  13.178   6.674  0.2899  0.0432 -0.1249
  765loPI   C4A11566   4.414  13.052   7.101 -0.0055  0.0289 -0.0652
  765loPI   C5A11567   4.676  13.063   7.410  0.1742 -0.0242  0.0553
  765loPI   C6A11568   4.814  13.041   7.784 -0.0894 -0.0859 -0.0544
  765loPI   C1B11569   4.515  13.245   5.930  0.0663  0.2142 -0.0220
  765loPI   C2B11570   4.631  13.295   6.372 -0.2162  0.2032  0.2584
  765loPI   C3B11571   4.743  13.241   6.755  0.1236  0.1053 -0.2639
  765loPI   C4B11572   4.994  12.975   7.064  0.0301 -0.2690  0.1453
  766loPI    C111573  15.462  16.711   4.501  0.0084  0.2141  0.0498
  766loPI    C211574  15.360  16.414   4.254  0.2996 -0.1006  0.2977
  766loPI    C311575  15.511  16.753   4.106 -0.1014 -0.0409  0.0071
  766loPI   PO411576  15.541  16.584   4.711 -0.1805 -0.1806 -0.0797
  766loPI   GL111577  15.556  16.699   5.088 -0.0212  0.0431  0.0376
  766loPI   GL211578  15.597  16.980   5.174  0.0185 -0.1596  0.0123
  766loPI   C1A11579  15.666  16.528   5.456 -0.2503  0.1413  0.0187
  766loPI   C2A11580  15.535  16.472   5.850 -0.0087 -0.0199  0.1957
  766loPI   C3A11581  15.635  16.401   6.212 -0.2516  0.0736 -0.1660
  766loPI   C4A11582  15.665  16.604   6.490  0.1835 -0.0261  0.2983
  766loPI   C5A11583  15.538  17.025   6.617  0.2443  0.1228 -0.4607
  766loPI   C6A11584  15.804  17.486   6.742  0.1197  0.0015  0.0301
  766loPI   C1B11585  15.543  16.986   5.563 -0.2248 -0.1898 -0.1321
  766loPI   C2B11586  15.666  16.938   6.030  0.2087  0.2161 -0.0016
  766loPI   C3B11587  16.018  16.968   6.332 -0.1170 -0.1815 -0.1788
  766loPI   C4B11588  15.995  16.875   6.759 -0.1003 -0.4099 -0.2059
  767loPI    C111589   4.754  16.304   4.776  0.0342 -0.1583 -0.0788
  767loPI    C211590   5.057  16.477   4.971  0.0150 -0.3221  0.0997
  767loPI    C311591   5.087  16.405   4.578  0.0225  0.0830  0.0213
  767loPI   PO411592   4.677  16.082   4.907  0.1207  0.0076 -0.0451
  767loPI   GL111593   4.567  15.957   5.336  0.2052 -0.0497  0.3849
  767loPI   GL211594   4.234  16.086   5.166 -0.2604 -0.3447 -0.2122
  767loPI   C1A11595   4.608  15.898   5.752 -0.2429 -0.0236  0.1954
  767loPI   C2A11596   4.433  15.790   6.127 -0.2453 -0.0363 -0.1257
  767loPI   C3A11597   4.168  15.910   6.463  0.3686  0.1573 -0.0378
  767loPI   C4A11598   4.059  15.996   6.819 -0.1499  0.1704 -0.0233
  767loPI   C5A11599   4.220  15.903   7.180  0.0775  0.2642  0.0729
  767loPI   C6A11600   4.367  16.138   7.556 -0.2184  0.0329  0.0538
  767loPI   C1B11601   4.110  15.948   5.567  0.2009  0.0270 -0.0088
  767loPI   C2B11602   3.799  15.980   6.089  0.2009 -0.0125 -0.2311
  767loPI   C3B11603   3.674  16.049   6.535  0.3391 -0.1089  0.2665
  767loPI   C4B11604   3.657  16.194   6.968  0.2658 -0.2289  0.0169
  768loPI    C111605   0.064  17.677   4.655 -0.0449  0.0526 -0.1584
  768loPI    C211606   0.076  17.281   4.599 -0.0895  0.0229  0.0347
  768loPI    C311607   0.018  17.526   4.287  0.0291 -0.1169 -0.0986
  768loPI   PO411608   0.089  17.668   4.920 -0.2448  0.1592  0.0443
  768loPI   GL111609   0.219  17.657   5.236 -0.1702  0.0854 -0.1406
  768loPI   GL211610   0.528  17.468   5.255 -0.2500 -0.0638  0.0175
  768loPI   C1A11611   0.069  17.761   5.613 -0.1138 -0.1263  0.0124
  768loPI   C2A11612  -0.008  17.826   6.073  0.0227 -0.3414 -0.2241
  768loPI   C3A11613  -0.041  17.959   6.553  0.2521  0.2130 -0.0595
  768loPI   C4A11614  -0.039  17.832   6.937 -0.2935 -0.2770  0.0812
  768loPI   C5A11615  -0.029  17.632   7.271 -0.2226  0.1040  0.0634
  768loPI   C6A11616  -0.101  17.490   7.689 -0.1419  0.2804 -0.0093
  768loPI   C1B11617   0.337  17.265   5.605 -0.1568 -0.2395  0.2989
  768loPI   C2B11618   0.055  17.260   5.989  0.1046  0.2898  0.0510
  768loPI   C3B11619   0.024  17.397   6.394  0.2197 -0.2064 -0.0519
  768loPI   C4B11620   0.129  17.399   6.814  0.0213 -0.3130 -0.1928
  769loPI    C111621   5.460   2.414   5.108  0.2318 -0.0721  0.0053
  769loPI    C211622   5.527   2.803   5.043 -0.0184 -0.0529 -0.1490
  769loPI    C311623   5.560   2.541   4.742 -0.1205 -0.1126 -0.1087
  769loPI   PO411624   5.130   2.401   5.297  0.1105  0.1549 -0.4675
  769loPI   GL111625   5.065   2.513   5.630 -0.0466  0.3626 -0.0154
  769loPI   GL211626   5.285   2.238   5.752  0.1050 -0.1152  0.1951
  769loPI   C1A11627   4.909   2.735   6.008 -0.0159  0.1902  0.1866
  769loPI   C2A11628   4.911   2.655   6.426  0.1131 -0.2790  0.1604
  769loPI   C3A11629   4.831   2.594   6.837 -0.1189  0.2370 -0.0341
  769loPI   C4A11630   4.966   2.454   7.176 -0.1624 -0.1303 -0.0091
  769loPI   C5A11631   5.249   2.331   7.511 -0.0760 -0.1937  0.1598
  769loPI   C6A11632   5.711   2.088   7.400  0.0096 -0.3572  0.0488
  769loPI   C1B11633   5.269   2.412   6.144  0.0871  0.4664  0.1511
  769loPI   C2B11634   5.328   2.373   6.551  0.1914  0.1255  0.0733
  769loPI   C3B11635   5.404   2.680   6.757 -0.0918  0.1463 -0.0114
  769loPI   C4B11636   5.513   2.688   7.222  0.2230  0.2173 -0.0706
  770loPI    C111637   3.892   9.081   4.760  0.1437  0.0838 -0.0463
  770loPI    C211638   4.086   8.900   4.461  0.0605 -0.0074 -0.0453
  770loPI    C311639   3.766   9.127   4.383  0.0044 -0.0776 -0.0206
  770loPI   PO411640   3.813   8.885   4.934 -0.0644  0.1437  0.1021
  770loPI   GL111641   4.019   8.558   5.197  0.0342 -0.0152  0.1455
  770loPI   GL211642   4.258   8.363   5.209  0.1034  0.2768 -0.0835
  770loPI   C1A11643   4.061   8.550   5.616  0.0053 -0.0820  0.0055
  770loPI   C2A11644   4.098   8.517   6.004  0.0383 -0.3024 -0.1292
  770loPI   C3A11645   4.137   8.849   6.345 -0.0809 -0.0237 -0.1666
  770loPI   C4A11646   4.173   8.869   6.783 -0.1265  0.1488  0.2415
  770loPI   C5A11647   4.239   9.193   7.010 -0.1520 -0.0981 -0.2843
  770loPI   C6A11648   4.408   9.439   7.362 -0.3113 -0.0613 -0.0932
  770loPI   C1B11649   4.174   8.030   5.511 -0.1561 -0.0844  0.1018
  770loPI   C2B11650   4.146   8.067   5.900 -0.1311 -0.2833 -0.1261
  770loPI   C3B11651   4.096   8.117   6.387 -0.0741  0.2474 -0.1757
  770loPI   C4B11652   3.882   8.439   6.614 -0.0655  0.1621 -0.1067
  771loPI    C111653   5.892   4.184   4.938 -0.1246 -0.0712  0.0893
  771loPI    C211654   5.792   3.803   5.008 -0.4896 -0.0204 -0.1239
  771loPI    C311655   5.677   3.980   4.669  0.0890  0.1390 -0.2483
  771loPI   PO411656   5.867   4.344   5.075  0.2317 -0.1682 -0.0203
  771loPI   GL111657   6.131   4.450   5.372  0.3126  0.1975 -0.2546
  771loPI   GL211658   6.446   4.407   5.259 -0.0521  0.2937 -0.2096
  771loPI   C1A11659   6.106   4.096   5.676  0.1586  0.0560 -0.2033
  771loPI   C2A11660   6.028   4.079   6.024  0.0717  0.2470 -0.3075
  771loPI   C3A11661   6.042   4.291   6.426 -0.0087  0.4064  0.1027
  771loPI   C4A11662   6.139   4.356   6.821 -0.0344  0.1271 -0.3156
  771loPI   C5A11663   5.846   4.625   7.132  0.0298  0.0164  0.0602
  771loPI   C6A11664   5.565   4.764   7.415 -0.0300 -0.3308 -0.0562
  771loPI   C1B11665   6.542   4.327   5.636  0.2649  0.1617 -0.0015
  771loPI   C2B11666   6.527   4.194   6.103  0.0380 -0.2813 -0.1291
  771loPI   C3B11667   6.535   4.140   6.589  0.0093 -0.0286  0.1461
  771loPI   C4B11668   6.595   4.151   6.991  0.1530  0.1873 -0.3216
  772loPI    C111669  11.343   1.623   4.854  0.1606 -0.0518  0.1528
  772loPI    C211670  11.566   1.420   4.591  0.2543  0.1307  0.0893
  772loPI    C311671  11.182   1.321   4.646  0.2854 -0.0304  0.0235
  772loPI   PO411672  11.409   1.610   5.106 -0.2046 -0.1075  0.1793
  772loPI   GL111673  11.245   1.808   5.461 -0.0654 -0.1410  0.0768
  772loPI   GL211674  11.515   1.966   5.525 -0.0401 -0.0754 -0.0622
  772loPI   C1A11675  11.109   1.524   5.816  0.1768 -0.1650  0.1305
  772loPI   C2A11676  11.072   1.269   6.199 -0.1772 -0.1233 -0.1639
  772loPI   C3A11677  11.057   1.071   6.645  0.2619 -0.1982 -0.0947
  772loPI   C4A11678  11.306   0.956   6.958 -0.1792  0.0052 -0.0848
  772loPI   C5A11679  11.484   1.019   7.368 -0.2351  0.1182  0.1388
  772loPI   C6A11680  11.610   0.669   7.696  0.0422 -0.1052 -0.1950
  772loPI   C1B11681  11.592   1.818   5.950 -0.2877 -0.0550  0.4101
  772loPI   C2B11682  11.586   1.929   6.366 -0.0700  0.1102 -0.0415
  772loPI   C3B11683  11.530   1.844   6.783 -0.1862 -0.0947 -0.2307
  772loPI   C4B11684  11.448   1.840   7.253  0.1455  0.1098  0.1257
  773loPI    C111685   4.511   9.396   4.949 -0.0786 -0.0409  0.0341
  773loPI    C211686   4.737   9.448   4.624  0.0734  0.0831  0.1577
  773loPI    C311687   4.392   9.248   4.597  0.2470 -0.2021 -0.0125
  773loPI   PO411688   4.592   9.253   5.136 -0.3733 -0.2145 -0.1237
  773loPI   GL111689   4.782   8.966   5.428 -0.1382  0.1708 -0.1208
  773loPI   GL211690   4.461   8.882   5.448 -0.3422  0.0474 -0.0827
  773loPI   C1A11691   5.064   8.922   5.787 -0.0546 -0.0336  0.1394
  773loPI   C2A11692   5.063   9.138   6.230 -0.0631 -0.2484  0.2072
  773loPI   C3A11693   5.093   9.110   6.583  0.0410  0.1452  0.2061
  773loPI   C4A11694   5.165   8.868   6.979 -0.1091 -0.0875 -0.1798
  773loPI   C5A11695   5.311   8.541   7.065 -0.1135 -0.0513 -0.1365
  773loPI   C6A11696   5.434   8.241   6.816  0.2807  0.0067 -0.0832
  773loPI   C1B11697   4.241   8.999   5.809  0.0168 -0.2891  0.0775
  773loPI   C2B11698   4.008   9.176   6.027  0.0557 -0.3234 -0.0980
  773loPI   C3B11699   4.089   9.346   6.472  0.1731 -0.1326 -0.0048
  773loPI   C4B11700   4.209   9.682   6.826  0.2703  0.2274  0.3382
  774loPI    C111701   5.531   1.474   4.586 -0.1220 -0.0482 -0.0476
  774loPI    C211702   5.201   1.315   4.425 -0.1345 -0.0802  0.0093
  774loPI    C311703   5.449   1.534   4.199 -0.3042  0.1213  0.0153
  774loPI   PO411704   5.493   1.551   4.774  0.4005  0.0218  0.1580
  774loPI   GL111705   5.468   1.747   5.177  0.2510 -0.0026  0.0583
  774loPI   GL211706   5.228   1.846   5.355  0.3470 -0.0326  0.0310
  774loPI   C1A11707   5.664   1.909   5.620 -0.1273 -0.1514  0.1680
  774loPI   C2A11708   5.618   1.819   6.036  0.0776  0.0658 -0.0856
  774loPI   C3A11709   5.434   1.666   6.382 -0.0869 -0.2086  0.1732
  774loPI   C4A11710   5.337   1.728   6.804  0.0407  0.2734 -0.2098
  774loPI   C5A11711   5.349   1.461   7.099 -0.0945  0.2314 -0.1321
  774loPI   C6A11712   5.167   1.235   7.421 -0.0287 -0.0863  0.4626
  774loPI   C1B11713   5.165   1.767   5.821 -0.0744  0.1587 -0.0303
  774loPI   C2B11714   4.977   1.541   6.154 -0.1524  0.0021  0.2705
  774loPI   C3B11715   4.978   1.461   6.610 -0.2566 -0.0987  0.0268
  774loPI   C4B11716   4.868   1.473   7.098  0.1588 -0.1014 -0.1201
  775loPI    C111717  16.331  13.357   4.929  0.1209  0.2931  0.0832
  775loPI    C211718  16.455  13.282   4.556 -0.2165  0.1912 -0.0119
  775loPI    C311719  16.142  13.084   4.707 -0.1246  0.2796  0.3034
  775loPI   PO411720  16.511  13.389   5.047  0.1192 -0.0880 -0.0131
  775loPI   GL111721  16.605  13.572   5.369 -0.1079 -0.2671 -0.1784
  775loPI   GL211722  16.710  13.895   5.586 -0.2184 -0.0937 -0.0704
  775loPI   C1A11723  16.970  13.415   5.672 -0.0378 -0.3119  0.1367
  775loPI   C2A11724  17.160  13.046   5.947 -0.2436 -0.2371 -0.0993
  775loPI   C3A11725  17.079  13.151   6.354 -0.2611  0.1883 -0.0532
  775loPI   C4A11726  16.932  13.148   6.764  0.0618  0.0538  0.1950
  775loPI   C5A11727  16.965  13.380   7.044  0.1599  0.0926 -0.1333
  775loPI   C6A11728  17.046  13.514   7.501  0.0122 -0.1096  0.0440
  775loPI   C1B11729  17.041  13.964   5.968 -0.1129 -0.2141  0.0377
  775loPI   C2B11730  17.131  14.139   6.276 -0.2754 -0.0363  0.0732
  775loPI   C3B11731  17.124  14.464   6.480 -0.0804 -0.1309 -0.2314
  775loPI   C4B11732  16.972  14.551   6.873 -0.0356 -0.0748  0.0180
  776loPI    C111733  10.754   3.258   4.534 -0.0510  0.0929  0.0500
  776loPI    C211734  10.356   3.288   4.518 -0.0597 -0.0371  0.0140
  776loPI    C311735  10.569   3.267   4.180 -0.0273 -0.0314  0.0340
  776loPI   PO411736  10.769   3.444   4.850  0.0195 -0.1053 -0.2287
  776loPI   GL111737  10.800   3.651   5.245 -0.3533 -0.0361 -0.1028
  776loPI   GL211738  11.109   3.690   5.215 -0.1799 -0.0402 -0.3841
  776loPI   C1A11739  10.719   3.493   5.681  0.0816 -0.0238 -0.1197
  776loPI   C2A11740  11.015   3.227   5.948  0.0485  0.0824  0.1488
  776loPI   C3A11741  11.129   3.236   6.376  0.0118 -0.1240  0.2709
  776loPI   C4A11742  11.147   3.079   6.751 -0.0114  0.1880  0.0631
  776loPI   C5A11743  11.478   2.922   6.995 -0.0611 -0.3381  0.2596
  776loPI   C6A11744  11.879   2.689   7.124  0.1949 -0.3028 -0.1019
  776loPI   C1B11745  11.199   3.354   5.496 -0.0204  0.2608  0.1702
  776loPI   C2B11746  11.459   3.074   5.709  0.1361  0.0859 -0.0791
  776loPI   C3B11747  11.484   2.873   6.041 -0.0689 -0.3657  0.3759
  776loPI   C4B11748  11.445   2.828   6.448 -0.1607 -0.4526  0.1780
  777loPI    C111749   6.759   9.309   5.058  0.1542  0.2058  0.0272
  777loPI    C211750   6.706   9.119   5.406  0.0088  0.3807  0.1018
  777loPI    C311751   7.063   9.276   5.316  0.1619 -0.0182 -0.0085
  777loPI   PO411752   6.553   9.453   5.096  0.0485 -0.0668 -0.0241
  777loPI   GL111753   6.316   9.672   5.401  0.1995  0.1942  0.2448
  777loPI   GL211754   6.297   9.329   5.596  0.3026 -0.1183  0.1245
  777loPI   C1A11755   6.360   9.898   5.853  0.4651 -0.1536 -0.0642
  777loPI   C2A11756   6.282  10.012   6.254  0.1127  0.0024  0.1185
  777loPI   C3A11757   6.349   9.907   6.733 -0.3195 -0.0957  0.0032
  777loPI   C4A11758   6.579   9.953   7.093 -0.1500  0.1864  0.1201
  777loPI   C5A11759   7.025   9.893   7.102  0.2973 -0.0590  0.1919
  777loPI   C6A11760   7.247  10.062   7.334 -0.0382 -0.0736  0.1914
  777loPI   C1B11761   6.471   9.354   6.004 -0.2642 -0.2725  0.1432
  777loPI   C2B11762   6.585   9.563   6.337 -0.0039 -0.3377 -0.1555
  777loPI   C3B11763   6.729   9.611   6.773 -0.0138 -0.4807  0.1634
  777loPI   C4B11764   6.711   9.484   7.178  0.1309 -0.0923 -0.1526
  778loPI    C111765  12.573  15.884   4.451 -0.1636 -0.0683 -0.1347
  778loPI    C211766  12.258  15.993   4.229  0.0468  0.2843 -0.2688
  778loPI    C311767  12.535  15.749   4.076 -0.1859 -0.0738 -0.1305
  778loPI   PO411768  12.536  15.791   4.672  0.1442 -0.1649 -0.0450
  778loPI   GL111769  12.475  15.894   5.109  0.0696 -0.0015  0.0439
  778loPI   GL211770  12.826  16.034   5.320  0.0606 -0.1594  0.2039
  778loPI   C1A11771  12.060  15.946   5.469 -0.1813 -0.1793  0.0383
  778loPI   C2A11772  11.934  16.177   5.884 -0.0585 -0.2357  0.0397
  778loPI   C3A11773  11.607  16.189   6.146  0.0385 -0.0717 -0.1723
  778loPI   C4A11774  11.504  16.075   6.477 -0.0078 -0.1721 -0.3310
  778loPI   C5A11775  11.465  15.690   6.486 -0.1917 -0.0242  0.2272
  778loPI   C6A11776  11.505  15.344   6.220  0.5193 -0.0367 -0.1258
  778loPI   C1B11777  12.758  16.310   5.599  0.0207  0.1993 -0.0448
  778loPI   C2B11778  12.789  16.339   6.031  0.0306 -0.0503  0.0726
  778loPI   C3B11779  12.765  16.143   6.395 -0.1381 -0.0306  0.1468
  778loPI   C4B11780  12.955  16.212   6.775 -0.3797  0.1560  0.0062
  779loPI    C111781   9.636  15.379   4.796 -0.1879 -0.2175  0.0412
  779loPI    C211782   9.584  15.212   4.436  0.2052 -0.0124 -0.1184
  779loPI    C311783   9.439  15.577   4.510  0.0420 -0.0930 -0.0342
  779loPI   PO411784   9.496  15.210   4.938 -0.1988 -0.0718  0.0164
  779loPI   GL111785   9.419  15.231   5.293  0.0900  0.0595 -0.0994
  779loPI   GL211786   9.166  15.403   5.473  0.0947  0.1508 -0.3206
  779loPI   C1A11787   9.519  14.907   5.727 -0.1970 -0.3157 -0.3952
  779loPI   C2A11788   9.501  14.954   6.123 -0.3171  0.0864  0.0162
  779loPI   C3A11789   9.578  15.152   6.407  0.2010  0.0746  0.0891
  779loPI   C4A11790   9.472  15.274   6.876 -0.2394  0.0280 -0.1548
  779loPI   C5A11791   9.831  15.130   7.177  0.0633 -0.0611  0.1130
  779loPI   C6A11792  10.202  15.067   7.314 -0.1869 -0.2665  0.0089
  779loPI   C1B11793   9.155  15.342   5.852 -0.0476 -0.2152 -0.0327
  779loPI   C2B11794   9.039  15.206   6.256  0.0118  0.0224 -0.2342
  779loPI   C3B11795   8.621  15.022   6.511 -0.2768  0.4221  0.0064
  779loPI   C4B11796   8.519  14.830   6.954  0.1216 -0.3149 -0.1866
  780loPI    C111797  13.896  18.001   4.539  0.1362 -0.0415 -0.0221
  780loPI    C211798  14.278  18.051   4.434  0.0477 -0.0228 -0.3446
  780loPI    C311799  14.014  18.346   4.377  0.0876  0.1730  0.3858
  780loPI   PO411800  13.909  17.915   4.906 -0.4148 -0.0690 -0.0838
  780loPI   GL111801  13.792  18.057   5.316 -0.0855 -0.1438 -0.0943
  780loPI   GL211802  14.194  18.042   5.377 -0.0738 -0.2314 -0.0837
  780loPI   C1A11803  13.568  18.191   5.677  0.1998 -0.2391  0.2301
  780loPI   C2A11804  13.469  18.228   6.110  0.1656  0.1872 -0.0463
  780loPI   C3A11805  13.698  18.191   6.508  0.0080 -0.2235 -0.0513
  780loPI   C4A11806  13.847  18.058   6.848 -0.2368 -0.2228  0.2504
  780loPI   C5A11807  13.905  17.814   7.136 -0.1834 -0.2131  0.0402
  780loPI   C6A11808  14.020  17.405   7.226 -0.1560 -0.0133  0.4348
  780loPI   C1B11809  14.062  18.110   5.724 -0.1812 -0.1724  0.1588
  780loPI   C2B11810  14.068  18.161   6.196 -0.2497 -0.1213 -0.1141
  780loPI   C3B11811  14.237  17.983   6.495  0.2138  0.0659 -0.2287
  780loPI   C4B11812  14.353  17.801   6.840 -0.1626 -0.1723 -0.1043
  781loPI    C111813   5.444  14.351   4.847 -0.2728  0.0364 -0.2113
  781loPI    C211814   5.342  14.396   4.463  0.0438 -0.1202 -0.3174
  781loPI    C311815   5.481  14.044   4.592  0.1112 -0.0149 -0.0994
  781loPI   PO411816   5.558  14.520   4.916 -0.0236 -0.0289  0.0928
  781loPI   GL111817   5.557  14.679   5.395 -0.1107 -0.1652  0.0955
  781loPI   GL211818   5.777  14.502   5.554  0.0787  0.1844 -0.0513
  781loPI   C1A11819   5.514  14.865   5.799 -0.1153 -0.2391  0.1657
  781loPI   C2A11820   5.461  14.864   6.254 -0.0235  0.1280 -0.0585
  781loPI   C3A11821   5.116  14.748   6.564 -0.1435  0.1595  0.0143
  781loPI   C4A11822   5.030  14.788   6.981  0.4155  0.0800 -0.2921
  781loPI   C5A11823   4.955  14.541   7.378  0.1936  0.1457  0.0171
  781loPI   C6A11824   5.142  14.404   7.743  0.1979  0.2362 -0.3987
  781loPI   C1B11825   5.588  14.374   5.963 -0.0026  0.1183  0.0224
  781loPI   C2B11826   5.485  14.344   6.410  0.2732 -0.1153 -0.0796
  781loPI   C3B11827   5.273  14.342   6.959  0.2461  0.0405  0.0777
  781loPI   C4B11828   5.591  14.389   7.433  0.0900  0.1719  0.1890
  782loPI    C111829  10.544  18.294   4.413 -0.0921  0.1750 -0.0652
  782loPI    C211830  10.559  18.172   4.033 -0.3546  0.0932 -0.0508
  782loPI    C311831  10.398  17.936   4.313 -0.0913  0.1202  0.1264
  782loPI   PO411832  10.832  18.417   4.549  0.2580 -0.0913  0.1001
  782loPI   GL111833  11.028  18.296   4.972 -0.0923 -0.2041 -0.0886
  782loPI   GL211834  10.690  18.323   5.032  0.0029 -0.0477 -0.1628
  782loPI   C1A11835  11.219  18.146   5.332 -0.1552 -0.0607 -0.0283
  782loPI   C2A11836  11.428  18.096   5.799  0.0024 -0.1049  0.1278
  782loPI   C3A11837  11.387  18.107   6.182  0.1246  0.2030 -0.1322
  782loPI   C4A11838  11.604  18.046   6.592  0.1823 -0.0657  0.0331
  782loPI   C5A11839  11.641  17.768   6.896  0.0046  0.4370  0.0085
  782loPI   C6A11840  11.831  17.303   7.014  0.0783  0.1992 -0.0461
  782loPI   C1B11841  10.772  18.257   5.410 -0.1228  0.0739  0.2309
  782loPI   C2B11842  10.836  18.316   5.869 -0.0151  0.0653  0.0719
  782loPI   C3B11843  10.894  18.377   6.300 -0.0128  0.1869 -0.0230
  782loPI   C4B11844  11.167  18.328   6.634  0.0371  0.0465 -0.0072
  783loPI    C111845   5.374   1.051   4.827  0.0404  0.0345 -0.2505
  783loPI    C211846   5.240   0.676   4.791 -0.0853  0.0761 -0.2213
  783loPI    C311847   4.990   0.984   4.735 -0.0656  0.1521  0.0874
  783loPI   PO411848   5.523   1.097   5.034  0.2908 -0.1189  0.2010
  783loPI   GL111849   5.301   1.267   5.354 -0.1637  0.1127 -0.1801
  783loPI   GL211850   5.021   1.042   5.287 -0.1092  0.2803  0.2263
  783loPI   C1A11851   5.175   1.125   5.719 -0.1100 -0.0816  0.1380
  783loPI   C2A11852   5.265   0.843   5.933  0.3630  0.0304 -0.0776
  783loPI   C3A11853   5.178   0.539   6.306 -0.0944 -0.1851 -0.0056
  783loPI   C4A11854   5.242   0.482   6.713  0.1300  0.0612  0.2619
  783loPI   C5A11855   5.488   0.626   6.997 -0.1632  0.0066 -0.1039
  783loPI   C6A11856   5.577   0.987   7.063 -0.0859  0.1845  0.1729
  783loPI   C1B11857   4.988   0.603   5.586  0.0947  0.1361 -0.1037
  783loPI   C2B11858   5.148   0.310   5.912 -0.0058  0.2570 -0.2034
  783loPI   C3B11859   4.986  -0.092   6.064 -0.1437 -0.0759  0.1674
  783loPI   C4B11860   4.797  -0.288   6.397  0.0494 -0.0674 -0.1393
  784loPI    C111861  16.736  14.243   5.067  0.3571 -0.0356 -0.0936
  784loPI    C211862  16.577  13.887   4.979 -0.2486  0.1790  0.0831
  784loPI    C311863  16.779  14.090   4.700 -0.2878 -0.1002 -0.1539
  784loPI   PO411864  16.924  14.150   5.249 -0.1825  0.1216 -0.1459
  784loPI   GL111865  16.999  14.331   5.624  0.0711  0.1775  0.0005
  784loPI   GL211866  16.641  14.373   5.584  0.1453 -0.0033 -0.2708
  784loPI   C1A11867  17.102  14.561   6.018  0.1363 -0.0028 -0.2464
  784loPI   C2A11868  16.895  14.830   6.290 -0.0660  0.0707  0.1233
  784loPI   C3A11869  17.099  14.997   6.604  0.1244 -0.0796  0.0305
  784loPI   C4A11870  17.182  15.061   7.012 -0.1716 -0.2505  0.2958
  784loPI   C5A11871  17.551  15.131   7.290  0.2094  0.2471  0.1354
  784loPI   C6A11872  17.825  14.868   7.168 -0.0178 -0.1249 -0.1077
  784loPI   C1B11873  16.640  14.356   6.020  0.0169  0.3139  0.0332
  784loPI   C2B11874  16.606  14.401   6.440  0.0153  0.1038  0.1545
  784loPI   C3B11875  16.444  14.451   6.945  0.0789 -0.1681 -0.0496
  784loPI   C4B11876  16.726  14.416   7.357  0.0148 -0.0028 -0.1709
  785loPI    C111877   1.378   6.463   4.804  0.2129 -0.0746 -0.1542
  785loPI    C211878   1.109   6.191   4.687  0.0714  0.0415 -0.1030
  785loPI    C311879   1.388   6.320   4.430 -0.0592  0.0837 -0.2252
  785loPI   PO411880   1.500   6.393   5.057 -0.0075 -0.2012 -0.2439
  785loPI   GL111881   1.462   6.397   5.458 -0.1185 -0.1546  0.1556
  785loPI   GL211882   1.303   6.147   5.606 -0.1513  0.2666 -0.0460
  785loPI   C1A11883   1.628   6.525   5.892  0.0046  0.0618  0.0887
  785loPI   C2A11884   2.020   6.691   6.219 -0.0452 -0.0011 -0.1399
  785loPI   C3A11885   2.145   6.884   6.572  0.0177  0.0165  0.1543
  785loPI   C4A11886   2.069   7.113   6.979 -0.1336  0.0684 -0.1149
  785loPI   C5A11887   2.181   7.184   7.410  0.1090  0.0176 -0.1924
  785loPI   C6A11888   2.188   7.230   7.813 -0.1768 -0.2810 -0.1950
  785loPI   C1B11889   1.443   5.990   5.943  0.2289  0.1364  0.0246
  785loPI   C2B11890   1.402   5.850   6.374 -0.1746  0.0436 -0.1740
  785loPI   C3B11891   1.355   5.730   6.781 -0.0964  0.0553 -0.0498
  785loPI   C4B11892   1.362   5.782   7.237 -0.3464  0.1075 -0.2446
  786loPI    C111893  15.407   4.042   4.741  0.0668 -0.0481 -0.1709
  786loPI    C211894  15.542   4.333   4.981  0.1092  0.0129 -0.2677
  786loPI    C311895  15.428   4.419   4.607 -0.0711 -0.0614 -0.2308
  786loPI   PO411896  15.421   3.816   4.929 -0.0283 -0.2940 -0.2304
  786loPI   GL111897  15.294   3.721   5.369  0.2487 -0.2500 -0.2053
  786loPI   GL211898  15.498   3.926   5.396  0.3253 -0.0096 -0.2325
  786loPI   C1A11899  15.211   3.892   5.887 -0.0558 -0.1982 -0.2557
  786loPI   C2A11900  15.192   3.837   6.277 -0.1095  0.2350  0.1675
  786loPI   C3A11901  15.201   3.780   6.768  0.2366 -0.3782  0.0294
  786loPI   C4A11902  15.122   3.633   7.165 -0.1004 -0.1597  0.2372
  786loPI   C5A11903  14.752   3.487   7.320 -0.0251  0.0383  0.4689
  786loPI   C6A11904  14.430   3.325   7.602 -0.1437  0.0506  0.0947
  786loPI   C1B11905  15.339   4.264   5.492 -0.1407  0.3885 -0.2681
  786loPI   C2B11906  15.134   4.416   5.884 -0.1361  0.0408  0.0441
  786loPI   C3B11907  15.017   4.483   6.242  0.0941  0.1580 -0.1938
  786loPI   C4B11908  14.917   4.698   6.585 -0.1810 -0.1423  0.1090
  787loPI    C111909   6.593  11.994   5.001  0.0840  0.0791 -0.0386
  787loPI    C211910   6.792  11.748   4.757  0.1446 -0.0292  0.1189
  787loPI    C311911   6.452  11.919   4.634  0.3084  0.1211 -0.1348
  787loPI   PO411912   6.815  12.083   5.137 -0.0402 -0.0336  0.0395
  787loPI   GL111913   6.891  12.143   5.544 -0.0820 -0.4003  0.0773
  787loPI   GL211914   6.989  12.379   5.556  0.1489 -0.3301 -0.1370
  787loPI   C1A11915   6.870  12.202   5.998 -0.0101  0.2088 -0.1517
  787loPI   C2A11916   6.912  12.488   6.415  0.0913 -0.3060  0.2209
  787loPI   C3A11917   6.734  12.812   6.644 -0.0225  0.0239  0.0090
  787loPI   C4A11918   6.376  12.823   6.993  0.0223  0.1113  0.1872
  787loPI   C5A11919   5.920  12.710   7.159 -0.0161 -0.1623  0.0167
  787loPI   C6A11920   5.549  12.465   7.260  0.2656 -0.2981 -0.0916
  787loPI   C1B11921   7.130  12.612   5.935 -0.3309  0.0634  0.0162
  787loPI   C2B11922   7.375  12.447   6.258 -0.2499  0.0791 -0.2477
  787loPI   C3B11923   7.362  12.305   6.688 -0.0497 -0.0044 -0.0999
  787loPI   C4B11924   7.459  12.420   7.117 -0.1260  0.1352 -0.0721
  788loPI    C111925   8.803  14.609   4.588  0.0922 -0.1424  0.1497
  788loPI    C211926   8.608  14.262   4.544  0.3405 -0.2643 -0.0143
  788loPI    C311927   8.510  14.577   4.318  0.0834 -0.2106  0.1671
  788loPI   PO411928   8.763  14.678   4.808  0.1687  0.3975  0.0244
  788loPI   GL111929   8.892  14.651   5.209  0.0029 -0.1412  0.1632
  788loPI   GL211930   9.061  14.900   5.425  0.2811  0.1200 -0.0962
  788loPI   C1A11931   9.092  14.396   5.491 -0.3344 -0.1019  0.0037
  788loPI   C2A11932   9.156  14.340   5.905 -0.1271 -0.2008  0.0466
  788loPI   C3A11933   9.257  14.427   6.302 -0.1369  0.0017  0.5474
  788loPI   C4A11934   9.233  14.758   6.533  0.2330 -0.0024  0.0862
  788loPI   C5A11935   9.011  15.033   6.813 -0.2588 -0.0411 -0.0032
  788loPI   C6A11936   9.102  15.164   7.203  0.0443  0.2090 -0.2673
  788loPI   C1B11937   9.032  14.814   5.863  0.2029 -0.2246  0.0834
  788loPI   C2B11938   8.812  14.680   6.224 -0.3207 -0.2732 -0.0229
  788loPI   C3B11939   8.759  14.536   6.528  0.0765  0.2704  0.1814
  788loPI   C4B11940   9.018  14.441   6.824 -0.1160  0.1930  0.1004
  789loPI    C111941   3.789  16.449   4.631  0.0799  0.1990 -0.0424
  789loPI    C211942   3.656  16.128   4.433  0.0158  0.2207 -0.0345
  789loPI    C311943   3.972  16.330   4.295  0.1892  0.0284  0.0756
  789loPI   PO411944   3.847  16.426   4.910 -0.2814 -0.4127  0.0908
  789loPI   GL111945   3.855  16.328   5.337 -0.3020 -0.1309 -0.0546
  789loPI   GL211946   3.647  16.583   5.361  0.0648 -0.0007  0.0760
  789loPI   C1A11947   3.782  16.322   5.761  0.0473 -0.0903 -0.0317
  789loPI   C2A11948   3.860  16.450   6.252 -0.0210  0.0184 -0.0229
  789loPI   C3A11949   3.951  16.543   6.689 -0.2367 -0.3421  0.1361
  789loPI   C4A11950   4.223  16.778   7.119 -0.0216 -0.0997 -0.2491
  789loPI   C5A11951   4.569  17.057   7.254  0.1572  0.1043 -0.1116
  789loPI   C6A11952   4.882  16.998   7.549 -0.1692  0.1408 -0.3394
  789loPI   C1B11953   3.797  16.846   5.698 -0.1692  0.1466  0.1364
  789loPI   C2B11954   3.826  16.958   6.104 -0.0800 -0.1467 -0.1537
  789loPI   C3B11955   3.737  17.087   6.459  0.2156  0.0715 -0.0055
  789loPI   C4B11956   3.565  17.006   6.793  0.3004 -0.0079  0.0548
  790loPI    C111957  16.863   2.802   5.103 -0.1491  0.1502 -0.0937
  790loPI    C211958  17.261   2.792   5.069 -0.1111  0.3733  0.2338
  790loPI    C311959  17.033   2.585   4.814  0.2222  0.0173  0.2151
  790loPI   PO411960  16.817   2.740   5.345  0.0149 -0.2363  0.1695
  790loPI   GL111961  16.537   2.795   5.721  0.0524  0.1814  0.0074
  790loPI   GL211962  16.366   3.062   5.765  0.0828  0.0988 -0.0379
  790loPI   C1A11963  16.560   2.788   6.213  0.0064  0.1146  0.0018
  790loPI   C2A11964  16.842   2.752   6.631  0.2968  0.0106  0.0628
  790loPI   C3A11965  17.070   2.790   7.030 -0.0440  0.1218 -0.3433
  790loPI   C4A11966  17.179   3.048   7.378  0.2361 -0.1180 -0.1402
  790loPI   C5A11967  17.540   3.430   7.578  0.0660 -0.1201 -0.1976
  790loPI   C6A11968  17.952   3.647   7.678 -0.3776  0.0498 -0.3549
  790loPI   C1B11969  16.506   3.300   6.184  0.1437 -0.0663 -0.3200
  790loPI   C2B11970  16.512   3.219   6.576  0.0099 -0.0942 -0.0034
  790loPI   C3B11971  16.542   2.997   7.012  0.1716  0.2400  0.1300
  790loPI   C4B11972  16.734   2.931   7.467 -0.0085  0.1049 -0.2825
  791loPI    C111973  14.318  11.606   4.950 -0.0150 -0.0355  0.0819
  791loPI    C211974  14.488  11.647   4.591 -0.0816 -0.1002  0.0426
  791loPI    C311975  14.201  11.900   4.706 -0.0626 -0.0816  0.0491
  791loPI   PO411976  14.354  11.616   5.123 -0.2410 -0.0196  0.1952
  791loPI   GL111977  14.238  11.699   5.516  0.1456  0.4806 -0.2409
  791loPI   GL211978  14.244  11.369   5.744  0.1108 -0.0338  0.2492
  791loPI   C1A11979  14.426  11.866   5.862  0.0738  0.3082  0.0255
  791loPI   C2A11980  14.473  11.896   6.242  0.0632 -0.0391 -0.0487
  791loPI   C3A11981  14.446  11.877   6.674  0.1492  0.1785 -0.0829
  791loPI   C4A11982  14.351  11.786   7.130 -0.0154 -0.3231  0.0368
  791loPI   C5A11983  14.512  11.708   7.460  0.4458 -0.1878 -0.0846
  791loPI   C6A11984  14.399  11.939   7.828 -0.0331  0.0808 -0.0204
  791loPI   C1B11985  14.113  11.480   6.097  0.0288 -0.0062  0.2177
  791loPI   C2B11986  14.040  11.627   6.470 -0.3692 -0.1826  0.0810
  791loPI   C3B11987  13.920  11.700   6.848  0.0411  0.1214 -0.0971
  791loPI   C4B11988  13.774  11.402   7.192 -0.1356  0.0373 -0.0809
  792loPI    C111989   5.933   6.334   4.900  0.0257 -0.1873 -0.1082
  792loPI    C211990   6.068   6.622   4.657  0.2837 -0.0935  0.1409
  792loPI    C311991   6.072   6.241   4.537 -0.0389 -0.0006 -0.1825
  792loPI   PO411992   5.915   6.414   5.126  0.3964  0.4551  0.0187
  792loPI   GL111993   5.838   6.151   5.410  0.1917 -0.1004 -0.0566
  792loPI   GL211994   5.912   5.895   5.163 -0.1837  0.0700 -0.1853
  792loPI   C1A11995   5.675   6.121   5.749 -0.2480 -0.0675  0.4184
  792loPI   C2A11996   5.643   6.236   6.184 -0.1906 -0.3586 -0.2042
  792loPI   C3A11997   5.682   6.378   6.565 -0.1400  0.2392  0.1964
  792loPI   C4A11998   5.755   6.259   6.903  0.0023 -0.1672  0.0228
  792loPI   C5A11999   5.793   5.911   7.165  0.4767  0.2366 -0.2641
  792loPI   C6A12000   5.964   5.504   7.295 -0.2185 -0.1380 -0.0864
  792loPI   C1B12001   5.918   5.663   5.471 -0.2567 -0.0560  0.1769
  792loPI   C2B12002   5.609   5.571   5.788  0.0165 -0.0907 -0.2572
  792loPI   C3B12003   5.494   5.723   6.222 -0.2720 -0.4579 -0.4590
  792loPI   C4B12004   5.581   5.899   6.603  0.3023 -0.1095  0.3326
  793loPI    C112005   9.366   2.427   4.774  0.1977 -0.0513 -0.0614
  793loPI    C212006   9.068   2.281   4.552 -0.1079  0.3597  0.0669
  793loPI    C312007   9.358   2.495   4.380 -0.0482  0.2163 -0.0131
  793loPI   PO412008   9.243   2.442   4.996  0.1975 -0.0691 -0.1511
  793loPI   GL112009   9.054   2.607   5.259 -0.2718  0.0185  0.3195
  793loPI   GL212010   9.215   2.832   5.473 -0.1511  0.2770 -0.3245
  793loPI   C1A12011   9.040   2.367   5.793  0.1395  0.0037 -0.0478
  793loPI   C2A12012   9.010   2.181   6.158 -0.1451 -0.2043  0.1164
  793loPI   C3A12013   9.093   2.073   6.584 -0.1585  0.2828 -0.5887
  793loPI   C4A12014   9.354   1.750   6.882 -0.0578 -0.3736  0.0868
  793loPI   C5A12015   9.430   1.390   7.197 -0.1759 -0.2663  0.1771
  793loPI   C6A12016   9.388   1.270   7.630 -0.1510 -0.0623  0.0592
  793loPI   C1B12017   9.201   2.876   5.919  0.1340 -0.1875  0.0036
  793loPI   C2B12018   9.071   2.713   6.268 -0.2810 -0.4114  0.1667
  793loPI   C3B12019   9.129   2.556   6.601 -0.0952  0.1663  0.2361
  793loPI   C4B12020   9.162   2.528   7.003  0.3176 -0.0790 -0.0265
  794loPI    C112021   6.072  14.963   4.806  0.1848 -0.1057  0.1518
  794loPI    C212022   6.432  14.835   4.686  0.2682  0.2335  0.0275
  794loPI    C312023   6.153  14.930   4.415  0.1104  0.0491  0.1226
  794loPI   PO412024   6.161  15.100   5.015  0.0604 -0.1441 -0.0668
  794loPI   GL112025   6.095  15.052   5.390 -0.1919  0.0118 -0.0080
  794loPI   GL212026   5.810  15.105   5.466  0.0399 -0.0830  0.0289
  794loPI   C1A12027   6.215  15.364   5.634  0.0619 -0.0446 -0.0820
  794loPI   C2A12028   6.101  15.533   6.067  0.1202  0.0119 -0.1009
  794loPI   C3A12029   6.074  15.808   6.402  0.2623 -0.0226  0.1146
  794loPI   C4A12030   6.027  15.717   6.887  0.2980 -0.0503 -0.0429
  794loPI   C5A12031   5.830  15.609   7.177 -0.1145 -0.5723 -0.0243
  794loPI   C6A12032   5.936  15.297   7.531  0.1744 -0.1382 -0.0657
  794loPI   C1B12033   5.858  15.173   5.921 -0.0594  0.1359 -0.3486
  794loPI   C2B12034   5.787  15.270   6.367  0.0276  0.0162  0.3987
  794loPI   C3B12035   5.582  15.561   6.685 -0.1757  0.0354  0.3263
  794loPI   C4B12036   5.539  15.923   6.905 -0.1364  0.2801  0.1645
  795loPI    C112037  16.156   3.198   4.888  0.0464 -0.2843 -0.0192
  795loPI    C212038  15.850   3.220   4.631 -0.0507 -0.0731  0.1119
  795loPI    C312039  16.211   3.354   4.523 -0.0059 -0.3076 -0.0371
  795loPI   PO412040  16.091   3.275   5.137 -0.1394 -0.1974 -0.2968
  795loPI   GL112041  16.247   3.495   5.479  0.0777 -0.0164 -0.0998
  795loPI   GL212042  16.508   3.542   5.721 -0.0405 -0.1760  0.1073
  795loPI   C1A12043  16.143   3.694   5.935 -0.0500 -0.2629 -0.1371
  795loPI   C2A12044  16.048   3.592   6.397 -0.0314  0.0277  0.0410
  795loPI   C3A12045  16.054   3.291   6.779 -0.0745  0.0248 -0.1772
  795loPI   C4A12046  15.936   3.108   7.197 -0.1576  0.0154  0.1575
  795loPI   C5A12047  15.852   3.295   7.596 -0.1597  0.0850  0.1882
  795loPI   C6A12048  16.019   3.587   7.686 -0.4163 -0.1470  0.1750
  795loPI   C1B12049  16.605   3.816   6.159  0.1664 -0.0995 -0.0380
  795loPI   C2B12050  16.548   4.135   6.467  0.3647  0.1797 -0.0166
  795loPI   C3B12051  16.328   4.260   6.873 -0.0754  0.0665  0.1486
  795loPI   C4B12052  16.052   4.181   7.224  0.0247 -0.1994 -0.2427
  796loPI    C112053   2.406   5.343   4.573  0.1158 -0.1325 -0.0401
  796loPI    C212054   2.319   5.003   4.382  0.1487 -0.0742 -0.1591
  796loPI    C312055   2.080   5.322   4.343  0.2051 -0.0340 -0.1770
  796loPI   PO412056   2.494   5.181   4.871 -0.0501 -0.2189  0.2903
  796loPI   GL112057   2.448   5.193   5.336  0.1540  0.0952  0.0839
  796loPI   GL212058   2.597   5.044   5.586 -0.1518 -0.2301  0.2311
  796loPI   C1A12059   2.206   5.259   5.728  0.0407  0.0619  0.0701
  796loPI   C2A12060   2.292   5.255   6.104  0.0918 -0.1870  0.4424
  796loPI   C3A12061   2.090   5.079   6.386  0.2435 -0.1296 -0.1509
  796loPI   C4A12062   1.997   4.906   6.761  0.1845 -0.0836 -0.4207
  796loPI   C5A12063   2.038   4.749   7.151 -0.0581 -0.1537 -0.0066
  796loPI   C6A12064   1.919   4.370   7.223 -0.1738  0.0682  0.2329
  796loPI   C1B12065   2.759   4.968   5.953 -0.0225 -0.0796 -0.2229
  796loPI   C2B12066   2.725   4.979   6.369  0.0232  0.0517 -0.1268
  796loPI   C3B12067   2.501   5.044   6.748 -0.3393  0.0262 -0.0215
  796loPI   C4B12068   2.283   5.316   7.022  0.3371 -0.1748  0.2034
  797loPI    C112069   1.275   4.635   4.692 -0.3238  0.0125  0.1184
  797loPI    C212070   1.206   4.265   4.557 -0.0980 -0.0095  0.0606
  797loPI    C312071   1.001   4.573   4.407 -0.1840 -0.0932  0.0054
  797loPI   PO412072   1.288   4.599   4.900 -0.3778  0.3984 -0.0433
  797loPI   GL112073   1.757   4.591   5.219 -0.0182 -0.1939 -0.0593
  797loPI   GL212074   1.621   4.734   5.414  0.1192 -0.0634 -0.0019
  797loPI   C1A12075   1.417   4.285   5.430  0.0034  0.0837  0.0777
  797loPI   C2A12076   1.368   3.890   5.691  0.0117 -0.1683  0.1939
  797loPI   C3A12077   1.494   3.812   6.101 -0.0201  0.0038 -0.1876
  797loPI   C4A12078   1.555   3.798   6.533  0.5263 -0.1484 -0.2498
  797loPI   C5A12079   1.787   3.503   6.806 -0.1089 -0.0225  0.3222
  797loPI   C6A12080   1.881   3.230   7.067  0.1074  0.1552 -0.0301
  797loPI   C1B12081   1.565   4.551   5.814 -0.1795 -0.0640  0.1200
  797loPI   C2B12082   1.411   4.381   6.224 -0.1788  0.0722 -0.0172
  797loPI   C3B12083   1.274   4.407   6.693  0.1018 -0.0187  0.3261
  797loPI   C4B12084   1.084   4.201   7.005  0.0136 -0.2429  0.3390
  798loPI    C112085  12.498   3.587   4.900  0.0584 -0.2101 -0.1633
  798loPI    C212086  12.891   3.650   4.863  0.0294  0.2353  0.1955
  798loPI    C312087  12.633   3.865   4.646 -0.0226 -0.0009  0.0191
  798loPI   PO412088  12.448   3.561   5.187 -0.0235 -0.0600 -0.1745
  798loPI   GL112089  12.560   3.456   5.575  0.1862  0.3866 -0.3988
  798loPI   GL212090  12.815   3.315   5.628  0.0470 -0.1477 -0.0050
  798loPI   C1A12091  12.088   3.507   5.783 -0.1633 -0.1219 -0.1198
  798loPI   C2A12092  12.057   3.659   6.149 -0.0554  0.2509 -0.1077
  798loPI   C3A12093  11.965   3.765   6.514 -0.1053 -0.0699 -0.0345
  798loPI   C4A12094  11.856   3.940   6.944  0.4290 -0.0214  0.3227
  798loPI   C5A12095  11.660   3.768   7.293 -0.1961 -0.0032 -0.0704
  798loPI   C6A12096  11.564   4.072   7.745  0.0784  0.2316 -0.1237
  798loPI   C1B12097  12.952   3.349   5.999  0.0145  0.2100  0.0789
  798loPI   C2B12098  12.907   3.395   6.383 -0.4063  0.1929 -0.0796
  798loPI   C3B12099  12.929   3.568   6.754 -0.4798  0.0070  0.3223
  798loPI   C4B12100  12.820   3.737   7.230 -0.2331  0.3450 -0.0398
  799loPI    C112101   1.909  16.893   4.750  0.1706  0.3742 -0.0041
  799loPI    C212102   1.892  17.154   4.448  0.0354  0.1631 -0.1824
  799loPI    C312103   1.861  16.762   4.375  0.4568  0.0787  0.0579
  799loPI   PO412104   1.811  16.821   4.927  0.1791 -0.0904 -0.1131
  799loPI   GL112105   1.712  16.813   5.387 -0.0703 -0.1269 -0.0705
  799loPI   GL212106   1.589  17.054   5.567  0.1422 -0.0874 -0.2340
  799loPI   C1A12107   1.733  16.611   5.742 -0.0809 -0.0873 -0.0038
  799loPI   C2A12108   1.562  16.649   6.039  0.2254 -0.0417  0.2953
  799loPI   C3A12109   1.427  16.945   6.229  0.0104 -0.3790 -0.1496
  799loPI   C4A12110   1.197  17.129   6.581  0.3025 -0.4280  0.0087
  799loPI   C5A12111   1.041  17.415   6.956 -0.0354 -0.0859 -0.0643
  799loPI   C6A12112   1.042  17.666   7.350 -0.0761 -0.0452 -0.0834
  799loPI   C1B12113   1.330  17.283   5.824 -0.3815  0.4566 -0.1535
  799loPI   C2B12114   1.306  17.499   6.197 -0.0517  0.1380 -0.0908
  799loPI   C3B12115   1.377  17.609   6.646  0.2069 -0.2244 -0.1312
  799loPI   C4B12116   1.412  17.838   7.024  0.0782 -0.0864 -0.1992
  800loPI    C112117   8.039   2.707   4.503  0.1141  0.0770 -0.1677
  800loPI    C212118   8.109   3.100   4.480 -0.0021  0.1137  0.0816
  800loPI    C312119   8.068   2.885   4.146 -0.5773  0.4296 -0.0656
  800loPI   PO412120   8.312   2.675   4.804  0.0907  0.4644  0.0384
  800loPI   GL112121   8.297   2.703   5.159 -0.2214  0.0856  0.1452
  800loPI   GL212122   8.621   2.809   5.284 -0.3951  0.0532  0.1212
  800loPI   C1A12123   8.233   2.833   5.585 -0.0097 -0.0410  0.0423
  800loPI   C2A12124   8.218   2.837   6.059 -0.0514 -0.1470  0.1158
  800loPI   C3A12125   8.207   2.842   6.551  0.3155  0.0777  0.1050
  800loPI   C4A12126   8.352   2.794   6.904 -0.2307 -0.0166 -0.1433
  800loPI   C5A12127   8.624   2.738   7.188  0.0811 -0.1808  0.1352
  800loPI   C6A12128   8.970   2.763   7.476 -0.1533 -0.1995  0.3077
  800loPI   C1B12129   8.678   2.682   5.725  0.0361  0.1381  0.2213
  800loPI   C2B12130   8.635   2.549   6.085  0.1556 -0.1415 -0.2296
  800loPI   C3B12131   8.607   2.414   6.552 -0.2772 -0.1689  0.0352
  800loPI   C4B12132   8.556   2.268   6.957  0.0205  0.1296  0.0132
  801loPI    C112133   5.125   6.868   4.995 -0.0904 -0.0673  0.0577
  801loPI    C212134   4.888   6.987   4.695  0.0988  0.0854 -0.0334
  801loPI    C312135   5.174   6.716   4.628  0.1325  0.1096  0.0118
  801loPI   PO412136   5.114   6.985   5.138 -0.0163 -0.2731 -0.0914
  801loPI   GL112137   5.155   6.918   5.583 -0.0023  0.0459  0.4210
  801loPI   GL212138   5.269   6.520   5.496 -0.2575  0.0240  0.0087
  801loPI   C1A12139   5.274   7.075   6.087 -0.0036  0.0004 -0.3180
  801loPI   C2A12140   5.383   7.144   6.520  0.1438 -0.0298  0.1543
  801loPI   C3A12141   5.175   7.377   6.846 -0.1194  0.1137 -0.0353
  801loPI   C4A12142   4.924   7.510   7.137 -0.2113  0.2514 -0.2857
  801loPI   C5A12143   4.912   7.686   7.365 -0.2726 -0.0642 -0.3308
  801loPI   C6A12144   4.979   7.936   7.616 -0.1370  0.3671 -0.3550
  801loPI   C1B12145   5.186   6.537   5.929 -0.3319  0.0076 -0.0778
  801loPI   C2B12146   5.117   6.595   6.280 -0.3165  0.0649  0.0350
  801loPI   C3B12147   5.170   6.489   6.649 -0.1273  0.3042 -0.1264
  801loPI   C4B12148   5.358   6.503   6.948 -0.1091 -0.0813 -0.1351
  802loPI    C112149  12.987  14.839   4.759  0.0939 -0.3155  0.1040
  802loPI    C212150  12.645  14.641   4.695  0.0129 -0.1098 -0.1140
  802loPI    C312151  12.869  14.758   4.385  0.0798  0.1035  0.0136
  802loPI   PO412152  12.911  15.070   5.024  0.2932  0.2551  0.1426
  802loPI   GL112153  12.882  15.119   5.471  0.0175  0.0063 -0.1237
  802loPI   GL212154  12.998  15.439   5.461 -0.1996 -0.2140  0.0319
  802loPI   C1A12155  12.745  15.236   5.949 -0.4930 -0.1261 -0.2676
  802loPI   C2A12156  12.754  15.226   6.346 -0.2952  0.1102 -0.1711
  802loPI   C3A12157  12.508  15.277   6.737 -0.1059  0.1181  0.2406
  802loPI   C4A12158  12.147  15.062   6.967 -0.0226  0.0985 -0.1079
  802loPI   C5A12159  11.751  15.043   7.169 -0.1031 -0.2440  0.0042
  802loPI   C6A12160  11.348  15.030   7.177  0.1820  0.0222 -0.1464
  802loPI   C1B12161  12.623  15.572   5.591 -0.0346  0.0732 -0.2493
  802loPI   C2B12162  12.440  15.914   5.796 -0.0300 -0.2479 -0.1161
  802loPI   C3B12163  12.315  16.061   6.195 -0.0108 -0.0641 -0.1373
  802loPI   C4B12164  12.069  16.302   6.478 -0.1899  0.5357 -0.2014
  803loPI    C112165  13.163  18.164   4.825 -0.1397  0.0401 -0.0974
  803loPI    C212166  13.139  18.164   4.426  0.0867 -0.2238 -0.1145
  803loPI    C312167  13.403  17.926   4.610 -0.1436 -0.2415  0.2011
  803loPI   PO412168  12.928  18.121   4.901  0.1764 -0.1062 -0.0226
  803loPI   GL112169  12.799  17.884   5.272 -0.1456 -0.0408  0.2933
  803loPI   GL212170  12.532  17.832   5.008  0.0031 -0.0772  0.0741
  803loPI   C1A12171  12.462  17.893   5.576  0.4893 -0.2762  0.2352
  803loPI   C2A12172  12.351  17.884   6.041  0.1769 -0.2776  0.0423
  803loPI   C3A12173  12.475  17.960   6.450 -0.0119  0.3073 -0.1518
  803loPI   C4A12174  12.687  18.127   6.775  0.0922 -0.2274  0.4439
  803loPI   C5A12175  12.721  17.974   7.305  0.0469 -0.2754 -0.0234
  803loPI   C6A12176  12.812  17.902   7.655 -0.3546 -0.1712 -0.2101
  803loPI   C1B12177  12.194  18.168   5.205  0.2581  0.2661  0.3252
  803loPI   C2B12178  11.875  18.205   5.543  0.0613 -0.2566  0.0996
  803loPI   C3B12179  11.915  18.119   5.964 -0.1691 -0.1388  0.1859
  803loPI   C4B12180  12.000  18.199   6.263 -0.0389 -0.4231 -0.1733
  804loPI    C112181   8.731   7.929   5.085  0.4053 -0.0192  0.2492
  804loPI    C212182   8.924   8.056   4.758 -0.2274 -0.0470 -0.1535
  804loPI    C312183   8.913   7.665   4.846 -0.1684 -0.0527 -0.1710
  804loPI   PO412184   8.791   8.066   5.352 -0.1558  0.1286 -0.1651
  804loPI   GL112185   8.942   7.977   5.816 -0.0384  0.2962  0.4790
  804loPI   GL212186   8.863   7.635   5.802 -0.0947 -0.2313 -0.1263
  804loPI   C1A12187   8.812   8.096   6.221  0.1474 -0.1293 -0.3164
  804loPI   C2A12188   8.900   8.225   6.656 -0.1886  0.4868  0.1774
  804loPI   C3A12189   9.126   8.311   7.077 -0.2019 -0.2503  0.4046
  804loPI   C4A12190   9.454   8.213   7.317  0.2708 -0.3995  0.1495
  804loPI   C5A12191   9.517   8.297   7.788 -0.0674  0.0881  0.0711
  804loPI   C6A12192   9.526   7.899   8.082 -0.0644  0.5427 -0.1699
  804loPI   C1B12193   8.825   7.628   6.193 -0.5726 -0.2901 -0.0359
  804loPI   C2B12194   8.784   7.739   6.633 -0.0622  0.3116  0.1207
  804loPI   C3B12195   8.603   7.980   7.032 -0.2117  0.0483 -0.1144
  804loPI   C4B12196   8.606   8.247   7.429 -0.1274  0.0923  0.2509
  805loPI    C112197  13.516   0.307   5.031  0.2227  0.1288  0.0975
  805loPI    C212198  13.264   0.510   5.267  0.1107 -0.0330  0.1178
  805loPI    C312199  13.173   0.448   4.882  0.0926 -0.1386  0.1386
  805loPI   PO412200  13.729   0.389   5.032 -0.2415  0.0397 -0.0257
  805loPI   GL112201  13.964   0.605   5.169  0.1300 -0.0857  0.0431
  805loPI   GL212202  13.725   0.814   5.317  0.0726  0.1353  0.1097
  805loPI   C1A12203  13.999   0.494   5.629  0.1736 -0.2206  0.2989
  805loPI   C2A12204  13.879   0.438   6.099 -0.0535  0.0050 -0.2062
  805loPI   C3A12205  13.942   0.228   6.670 -0.0472 -0.0510 -0.1223
  805loPI   C4A12206  14.114   0.221   7.124  0.1834 -0.0741 -0.1136
  805loPI   C5A12207  14.269   0.215   7.609 -0.0656  0.2433 -0.2198
  805loPI   C6A12208  14.267   0.143   8.047 -0.0644  0.1341  0.3667
  805loPI   C1B12209  13.598   0.805   5.705 -0.1539  0.3753  0.0362
  805loPI   C2B12210  13.568   0.856   6.226  0.1873 -0.1566 -0.3789
  805loPI   C3B12211  13.715   0.810   6.603 -0.2487  0.2363  0.3950
  805loPI   C4B12212  13.837   0.648   6.992  0.1819 -0.0482  0.1778
  806loPI    C112213  18.119  16.139   4.668  0.0443 -0.1694  0.0095
  806loPI    C212214  18.198  16.263   4.296 -0.0693 -0.1520 -0.0092
  806loPI    C312215  17.821  16.181   4.404 -0.0586  0.0022  0.1504
  806loPI   PO412216  18.261  16.246   4.824 -0.0598 -0.0045 -0.0876
  806loPI   GL112217  18.462  16.489   5.228 -0.2592 -0.3151  0.0958
  806loPI   GL212218  18.229  16.186   5.315 -0.0421  0.2351 -0.1393
  806loPI   C1A12219  18.556  16.763   5.536 -0.1604  0.0850 -0.0781
  806loPI   C2A12220  18.716  17.026   5.947  0.1017  0.4169  0.1487
  806loPI   C3A12221  18.801  17.068   6.360  0.1192  0.3643 -0.1889
  806loPI   C4A12222  18.841  17.104   6.699 -0.0930 -0.0137  0.1431
  806loPI   C5A12223  19.058  17.005   7.088 -0.1580  0.2305 -0.1151
  806loPI   C6A12224  19.329  16.741   7.270 -0.0860  0.0715 -0.3409
  806loPI   C1B12225  18.250  16.207   5.720 -0.2777  0.1365  0.1727
  806loPI   C2B12226  18.328  16.238   6.213  0.1277 -0.1656  0.0507
  806loPI   C3B12227  18.419  16.152   6.692  0.1607  0.0696 -0.2019
  806loPI   C4B12228  18.452  16.310   7.081 -0.1241  0.2299 -0.1607
  807loPI    C112229  11.571  13.891   4.861 -0.0241  0.0375 -0.0409
  807loPI    C212230  11.423  13.947   4.493 -0.1478 -0.0619 -0.0069
  807loPI    C312231  11.760  14.133   4.604 -0.2671  0.1975 -0.0724
  807loPI   PO412232  11.578  13.627   4.932  0.0710  0.1728  0.1811
  807loPI   GL112233  11.559  13.505   5.345 -0.2168 -0.0153  0.1444
  807loPI   GL212234  11.787  13.841   5.465 -0.0658  0.1058 -0.2665
  807loPI   C1A12235  11.523  13.442   5.819 -0.2092  0.0645  0.0093
  807loPI   C2A12236  11.451  13.571   6.172 -0.2629 -0.1601 -0.1035
  807loPI   C3A12237  11.336  13.569   6.548 -0.0784  0.0895  0.1711
  807loPI   C4A12238  11.301  13.680   6.935 -0.0552  0.2285 -0.1930
  807loPI   C5A12239  11.037  13.875   7.358 -0.0240 -0.0985 -0.3754
  807loPI   C6A12240  10.763  14.208   7.461  0.3236  0.2313 -0.0776
  807loPI   C1B12241  11.801  13.837   5.965 -0.3131  0.1013  0.0740
  807loPI   C2B12242  11.467  14.035   6.332 -0.0446 -0.0218  0.0254
  807loPI   C3B12243  11.277  14.122   6.642  0.0338 -0.2635 -0.0987
  807loPI   C4B12244  10.947  14.142   6.885  0.1608  0.1801 -0.2072
  808loPI    C112245   2.490  13.597   4.778  0.1024 -0.0559 -0.3028
  808loPI    C212246   2.551  13.212   4.690 -0.0387 -0.1074 -0.1798
  808loPI    C312247   2.415  13.462   4.409 -0.0132 -0.1622 -0.2411
  808loPI   PO412248   2.699  13.612   4.984 -0.2394 -0.0316 -0.0917
  808loPI   GL112249   2.738  13.413   5.398 -0.0464 -0.2780  0.0216
  808loPI   GL212250   2.347  13.573   5.371 -0.1562 -0.0272  0.1238
  808loPI   C1A12251   2.769  13.546   5.822 -0.1434 -0.2107  0.2111
  808loPI   C2A12252   2.613  13.546   6.184  0.0777  0.1726 -0.2301
  808loPI   C3A12253   2.659  13.387   6.568 -0.0076 -0.5483 -0.0072
  808loPI   C4A12254   2.640  13.433   7.052  0.1324  0.1518  0.0437
  808loPI   C5A12255   2.348  13.501   7.348  0.0159 -0.1242  0.2498
  808loPI   C6A12256   2.198  13.755   7.718  0.0825  0.0945 -0.0475
  808loPI   C1B12257   2.257  13.555   5.813  0.0189 -0.1943  0.0487
  808loPI   C2B12258   2.166  13.802   6.225  0.0082  0.3627  0.2057
  808loPI   C3B12259   2.206  13.709   6.658  0.0936  0.2643  0.1790
  808loPI   C4B12260   2.085  13.764   7.041  0.2159  0.1941 -0.0582
  809loPI    C112261   1.992  19.030   4.888 -0.2226  0.3713 -0.0724
  809loPI    C212262   2.302  19.005   4.636 -0.0438  0.0332  0.1727
  809loPI    C312263   1.933  18.922   4.507  0.0521 -0.1804  0.0300
  809loPI   PO412264   2.079  18.796   5.066 -0.0151  0.0803 -0.5174
  809loPI   GL112265   2.207  19.004   5.517  0.0809 -0.0835 -0.1139
  809loPI   GL212266   2.065  19.258   5.407 -0.2430 -0.0400  0.1364
  809loPI   C1A12267   2.309  18.960   5.968 -0.0048  0.1740 -0.2886
  809loPI   C2A12268   2.474  19.079   6.305  0.3061 -0.0659  0.3266
  809loPI   C3A12269   2.598  19.318   6.660 -0.1143  0.1988 -0.3505
  809loPI   C4A12270   2.543  19.653   7.009  0.4989  0.0172  0.0719
  809loPI   C5A12271   2.234  20.028   7.224 -0.0011  0.0762 -0.0494
  809loPI   C6A12272   2.194  20.404   7.356  0.2366 -0.2053 -0.0527
  809loPI   C1B12273   1.806  19.420   5.707  0.1793 -0.1151 -0.5681
  809loPI   C2B12274   1.736  19.525   6.083 -0.1900 -0.1041 -0.2880
  809loPI   C3B12275   1.779  19.698   6.511 -0.1108  0.2114  0.0803
  809loPI   C4B12276   2.030  19.713   6.840  0.0537  0.0634  0.2682
  810loPI    C112277   2.378   9.881   5.306 -0.0508 -0.1052 -0.0714
  810loPI    C212278   2.281   9.876   4.918  0.0144  0.1088 -0.0918
  810loPI    C312279   2.656   9.956   5.029  0.0235 -0.0715  0.0120
  810loPI   PO412280   2.278   9.570   5.409  0.2341 -0.2443  0.3020
  810loPI   GL112281   1.965   9.512   5.676 -0.4222  0.2250  0.3447
  810loPI   GL212282   2.101   9.807   5.777 -0.0374 -0.0733 -0.0146
  810loPI   C1A12283   2.108   9.292   6.118 -0.0536  0.0126  0.2072
  810loPI   C2A12284   2.349   9.250   6.525  0.2827 -0.0628 -0.0947
  810loPI   C3A12285   2.414   9.274   7.026  0.0469  0.3685 -0.2119
  810loPI   C4A12286   2.540   9.139   7.435 -0.0499  0.0876 -0.2622
  810loPI   C5A12287   2.833   9.016   7.812 -0.0153 -0.0204 -0.1256
  810loPI   C6A12288   2.737   8.714   8.069  0.1662 -0.0235  0.0704
  810loPI   C1B12289   2.363   9.703   6.127  0.0646  0.1173 -0.2258
  810loPI   C2B12290   2.115   9.684   6.556  0.3819 -0.0895 -0.1328
  810loPI   C3B12291   2.238   9.705   6.958 -0.0292 -0.2035  0.1407
  810loPI   C4B12292   1.955  10.002   7.326 -0.0194 -0.2146 -0.5914
  811loPI    C112293  17.305  17.439   4.967  0.3517 -0.2606 -0.0863
  811loPI    C212294  17.346  17.640   4.624  0.1134 -0.2948 -0.1369
  811loPI    C312295  17.432  17.818   4.972  0.0526 -0.1559 -0.1921
  811loPI   PO412296  17.108  17.297   4.913 -0.2672  0.0997  0.1663
  811loPI   GL112297  16.724  17.414   5.218 -0.0617 -0.1615 -0.0864
  811loPI   GL212298  16.591  17.162   5.381  0.0966 -0.2031 -0.2443
  811loPI   C1A12299  16.880  17.483   5.596 -0.3311 -0.0798  0.2448
  811loPI   C2A12300  16.830  17.501   6.082  0.0142  0.1034  0.3816
  811loPI   C3A12301  16.832  17.255   6.485  0.2065  0.0498 -0.0449
  811loPI   C4A12302  16.694  17.129   6.888  0.0764 -0.1172 -0.0100
  811loPI   C5A12303  16.828  16.725   7.137  0.0827 -0.0683  0.2537
  811loPI   C6A12304  16.908  16.242   7.336 -0.1282  0.1031 -0.1079
  811loPI   C1B12305  16.472  17.180   5.804 -0.4967  0.0015 -0.1212
  811loPI   C2B12306  16.385  17.258   6.153  0.0902 -0.1517  0.0438
  811loPI   C3B12307  16.078  17.478   6.270  0.0491 -0.0869  0.0363
  811loPI   C4B12308  15.649  17.438   6.297 -0.0531  0.0391  0.1837
  812loPI    C112309   1.411  17.730   4.620 -0.0194  0.1503 -0.0224
  812loPI    C212310   1.640  17.861   4.319 -0.0776  0.0433 -0.1141
  812loPI    C312311   1.496  17.488   4.313  0.0079  0.0055  0.0984
  812loPI   PO412312   1.519  17.779   4.893  0.4938  0.0394  0.2539
  812loPI   GL112313   1.891  18.077   5.158  0.0457 -0.0007 -0.1240
  812loPI   GL212314   1.815  18.409   5.236 -0.1466 -0.1156 -0.0036
  812loPI   C1A12315   1.842  17.721   5.413  0.0035  0.1769 -0.2201
  812loPI   C2A12316   1.763  17.487   5.763  0.0850 -0.2452  0.0698
  812loPI   C3A12317   1.799  17.480   6.234  0.1011  0.2838  0.1108
  812loPI   C4A12318   1.683  17.190   6.564 -0.1405 -0.4007 -0.0495
  812loPI   C5A12319   1.546  17.166   6.970 -0.1149 -0.2130  0.0549
  812loPI   C6A12320   1.371  17.168   7.380  0.0287 -0.1587  0.1711
  812loPI   C1B12321   1.510  18.375   5.618 -0.0040 -0.3023 -0.2314
  812loPI   C2B12322   1.633  18.426   6.142  0.0610 -0.0636 -0.0404
  812loPI   C3B12323   1.639  18.613   6.554 -0.3374 -0.4103 -0.0009
  812loPI   C4B12324   1.774  18.726   6.881  0.4033 -0.4197 -0.1160
  813loPI    C112325  17.031  14.992   4.834 -0.0349  0.2131 -0.0012
  813loPI    C212326  17.322  14.743   4.720  0.0328  0.2504  0.0891
  813loPI    C312327  17.103  14.933   4.445 -0.2336 -0.1535  0.0139
  813loPI   PO412328  17.107  15.110   5.023  0.2007  0.1164  0.1002
  813loPI   GL112329  17.016  15.319   5.335 -0.0161  0.1701 -0.0588
  813loPI   GL212330  17.396  15.302   5.387 -0.1497 -0.2940 -0.0471
  813loPI   C1A12331  16.924  15.648   5.658 -0.0826  0.3960  0.0701
  813loPI   C2A12332  16.643  15.728   6.014  0.0489  0.0607 -0.0280
  813loPI   C3A12333  16.485  15.880   6.232 -0.1504 -0.1006 -0.2222
  813loPI   C4A12334  16.493  16.002   6.643 -0.0400  0.1888 -0.0392
  813loPI   C5A12335  16.493  16.209   7.043 -0.0181  0.2945 -0.3432
  813loPI   C6A12336  16.424  16.526   7.420 -0.3320  0.0170  0.2299
  813loPI   C1B12337  17.337  15.462   5.834  0.4267 -0.0876 -0.2547
  813loPI   C2B12338  17.513  15.466   6.186 -0.2827  0.1619 -0.0954
  813loPI   C3B12339  17.825  15.397   6.444 -0.1747 -0.1540 -0.1432
  813loPI   C4B12340  17.796  15.203   6.836 -0.2125  0.1711 -0.1722
  814loPI    C112341   7.184   5.551   4.423 -0.1985 -0.3469 -0.0432
  814loPI    C212342   7.546   5.409   4.331  0.1664  0.3821  0.1889
  814loPI    C312343   7.356   5.652   4.077 -0.1017  0.1211  0.1341
  814loPI   PO412344   7.103   5.387   4.669  0.0159  0.5620 -0.0564
  814loPI   GL112345   7.115   5.552   5.132 -0.1162 -0.1566 -0.2465
  814loPI   GL212346   7.163   5.168   5.280 -0.1723 -0.1749  0.1184
  814loPI   C1A12347   7.172   5.665   5.516  0.3588 -0.1192  0.0095
  814loPI   C2A12348   6.986   5.582   5.980 -0.2702 -0.0446 -0.0659
  814loPI   C3A12349   7.003   5.248   6.221  0.1294  0.1799  0.0877
  814loPI   C4A12350   6.850   4.938   6.519 -0.0058 -0.2792  0.2403
  814loPI   C5A12351   6.790   5.114   6.896  0.0406 -0.1355 -0.0814
  814loPI   C6A12352   6.967   5.235   7.249 -0.3817  0.0870  0.0095
  814loPI   C1B12353   7.323   5.185   5.637 -0.1125 -0.1818  0.3081
  814loPI   C2B12354   7.369   5.076   5.990 -0.2740  0.0400 -0.0521
  814loPI   C3B12355   7.328   5.001   6.437 -0.0851  0.2510 -0.0607
  814loPI   C4B12356   7.277   4.889   6.795 -0.1629 -0.0727 -0.0092
  815loPI    C112357   7.428  13.468   4.723 -0.0874  0.0276 -0.0700
  815loPI    C212358   7.474  13.245   4.394 -0.1034  0.0410 -0.0814
  815loPI    C312359   7.639  13.609   4.413 -0.2261  0.0994 -0.1323
  815loPI   PO412360   7.490  13.330   4.942  0.1386  0.5038  0.1177
  815loPI   GL112361   7.646  13.315   5.250  0.1455 -0.1412 -0.0380
  815loPI   GL212362   7.917  13.432   5.256 -0.2461 -0.0694 -0.0492
  815loPI   C1A12363   7.710  13.109   5.628  0.2811 -0.1841 -0.1427
  815loPI   C2A12364   7.765  13.061   6.021 -0.1175  0.0597  0.3711
  815loPI   C3A12365   7.728  13.097   6.480 -0.3714  0.1130 -0.0761
  815loPI   C4A12366   7.742  12.989   6.947  0.0359 -0.1484  0.2010
  815loPI   C5A12367   7.774  12.821   7.415  0.3974 -0.1126  0.2354
  815loPI   C6A12368   8.064  12.594   7.700 -0.1115 -0.0079  0.0289
  815loPI   C1B12369   8.003  13.521   5.680 -0.0191  0.0610  0.0067
  815loPI   C2B12370   8.028  13.451   6.172 -0.4240 -0.0198 -0.0013
  815loPI   C3B12371   8.191  13.320   6.529 -0.2338  0.1975  0.2745
  815loPI   C4B12372   8.264  13.245   6.994  0.1793  0.1075  0.0842
  816loPI    C112373  10.935  13.790   4.563  0.2504  0.1068  0.0488
  816loPI    C212374  10.877  13.443   4.373  0.1114  0.1021  0.0988
  816loPI    C312375  10.726  13.781   4.222 -0.0240  0.0943  0.2139
  816loPI   PO412376  11.080  13.689   4.778  0.1200 -0.1371 -0.1651
  816loPI   GL112377  11.136  13.646   5.128 -0.1231 -0.1243 -0.1215
  816loPI   GL212378  11.276  14.010   5.306  0.2187  0.0061  0.3029
  816loPI   C1A12379  10.957  13.694   5.497  0.0606  0.0046  0.3332
  816loPI   C2A12380  10.608  13.762   5.680  0.0204  0.3406  0.0792
  816loPI   C3A12381  10.432  13.773   6.067  0.0288 -0.2230  0.3596
  816loPI   C4A12382   9.962  13.716   6.189 -0.2139 -0.0603 -0.1626
  816loPI   C5A12383   9.564  13.625   6.252 -0.0609  0.2047 -0.0457
  816loPI   C6A12384   9.263  13.943   6.348  0.2066 -0.0197  0.1228
  816loPI   C1B12385  11.374  13.930   5.734  0.3591  0.1188  0.0660
  816loPI   C2B12386  11.050  13.944   6.009 -0.0856  0.3950 -0.0032
  816loPI   C3B12387  10.857  13.938   6.440 -0.0436  0.0172  0.2093
  816loPI   C4B12388  10.878  13.649   6.672 -0.1795  0.0928  0.2098
  817loPI    C112389   7.674  14.467   4.737  0.1838 -0.0516 -0.2293
  817loPI    C212390   7.598  14.700   4.421  0.0188 -0.0694 -0.2035
  817loPI    C312391   7.340  14.413   4.524  0.0039  0.0259  0.0290
  817loPI   PO412392   7.768  14.742   4.942 -0.1801 -0.1347 -0.3221
  817loPI   GL112393   8.048  14.629   5.242  0.3737 -0.1650  0.1206
  817loPI   GL212394   7.785  14.825   5.482 -0.1103 -0.2694 -0.4360
  817loPI   C1A12395   8.153  14.440   5.593 -0.0154 -0.1903 -0.2430
  817loPI   C2A12396   8.041  14.424   6.040 -0.1920 -0.0592  0.0997
  817loPI   C3A12397   7.901  14.325   6.490 -0.1718 -0.2981  0.0020
  817loPI   C4A12398   7.851  14.374   6.963 -0.3806 -0.1585  0.1207
  817loPI   C5A12399   8.010  14.315   7.251 -0.1133  0.2514  0.2862
  817loPI   C6A12400   8.007  14.478   7.596 -0.0600 -0.1149 -0.0585
  817loPI   C1B12401   7.521  14.481   5.612  0.1609 -0.2723 -0.2722
  817loPI   C2B12402   7.298  14.124   5.928  0.0906 -0.0368  0.0048
  817loPI   C3B12403   7.030  14.099   6.215 -0.0911 -0.1654 -0.1630
  817loPI   C4B12404   6.797  14.232   6.618 -0.4828  0.2628  0.1130
  818loPI    C112405   9.756   8.973   5.052 -0.0655  0.0080 -0.1043
  818loPI    C212406   9.417   8.959   4.840 -0.0970  0.0805 -0.0593
  818loPI    C312407   9.521   8.650   5.072 -0.0850  0.0195 -0.1454
  818loPI   PO412408   9.734   9.154   5.186 -0.0556 -0.1643  0.1600
  818loPI   GL112409  10.038   9.191   5.559  0.0741 -0.1732  0.0255
  818loPI   GL212410   9.791   9.278   5.685  0.0260  0.0813  0.3372
  818loPI   C1A12411  10.121   8.969   5.860 -0.0931  0.2270  0.2099
  818loPI   C2A12412   9.935   8.619   6.069 -0.0008 -0.1352  0.0563
  818loPI   C3A12413   9.859   8.479   6.469  0.3159  0.3120 -0.0483
  818loPI   C4A12414   9.737   8.358   6.900 -0.1263  0.0952  0.3231
  818loPI   C5A12415   9.946   8.110   7.150 -0.0100 -0.4120  0.1113
  818loPI   C6A12416   9.855   7.978   7.586 -0.1784 -0.1171  0.2124
  818loPI   C1B12417   9.769   9.291   6.040  0.1202 -0.3255  0.2787
  818loPI   C2B12418   9.823   9.428   6.549 -0.1872 -0.0463  0.0536
  818loPI   C3B12419  10.112   9.362   6.835  0.0411 -0.2322 -0.0001
  818loPI   C4B12420  10.444   9.470   7.119  0.1226 -0.1178 -0.1432
  819loPI    C112421  14.895  15.027   4.558 -0.0635  0.0380 -0.0783
  819loPI    C212422  14.593  15.264   4.447 -0.1238 -0.0696 -0.1457
  819loPI    C312423  14.882  15.173   4.185 -0.0712 -0.0259 -0.1031
  819loPI   PO412424  14.906  15.156   4.831  0.0451  0.0368 -0.1596
  819loPI   GL112425  15.020  15.470   5.170 -0.2373 -0.1349 -0.1178
  819loPI   GL212426  15.350  15.578   5.335  0.0745  0.3704 -0.0167
  819loPI   C1A12427  14.923  15.906   5.462 -0.2652 -0.2534  0.1925
  819loPI   C2A12428  15.215  15.990   5.759  0.4151 -0.1188 -0.0282
  819loPI   C3A12429  15.425  15.874   6.020 -0.0134 -0.1034  0.2173
  819loPI   C4A12430  15.406  15.947   6.378 -0.3994  0.2711  0.0059
  819loPI   C5A12431  15.397  15.828   6.782  0.1622 -0.0638 -0.0854
  819loPI   C6A12432  15.556  15.746   7.243 -0.4119 -0.0691  0.2061
  819loPI   C1B12433  15.248  15.475   5.787 -0.2008  0.0450 -0.1103
  819loPI   C2B12434  15.099  15.482   6.293  0.1137  0.0159 -0.1117
  819loPI   C3B12435  15.218  15.271   6.676  0.0709  0.2848  0.0820
  819loPI   C4B12436  15.228  15.230   7.099  0.0843  0.0122  0.3502
  820loPI    C112437   0.645  15.546   4.771  0.0159 -0.1183 -0.1710
  820loPI    C212438   0.826  15.406   4.443 -0.0980 -0.0826 -0.2496
  820loPI    C312439   0.484  15.240   4.569 -0.0894 -0.0529 -0.1869
  820loPI   PO412440   0.891  15.663   4.910 -0.1539 -0.2051 -0.0710
  820loPI   GL112441   1.029  15.583   5.371 -0.0225  0.0887  0.2998
  820loPI   GL212442   0.762  15.500   5.366  0.0826  0.2608  0.0902
  820loPI   C1A12443   1.271  15.362   5.759 -0.0741 -0.0562  0.0573
  820loPI   C2A12444   1.283  15.555   6.167 -0.0769 -0.3306  0.0613
  820loPI   C3A12445   1.190  15.825   6.377  0.0590 -0.2268  0.1813
  820loPI   C4A12446   0.992  15.853   6.845  0.3265  0.2694  0.1456
  820loPI   C5A12447   0.807  16.029   7.122 -0.0544  0.0490  0.2526
  820loPI   C6A12448   0.849  16.273   7.473  0.0396  0.1194  0.1447
  820loPI   C1B12449   0.673  15.285   5.730  0.0476 -0.0330 -0.3460
  820loPI   C2B12450   0.632  14.963   5.980  0.3255 -0.0566  0.4228
  820loPI   C3B12451   0.808  14.668   6.194  0.3709 -0.0685  0.1901
  820loPI   C4B12452   1.267  14.520   6.391 -0.1871  0.1965  0.2084
  821loPI    C112453  11.351   7.353   4.782 -0.1044  0.2490  0.1600
  821loPI    C212454  11.018   7.132   4.779  0.1093 -0.0776 -0.1263
  821loPI    C312455  11.105   7.366   4.467  0.0340  0.1877  0.0487
  821loPI   PO412456  11.394   7.264   5.115  0.0429  0.1448 -0.0797
  821loPI   GL112457  11.600   7.298   5.501  0.0291 -0.1863  0.3729
  821loPI   GL212458  11.378   7.195   5.776 -0.0775  0.1703 -0.0692
  821loPI   C1A12459  11.504   7.701   5.689  0.4863 -0.0309 -0.1200
  821loPI   C2A12460  11.265   7.747   5.980 -0.2513  0.1342 -0.1173
  821loPI   C3A12461  11.232   7.385   6.233  0.1533  0.0157 -0.1215
  821loPI   C4A12462  11.217   7.044   6.631 -0.1958 -0.2821  0.1071
  821loPI   C5A12463  11.237   6.963   7.056 -0.3156 -0.0487 -0.0874
  821loPI   C6A12464  11.326   6.764   7.405 -0.2032  0.3132  0.4611
  821loPI   C1B12465  11.018   7.573   5.567  0.1236  0.1473  0.1092
  821loPI   C2B12466  10.658   7.759   5.662 -0.1230  0.0098  0.2115
  821loPI   C3B12467  10.232   7.715   5.716  0.0405  0.0596 -0.0190
  821loPI   C4B12468   9.788   7.734   5.881 -0.0601 -0.0897 -0.4384
  822loPI    C112469  14.560   4.823   4.828  0.1337  0.2913 -0.0488
  822loPI    C212470  14.453   4.693   4.466 -0.0600  0.1509  0.0573
  822loPI    C312471  14.762   4.944   4.504  0.0087  0.1084 -0.1968
  822loPI   PO412472  14.604   4.641   4.970  0.0226 -0.0607  0.1214
  822loPI   GL112473  14.493   4.688   5.401 -0.5200  0.0827 -0.0417
  822loPI   GL212474  14.101   4.657   5.408  0.1748 -0.0362  0.0551
  822loPI   C1A12475  14.783   4.798   5.745 -0.4317 -0.1412 -0.0415
  822loPI   C2A12476  14.640   4.948   6.105 -0.0837  0.0728  0.0507
  822loPI   C3A12477  14.578   5.047   6.490 -0.0192  0.0038  0.1198
  822loPI   C4A12478  14.448   5.028   6.931 -0.2636 -0.1638 -0.0705
  822loPI   C5A12479  14.388   4.954   7.380  0.1637 -0.2220 -0.1124
  822loPI   C6A12480  14.704   4.976   7.686 -0.2517  0.0941  0.0161
  822loPI   C1B12481  14.243   4.858   5.783 -0.0149  0.2125 -0.0859
  822loPI   C2B12482  14.102   4.862   6.213 -0.0431  0.0327 -0.3254
  822loPI   C3B12483  14.170   4.735   6.673  0.1969  0.1000 -0.4120
  822loPI   C4B12484  14.098   4.635   7.125  0.2543 -0.1220 -0.0987
  823loPI    C112485   3.392  19.012   4.806 -0.0335  0.0930 -0.3257
  823loPI    C212486   3.692  19.272   4.756  0.1403 -0.0529 -0.0676
  823loPI    C312487   3.672  18.944   4.528  0.1831 -0.0489 -0.0772
  823loPI   PO412488   3.313  19.179   5.128  0.3094 -0.1263 -0.1240
  823loPI   GL112489   3.382  19.236   5.464 -0.1054 -0.0176 -0.0818
  823loPI   GL212490   3.641  18.924   5.492  0.1267 -0.2318 -0.0286
  823loPI   C1A12491   3.636  19.555   5.628  0.0783 -0.3290 -0.0804
  823loPI   C2A12492   3.879  19.675   6.048  0.1045 -0.3193  0.0945
  823loPI   C3A12493   3.960  19.384   6.313 -0.1590  0.0658 -0.2186
  823loPI   C4A12494   3.969  19.281   6.751  0.0465  0.0983 -0.1048
  823loPI   C5A12495   3.799  19.079   7.043 -0.0434  0.1332  0.2423
  823loPI   C6A12496   3.943  19.256   7.467  0.5472  0.1200  0.3873
  823loPI   C1B12497   3.838  18.461   5.704 -0.1784  0.2180 -0.3058
  823loPI   C2B12498   3.849  18.098   5.994  0.0906  0.0199  0.2734
  823loPI   C3B12499   3.442  18.240   6.225  0.0273  0.1228  0.3880
  823loPI   C4B12500   3.329  18.293   6.732 -0.0739 -0.1316  0.0106
  824loPI    C112501  18.825  14.485   4.847  0.0866  0.1190 -0.1490
  824loPI    C212502  19.125  14.464   4.582  0.0739 -0.0919 -0.1485
  824loPI    C312503  18.835  14.188   4.579 -0.0402  0.0253 -0.0512
  824loPI   PO412504  18.960  14.594   5.068 -0.0797  0.2072 -0.1935
  824loPI   GL112505  18.961  14.675   5.465 -0.2508 -0.4772 -0.0627
  824loPI   GL212506  18.778  14.941   5.638 -0.1871 -0.2057  0.0507
  824loPI   C1A12507  18.956  14.594   5.901  0.2063 -0.0811  0.0731
  824loPI   C2A12508  18.919  14.737   6.330  0.2272  0.0492 -0.1071
  824loPI   C3A12509  19.089  14.849   6.754 -0.0566 -0.0672 -0.1115
  824loPI   C4A12510  19.467  14.696   7.041 -0.2380  0.0748 -0.5099
  824loPI   C5A12511  19.726  14.562   7.378 -0.0182 -0.0715 -0.2949
  824loPI   C6A12512  20.162  14.357   7.444 -0.2788  0.1737 -0.2582
  824loPI   C1B12513  18.575  14.993   6.049  0.1667 -0.0318 -0.1232
  824loPI   C2B12514  18.619  15.141   6.503  0.3140  0.0118  0.2979
  824loPI   C3B12515  18.779  15.294   6.719 -0.1291  0.0569  0.3980
  824loPI   C4B12516  19.001  15.552   7.080 -0.1444 -0.1777  0.0166
  825loPI    C112517   8.123   6.442   4.670  0.2120 -0.0352 -0.1704
  825loPI    C212518   7.847   6.328   4.404  0.0032 -0.0277  0.0401
  825loPI    C312519   7.858   6.708   4.530  0.0533 -0.0486  0.0987
  825loPI   PO412520   8.200   6.262   5.014 -0.1026 -0.1348 -0.3292
  825loPI   GL112521   8.454   6.236   5.407 -0.0956 -0.0982  0.0949
  825loPI   GL212522   8.717   6.266   5.255  0.1678 -0.1244  0.2518
  825loPI   C1A12523   8.170   6.144   5.793  0.1091  0.0162  0.0117
  825loPI   C2A12524   8.032   5.837   6.077  0.0893  0.2600  0.0205
  825loPI   C3A12525   7.895   5.797   6.497  0.0381 -0.2778  0.2501
  825loPI   C4A12526   7.631   5.800   6.909  0.0309 -0.0736  0.0836
  825loPI   C5A12527   7.268   6.088   7.081 -0.2365  0.1739  0.0426
  825loPI   C6A12528   7.030   6.281   7.090  0.0736 -0.0230 -0.1017
  825loPI   C1B12529   8.876   6.081   5.632  0.0575  0.1103  0.0217
  825loPI   C2B12530   9.219   6.129   5.983  0.2410 -0.0314 -0.2566
  825loPI   C3B12531   9.158   6.062   6.392  0.0861  0.2242  0.0793
  825loPI   C4B12532   8.733   5.944   6.643  0.3335  0.1546  0.1959
  826loPI    C112533  15.001   1.486   4.696 -0.0405 -0.1006  0.0266
  826loPI    C212534  15.280   1.265   4.512 -0.0585 -0.1275  0.0313
  826loPI    C312535  14.984   1.431   4.300 -0.0200 -0.0710  0.0215
  826loPI   PO412536  14.951   1.374   4.871  0.0418  0.0157 -0.0880
  826loPI   GL112537  14.573   1.180   5.071  0.0771  0.1710  0.0919
  826loPI   GL212538  14.350   0.986   4.984 -0.0450  0.1497 -0.0212
  826loPI   C1A12539  14.779   1.090   5.525  0.2861 -0.1757 -0.0455
  826loPI   C2A12540  14.619   0.869   5.985  0.5331  0.1168  0.1065
  826loPI   C3A12541  14.688   1.046   6.471 -0.0702  0.0106 -0.0762
  826loPI   C4A12542  14.712   0.973   6.870 -0.0661  0.2294 -0.0114
  826loPI   C5A12543  14.387   0.995   7.133 -0.0567  0.1092 -0.0853
  826loPI   C6A12544  14.413   1.269   7.452 -0.0205 -0.1439  0.1348
  826loPI   C1B12545  14.245   1.054   5.408 -0.0532 -0.1860 -0.0905
  826loPI   C2B12546  14.134   0.941   5.752  0.0430  0.0112  0.0055
  826loPI   C3B12547  14.170   0.850   6.244  0.1280 -0.1094  0.0832
  826loPI   C4B12548  14.202   0.907   6.687 -0.1443 -0.2430  0.0509
  827loPI    C112549  16.102   5.618   4.747 -0.1169 -0.0890  0.0846
  827loPI    C212550  16.133   5.244   4.886 -0.1366 -0.1178  0.0114
  827loPI    C312551  16.069   5.309   4.496 -0.2929 -0.0422  0.0487
  827loPI   PO412552  15.918   5.732   4.987  0.1243  0.2756 -0.0886
  827loPI   GL112553  15.849   5.582   5.304 -0.3506  0.0211 -0.3927
  827loPI   GL212554  15.914   5.144   5.325  0.0949  0.2221 -0.1798
  827loPI   C1A12555  15.540   5.540   5.588  0.1250 -0.0520  0.3783
  827loPI   C2A12556  15.471   5.497   6.002 -0.1169  0.0878 -0.2838
  827loPI   C3A12557  15.517   5.562   6.413  0.2779  0.2347 -0.0343
  827loPI   C4A12558  15.584   5.496   6.799 -0.2956  0.2519  0.4536
  827loPI   C5A12559  15.276   5.396   7.174 -0.2089 -0.3288 -0.2884
  827loPI   C6A12560  15.056   5.386   7.581  0.2767 -0.2472  0.0979
  827loPI   C1B12561  15.762   5.133   5.787 -0.2330  0.1059 -0.2601
  827loPI   C2B12562  15.833   5.174   6.282 -0.1177 -0.0377 -0.0264
  827loPI   C3B12563  15.863   5.072   6.696 -0.4349  0.1805  0.5186
  827loPI   C4B12564  15.654   5.078   7.111 -0.2054 -0.0792 -0.0388
  828loPI    C112565  16.351  12.053   5.059 -0.1540 -0.0873  0.0469
  828loPI    C212566  16.695  11.967   4.873 -0.2236  0.2818 -0.2648
  828loPI    C312567  16.427  12.207   4.698 -0.5960  0.0857  0.0218
  828loPI   PO412568  16.292  11.772   5.118 -0.0462  0.2599 -0.0390
  828loPI   GL112569  16.288  11.521   5.459 -0.0495 -0.1385  0.0728
  828loPI   GL212570  16.541  11.518   5.712  0.1432 -0.0044 -0.0323
  828loPI   C1A12571  16.029  11.554   5.798 -0.0778 -0.2400 -0.3676
  828loPI   C2A12572  15.960  11.182   6.156 -0.4371 -0.1933  0.0863
  828loPI   C3A12573  15.732  11.176   6.607  0.1209 -0.0443 -0.2268
  828loPI   C4A12574  15.794  11.369   6.935 -0.0047  0.1121  0.2254
  828loPI   C5A12575  15.699  11.480   7.432  0.0504 -0.5184 -0.0200
  828loPI   C6A12576  15.428  11.755   7.612  0.1315 -0.0501  0.2572
  828loPI   C1B12577  16.486  11.634   6.126 -0.1681  0.1627 -0.0965
  828loPI   C2B12578  16.463  12.024   6.326 -0.4065 -0.0955  0.2679
  828loPI   C3B12579  16.281  12.045   6.674 -0.0872 -0.0682  0.1021
  828loPI   C4B12580  16.260  11.788   7.102  0.2783 -0.0597 -0.3311
  829loPI    C112581  18.094  11.755   4.739 -0.0596 -0.2312 -0.1751
  829loPI    C212582  18.399  11.991   4.635 -0.1083 -0.2056 -0.2611
  829loPI    C312583  18.350  11.638   4.455 -0.0636 -0.2605 -0.1666
  829loPI   PO412584  17.983  11.986   4.884  0.0156 -0.0712  0.1254
  829loPI   GL112585  17.843  11.997   5.306 -0.2436 -0.0468  0.1379
  829loPI   GL212586  17.485  11.848   5.387 -0.2519  0.0669  0.0896
  829loPI   C1A12587  18.035  11.905   5.691 -0.2180  0.1985  0.0661
  829loPI   C2A12588  17.884  11.969   6.140 -0.0289 -0.1046 -0.1511
  829loPI   C3A12589  17.763  12.134   6.514  0.1029 -0.0946  0.0314
  829loPI   C4A12590  17.702  12.095   6.955 -0.0198  0.0497 -0.0055
  829loPI   C5A12591  17.667  12.164   7.361  0.0405 -0.0241  0.1551
  829loPI   C6A12592  17.772  12.501   7.634  0.1042  0.0632 -0.2183
  829loPI   C1B12593  17.309  12.053   5.822  0.3083  0.1217 -0.0571
  829loPI   C2B12594  17.336  12.163   6.201 -0.0887 -0.0611  0.0975
  829loPI   C3B12595  17.304  12.246   6.568 -0.0972 -0.1929 -0.4214
  829loPI   C4B12596  17.130  12.389   6.927 -0.2024  0.0707 -0.1467
  830loPI    C112597   7.811  16.199   4.614 -0.2597  0.0370 -0.0951
  830loPI    C212598   8.028  15.897   4.467 -0.1006  0.1032  0.0007
  830loPI    C312599   7.906  16.192   4.225  0.0114  0.1229 -0.0324
  830loPI   PO412600   7.888  16.190   4.888 -0.0460 -0.0354 -0.0551
  830loPI   GL112601   7.941  16.093   5.256  0.0615  0.3075 -0.1050
  830loPI   GL212602   8.260  16.020   5.439  0.4749  0.2888 -0.1431
  830loPI   C1A12603   7.553  15.988   5.534 -0.5082  0.0473  0.5021
  830loPI   C2A12604   7.635  16.026   6.006 -0.4011 -0.0788 -0.0895
  830loPI   C3A12605   7.937  16.221   6.309 -0.1814  0.0015 -0.1533
  830loPI   C4A12606   7.974  16.568   6.502  0.1620 -0.0963 -0.2292
  830loPI   C5A12607   7.698  16.815   6.643 -0.1933 -0.0912 -0.3328
  830loPI   C6A12608   7.410  17.093   6.434 -0.1490 -0.1708 -0.2952
  830loPI   C1B12609   8.002  16.277   5.746 -0.3139 -0.0707  0.0590
  830loPI   C2B12610   7.724  16.534   5.949 -0.1180 -0.0902  0.0176
  830loPI   C3B12611   7.649  16.957   5.997 -0.3682  0.2150  0.1751
  830loPI   C4B12612   7.785  17.310   6.229 -0.1122  0.3206 -0.2488
  831loPI    C112613   8.122  14.179   4.789  0.2732 -0.2674 -0.1687
  831loPI    C212614   7.834  14.085   4.528 -0.2029 -0.0224  0.2519
  831loPI    C312615   8.080  14.391   4.452 -0.2740 -0.0144  0.0470
  831loPI   PO412616   8.044  14.206   4.997  0.3013  0.1778  0.0640
  831loPI   GL112617   8.113  13.908   5.295  0.1838  0.0429  0.0256
  831loPI   GL212618   8.410  14.019   5.440  0.0585 -0.2007  0.1797
  831loPI   C1A12619   7.887  14.059   5.703  0.3651 -0.0789 -0.0157
  831loPI   C2A12620   7.747  13.952   6.126  0.4155  0.0911 -0.0301
  831loPI   C3A12621   7.521  14.015   6.423  0.1809  0.0480 -0.3946
  831loPI   C4A12622   7.284  14.341   6.651 -0.2087  0.3575  0.1946
  831loPI   C5A12623   7.064  14.401   6.996  0.3431 -0.3051 -0.0257
  831loPI   C6A12624   6.787  14.701   7.089 -0.2909  0.0259  0.2151
  831loPI   C1B12625   8.639  14.249   5.683 -0.0462  0.1150 -0.2019
  831loPI   C2B12626   8.715  14.211   6.137 -0.0426  0.1235 -0.0564
  831loPI   C3B12627   8.773  13.951   6.451 -0.2221 -0.0095 -0.1821
  831loPI   C4B12628   8.571  13.606   6.586  0.0207 -0.0333 -0.2199
  832loPI    C112629   3.835  13.505   4.935 -0.0146  0.3812  0.0803
  832loPI    C212630   3.755  13.483   4.544  0.0444  0.2259  0.0764
  832loPI    C312631   3.528  13.282   4.806  0.1579  0.1275  0.1005
  832loPI   PO412632   3.816  13.649   5.053 -0.1609 -0.0793 -0.3480
  832loPI   GL112633   3.480  13.687   5.259  0.2584 -0.2329 -0.1151
  832loPI   GL212634   3.158  13.798   5.289  0.0372  0.0970 -0.2983
  832loPI   C1A12635   3.308  13.555   5.706  0.1873  0.2257 -0.1044
  832loPI   C2A12636   3.662  13.350   5.966 -0.0907  0.1774 -0.0239
  832loPI   C3A12637   3.785  13.239   6.365 -0.0222 -0.1324 -0.3337
  832loPI   C4A12638   3.705  13.086   6.714 -0.0501  0.0375  0.2697
  832loPI   C5A12639   3.885  13.164   7.178 -0.1577  0.0855  0.0819
  832loPI   C6A12640   4.104  13.507   7.347 -0.0143  0.2075  0.2467
  832loPI   C1B12641   2.989  13.947   5.733 -0.2078  0.0687 -0.2092
  832loPI   C2B12642   3.042  13.785   6.144  0.4388 -0.0149  0.1983
  832loPI   C3B12643   3.073  13.681   6.569 -0.1048  0.0813 -0.1736
  832loPI   C4B12644   3.098  13.695   7.106  0.5429 -0.0826  0.1702
  833loPI    C112645  10.356   8.283   4.955  0.0192 -0.0862  0.0423
  833loPI    C212646  10.205   8.652   4.991  0.1468 -0.0406  0.1165
  833loPI    C312647  10.370   8.536   4.646 -0.2239 -0.1549 -0.0273
  833loPI   PO412648  10.208   8.193   5.258  0.0758  0.1012 -0.1212
  833loPI   GL112649  10.264   8.336   5.674  0.1612  0.2699  0.0670
  833loPI   GL212650  10.562   8.258   5.659  0.0586 -0.2047  0.1572
  833loPI   C1A12651  10.040   8.164   6.057  0.0638  0.2197 -0.0740
  833loPI   C2A12652   9.840   7.932   6.320  0.1110 -0.2440  0.1828
  833loPI   C3A12653   9.853   7.814   6.723  0.1749 -0.3434 -0.1377
  833loPI   C4A12654   9.841   7.626   7.181  0.1521 -0.2438 -0.0128
  833loPI   C5A12655  10.008   7.531   7.522 -0.1214  0.0710 -0.0920
  833loPI   C6A12656   9.945   7.546   7.963 -0.0254  0.0397  0.0817
  833loPI   C1B12657  10.529   8.050   6.055  0.0441  0.0349  0.0032
  833loPI   C2B12658  10.297   7.879   6.464  0.1985 -0.2011  0.1547
  833loPI   C3B12659  10.567   7.520   6.309  0.3576 -0.0261  0.0659
  833loPI   C4B12660  10.838   7.418   5.977  0.2595  0.1479 -0.0001
  834loPI    C112661  14.714  15.644   4.756 -0.0393 -0.0843 -0.0712
  834loPI    C212662  15.063  15.832   4.811  0.0512 -0.2815  0.0400
  834loPI    C312663  15.038  15.529   4.551 -0.0393 -0.2637  0.0274
  834loPI   PO412664  14.614  15.599   4.977 -0.2645 -0.0101 -0.0119
  834loPI   GL112665  14.450  15.527   5.298  0.0641 -0.1633 -0.1553
  834loPI   GL212666  14.368  15.907   5.301 -0.3115  0.3685 -0.1058
  834loPI   C1A12667  14.771  15.427   5.584 -0.1597 -0.3119  0.0914
  834loPI   C2A12668  14.831  15.129   5.794 -0.2359 -0.1258  0.0747
  834loPI   C3A12669  14.494  14.971   6.048  0.5733 -0.0916  0.0255
  834loPI   C4A12670  14.495  14.671   6.476  0.1421 -0.0968 -0.0096
  834loPI   C5A12671  14.497  14.557   6.820  0.3173 -0.0150  0.1342
  834loPI   C6A12672  14.557  14.597   7.332  0.0785  0.1416  0.0238
  834loPI   C1B12673  14.519  15.862   5.701  0.0583 -0.4573  0.3666
  834loPI   C2B12674  14.802  15.877   6.103 -0.3026  0.0067  0.0242
  834loPI   C3B12675  14.836  15.842   6.637  0.2288  0.0877  0.1263
  834loPI   C4B12676  14.904  15.580   7.064 -0.0380  0.5007  0.1394
  835loPI    C112677  18.958   0.326   4.268  0.3008  0.1169 -0.0289
  835loPI    C212678  19.117  -0.037   4.215  0.2465  0.0988 -0.0687
  835loPI    C312679  19.326   0.289   4.114  0.2054  0.0699 -0.2501
  835loPI   PO412680  18.862   0.312   4.550  0.0246  0.0413 -0.2344
  835loPI   GL112681  18.647   0.188   5.016 -0.0244  0.3879  0.0391
  835loPI   GL212682  19.133   0.257   5.034 -0.0949 -0.0572 -0.2300
  835loPI   C1A12683  18.783   0.030   5.425 -0.0828  0.1128 -0.4594
  835loPI   C2A12684  18.740   0.048   5.848 -0.0720  0.0484  0.2057
  835loPI   C3A12685  18.634   0.304   6.157 -0.1893  0.2209 -0.2482
  835loPI   C4A12686  18.481   0.304   6.569  0.0635  0.0633 -0.2548
  835loPI   C5A12687  18.414   0.054   6.886  0.5200  0.1904 -0.0297
  835loPI   C6A12688  18.435  -0.265   7.223 -0.0435 -0.1694  0.1894
  835loPI   C1B12689  19.071   0.429   5.421  0.2315  0.1677  0.0660
  835loPI   C2B12690  18.930   0.534   5.835  0.1502 -0.1382  0.0562
  835loPI   C3B12691  18.991   0.671   6.296 -0.3106 -0.1759 -0.0472
  835loPI   C4B12692  18.846   0.689   6.670  0.2956  0.2203  0.1670
  836loPI    C112693  18.540  16.744   4.715 -0.2071  0.1753  0.1363
  836loPI    C212694  18.811  16.979   4.538 -0.0924  0.1891  0.3275
  836loPI    C312695  18.692  16.641   4.360  0.0708  0.1691  0.2549
  836loPI   PO412696  18.396  16.959   4.809 -0.2764  0.0505  0.1169
  836loPI   GL112697  18.355  17.064   5.170 -0.0820  0.1381 -0.0945
  836loPI   GL212698  18.375  17.454   5.230  0.1922 -0.2038 -0.0282
  836loPI   C1A12699  18.324  17.211   5.629  0.1180 -0.0323 -0.0048
  836loPI   C2A12700  18.270  17.386   6.001  0.0552  0.2232 -0.1240
  836loPI   C3A12701  18.252  17.652   6.325 -0.0871 -0.0577  0.0595
  836loPI   C4A12702  18.236  17.709   6.794 -0.0726 -0.1278 -0.3713
  836loPI   C5A12703  17.824  17.824   6.986 -0.0373 -0.0716  0.2406
  836loPI   C6A12704  17.513  18.288   6.940  0.0588 -0.1241  0.3869
  836loPI   C1B12705  18.150  17.701   5.620 -0.1697  0.0981  0.0070
  836loPI   C2B12706  17.877  17.714   5.918 -0.0682 -0.0119  0.1892
  836loPI   C3B12707  17.811  17.923   6.292  0.2456 -0.3735  0.0240
  836loPI   C4B12708  17.507  17.858   6.579 -0.1518  0.1470 -0.0086
  837loPI    C112709   9.754  12.505   4.924 -0.1882 -0.2390 -0.0555
  837loPI    C212710   9.807  12.191   4.682  0.0688 -0.1282 -0.1467
  837loPI    C312711   9.992  12.537   4.604  0.1356 -0.0828  0.1944
  837loPI   PO412712   9.759  12.351   5.165  0.1423  0.0525  0.2823
  837loPI   GL112713   9.578  12.150   5.465 -0.0589  0.1208  0.2792
  837loPI   GL212714   9.510  12.496   5.539 -0.1379  0.2886  0.1238
  837loPI   C1A12715   9.698  12.170   5.918  0.1008  0.0378 -0.1488
  837loPI   C2A12716   9.654  12.179   6.362 -0.0295  0.2970 -0.0048
  837loPI   C3A12717   9.758  12.112   6.829 -0.3922 -0.1465  0.3982
  837loPI   C4A12718   9.619  12.025   7.327 -0.1262  0.1753  0.2122
  837loPI   C5A12719   9.433  12.094   7.703 -0.1168 -0.0273  0.1230
  837loPI   C6A12720   9.312  12.267   8.121  0.1444 -0.1261 -0.1500
  837loPI   C1B12721   9.179  12.809   5.760  0.2994 -0.1227 -0.3148
  837loPI   C2B12722   9.112  12.872   6.134  0.1207  0.3829  0.2174
  837loPI   C3B12723   9.299  13.124   6.433 -0.3074 -0.2120  0.0970
  837loPI   C4B12724   9.445  13.060   6.740 -0.3505 -0.0555  0.0903
  838loPI    C112725  15.984   7.184   4.707  0.1463  0.1582  0.1367
  838loPI    C212726  16.340   7.341   4.616  0.0283  0.4085  0.0988
  838loPI    C312727  16.037   7.369   4.357  0.0371  0.0072  0.0389
  838loPI   PO412728  15.942   7.150   4.971  0.1809 -0.1211  0.2792
  838loPI   GL112729  16.000   7.245   5.394 -0.0799 -0.0691  0.0116
  838loPI   GL212730  16.254   7.164   5.661  0.0120  0.1376  0.0206
  838loPI   C1A12731  15.848   7.485   5.745 -0.0386  0.0344  0.1160
  838loPI   C2A12732  15.940   7.581   6.152 -0.0147  0.0966  0.2029
  838loPI   C3A12733  15.890   7.717   6.636  0.1907  0.3036  0.0367
  838loPI   C4A12734  15.615   7.885   7.010 -0.0333 -0.5020 -0.0125
  838loPI   C5A12735  15.751   7.950   7.416  0.0324 -0.3640 -0.0575
  838loPI   C6A12736  16.134   7.915   7.660 -0.0802  0.0088 -0.3406
  838loPI   C1B12737  16.277   7.256   6.074 -0.0691  0.1098  0.2405
  838loPI   C2B12738  16.234   7.197   6.534 -0.2082 -0.0072 -0.0430
  838loPI   C3B12739  16.012   7.097   6.900  0.2839 -0.3316  0.0521
  838loPI   C4B12740  16.033   6.943   7.392 -0.0398  0.1121 -0.0267
  839loPI    C112741  14.879  16.479   4.279  0.2861  0.0774  0.0251
  839loPI    C212742  14.955  16.765   4.011 -0.0066  0.1503  0.0169
  839loPI    C312743  14.985  16.380   3.906 -0.1965  0.1777 -0.1465
  839loPI   PO412744  14.961  16.404   4.597 -0.1679 -0.0803 -0.2062
  839loPI   GL112745  15.143  16.280   4.978 -0.2346 -0.0354  0.0486
  839loPI   GL212746  15.404  16.060   5.228 -0.2889  0.0255 -0.0215
  839loPI   C1A12747  15.197  16.475   5.473  0.2422 -0.1008 -0.0364
  839loPI   C2A12748  15.088  16.791   5.835  0.2704  0.1370 -0.0755
  839loPI   C3A12749  14.767  16.945   6.203 -0.0569  0.0492 -0.1036
  839loPI   C4A12750  14.533  16.842   6.541 -0.2278 -0.1331  0.1772
  839loPI   C5A12751  14.278  16.568   6.759  0.1851 -0.1968 -0.2933
  839loPI   C6A12752  13.790  16.571   6.896 -0.0876  0.0876  0.1386
  839loPI   C1B12753  15.754  15.990   5.636  0.1832  0.0095 -0.1078
  839loPI   C2B12754  15.992  16.031   6.094  0.3720  0.1835  0.0509
  839loPI   C3B12755  15.916  15.936   6.540  0.1469  0.2489 -0.0144
  839loPI   C4B12756  16.125  15.811   6.953 -0.1421  0.4391 -0.2717
  840loPI    C112757   3.460   5.675   4.762 -0.1097  0.0082  0.1252
  840loPI    C212758   3.726   5.918   4.587 -0.1020  0.0934  0.2539
  840loPI    C312759   3.342   5.928   4.475 -0.0004 -0.2456 -0.1484
  840loPI   PO412760   3.463   5.687   5.055 -0.1244 -0.2326  0.2250
  840loPI   GL112761   3.253   5.969   5.371  0.0820  0.0864  0.0744
  840loPI   GL212762   3.395   6.237   5.457 -0.4770 -0.1144 -0.0954
  840loPI   C1A12763   3.288   5.634   5.709 -0.1377 -0.1665  0.1700
  840loPI   C2A12764   3.319   5.614   6.184 -0.1937  0.1790 -0.1174
  840loPI   C3A12765   3.259   5.796   6.537 -0.2879  0.0940 -0.0910
  840loPI   C4A12766   3.339   5.839   7.017 -0.0778 -0.0014  0.0707
  840loPI   C5A12767   3.424   6.219   7.265  0.0228 -0.3383  0.2935
  840loPI   C6A12768   3.474   6.522   7.485 -0.1225 -0.2542 -0.2781
  840loPI   C1B12769   3.375   6.482   5.933 -0.2710  0.0297  0.1108
  840loPI   C2B12770   3.528   6.739   6.316  0.2202 -0.0387 -0.0205
  840loPI   C3B12771   3.477   6.931   6.731 -0.0412 -0.0699  0.1173
  840loPI   C4B12772   3.594   6.804   7.062  0.0499 -0.0545  0.0709
  841loPI    C112773  15.380  13.357   5.203 -0.0660 -0.2341  0.1418
  841loPI    C212774  15.329  13.578   4.873  0.0123 -0.0249  0.2676
  841loPI    C312775  15.029  13.537   5.135 -0.0329 -0.1476  0.1974
  841loPI   PO412776  15.612  13.509   5.367  0.0744 -0.2257  0.1432
  841loPI   GL112777  15.900  13.550   5.669  0.3509  0.1971  0.0903
  841loPI   GL212778  16.224  13.725   5.735  0.3045 -0.0830 -0.0769
  841loPI   C1A12779  15.788  13.307   6.003 -0.0815  0.2854 -0.1777
  841loPI   C2A12780  15.689  13.299   6.369 -0.2181 -0.2285 -0.0803
  841loPI   C3A12781  15.643  13.343   6.773 -0.2293  0.0480 -0.1475
  841loPI   C4A12782  15.705  13.299   7.220  0.0452 -0.0868 -0.0902
  841loPI   C5A12783  15.977  13.278   7.486  0.0573  0.2907  0.1994
  841loPI   C6A12784  15.974  12.968   7.719  0.1106 -0.0596 -0.3103
  841loPI   C1B12785  16.485  13.793   6.001  0.0944  0.1005  0.1326
  841loPI   C2B12786  16.696  13.935   6.343 -0.1139 -0.1166  0.0959
  841loPI   C3B12787  16.895  14.021   6.680  0.0348 -0.2485 -0.4045
  841loPI   C4B12788  16.865  13.910   7.167 -0.0116  0.3496  0.1549
  842loPI    C112789  11.756  13.059   5.086 -0.0020  0.1916 -0.1199
  842loPI    C212790  12.011  12.852   4.858 -0.2471 -0.0880 -0.1469
  842loPI    C312791  11.881  13.211   4.738  0.1888  0.0939 -0.0955
  842loPI   PO412792  11.876  13.084   5.279  0.1088 -0.3174 -0.0601
  842loPI   GL112793  11.880  12.908   5.670 -0.3943  0.1465 -0.1506
  842loPI   GL212794  12.182  12.742   5.745  0.1034 -0.0351  0.1674
  842loPI   C1A12795  11.845  13.012   6.100  0.3077  0.0494  0.0719
  842loPI   C2A12796  11.947  13.366   6.254 -0.1144 -0.1445 -0.4336
  842loPI   C3A12797  11.816  13.715   6.577  0.1390  0.0790 -0.2426
  842loPI   C4A12798  11.787  13.651   7.035 -0.5492 -0.3469  0.0359
  842loPI   C5A12799  11.954  13.978   7.348 -0.0869 -0.0658 -0.0556
  842loPI   C6A12800  12.283  14.292   7.325 -0.2289  0.0801 -0.1575
  842loPI   C1B12801  12.391  12.861   6.067  0.0426 -0.0077 -0.1613
  842loPI   C2B12802  12.200  12.985   6.495  0.0222  0.0904  0.1226
  842loPI   C3B12803  12.005  13.251   6.820 -0.1971  0.1394 -0.0963
  842loPI   C4B12804  12.167  13.460   7.238  0.0965  0.0080  0.1729
  843loPI    C112805  12.515   8.720   4.877 -0.1326 -0.1240  0.1134
  843loPI    C212806  12.391   8.370   4.727  0.0616 -0.0851 -0.1459
  843loPI    C312807  12.380   8.700   4.501  0.2852 -0.0088 -0.0483
  843loPI   PO412808  12.376   8.727   5.149 -0.0096 -0.0493  0.0776
  843loPI   GL112809  12.558   8.797   5.630 -0.2067  0.3295 -0.1057
  843loPI   GL212810  12.460   8.998   5.596  0.1362 -0.2903  0.2270
  843loPI   C1A12811  12.324   8.616   5.976  0.1467  0.2225 -0.4091
  843loPI   C2A12812  11.932   8.579   6.277 -0.0900  0.1345 -0.0708
  843loPI   C3A12813  11.728   8.608   6.632 -0.0767  0.0284  0.1811
  843loPI   C4A12814  11.612   8.725   7.042 -0.1753  0.1593 -0.0222
  843loPI   C5A12815  11.884   8.682   7.394  0.0002  0.0356 -0.0277
  843loPI   C6A12816  11.891   8.670   7.847 -0.2164  0.1189  0.1629
  843loPI   C1B12817  12.768   9.208   5.773  0.1136  0.0437 -0.1215
  843loPI   C2B12818  12.804   9.468   6.143  0.3720  0.1609  0.1645
  843loPI   C3B12819  12.803   9.467   6.640 -0.0058  0.1312 -0.2535
  843loPI   C4B12820  12.406   9.478   6.804  0.1851  0.2471  0.5117
  844loPI    C112821   5.366   5.463   4.689  0.0561  0.3736 -0.0383
  844loPI    C212822   5.512   5.457   4.316  0.1283  0.2419 -0.0085
  844loPI    C312823   5.210   5.703   4.409  0.1211  0.2871 -0.1495
  844loPI   PO412824   5.305   5.200   4.789  0.1136  0.2321  0.3841
  844loPI   GL112825   5.301   5.124   5.223 -0.0662  0.0527 -0.0681
  844loPI   GL212826   5.019   5.001   5.206  0.0813  0.0780 -0.0879
  844loPI   C1A12827   5.422   5.165   5.634  0.0309 -0.1167  0.2110
  844loPI   C2A12828   5.481   5.107   6.043 -0.4566  0.0388 -0.2686
  844loPI   C3A12829   5.373   4.905   6.380  0.3013  0.4536 -0.0142
  844loPI   C4A12830   5.563   4.943   6.763 -0.0120 -0.0218 -0.1525
  844loPI   C5A12831   5.617   5.146   7.102 -0.2565 -0.0079 -0.0670
  844loPI   C6A12832   5.444   5.414   7.336 -0.1606  0.0396 -0.0192
  844loPI   C1B12833   4.989   5.041   5.730  0.6274 -0.0579  0.0892
  844loPI   C2B12834   4.643   5.257   5.943 -0.1359  0.2098 -0.0343
  844loPI   C3B12835   4.570   5.165   6.307 -0.1237 -0.0260  0.1808
  844loPI   C4B12836   4.590   5.303   6.731  0.0328  0.0127 -0.1422
  845loPI    C112837   5.378  15.272   4.588  0.1568 -0.1725 -0.0596
  845loPI    C212838   5.379  15.578   4.329 -0.1939 -0.0601  0.0655
  845loPI    C312839   5.220  15.226   4.223 -0.0412 -0.1162  0.0182
  845loPI   PO412840   5.368  15.422   4.834 -0.0378  0.2962 -0.0678
  845loPI   GL112841   5.275  15.330   5.242  0.0718  0.4231 -0.0933
  845loPI   GL212842   5.289  15.147   5.482 -0.2738  0.0613  0.0515
  845loPI   C1A12843   4.928  15.522   5.551  0.2170  0.0848 -0.2495
  845loPI   C2A12844   4.869  15.500   5.953 -0.0384 -0.2960 -0.5969
  845loPI   C3A12845   4.866  15.577   6.401 -0.0039  0.1546 -0.1664
  845loPI   C4A12846   5.071  15.564   6.806 -0.0977  0.1359  0.1557
  845loPI   C5A12847   5.237  15.728   7.255 -0.2072 -0.2442 -0.0400
  845loPI   C6A12848   5.079  15.872   7.736 -0.0542 -0.1156  0.2007
  845loPI   C1B12849   5.279  15.256   5.972  0.0472  0.6139 -0.0797
  845loPI   C2B12850   5.254  15.265   6.415 -0.1862 -0.2978  0.2409
  845loPI   C3B12851   5.378  15.106   6.688 -0.0009 -0.2311 -0.0924
  845loPI   C4B12852   5.406  15.284   7.121  0.2064  0.1073  0.3775
  846loPI    C112853  13.054  12.799   5.181  0.2500 -0.0626  0.1149
  846loPI    C212854  13.029  12.994   4.832  0.0242 -0.1262  0.0936
  846loPI    C312855  12.872  13.155   5.163 -0.0515 -0.2147  0.1010
  846loPI   PO412856  13.367  12.782   5.242  0.1171 -0.1154  0.0707
  846loPI   GL112857  13.613  13.275   5.326 -0.1854  0.0368  0.4073
  846loPI   GL212858  13.324  13.280   5.212 -0.0335  0.2358  0.0121
  846loPI   C1A12859  13.604  13.183   5.720 -0.0810  0.1228  0.3564
  846loPI   C2A12860  13.458  13.125   6.056  0.1696 -0.2477 -0.1758
  846loPI   C3A12861  13.290  13.057   6.468 -0.0658 -0.0425  0.2055
  846loPI   C4A12862  13.288  12.810   6.867 -0.1245 -0.0424  0.1866
  846loPI   C5A12863  13.186  12.820   7.247  0.0913 -0.1142  0.0802
  846loPI   C6A12864  13.234  12.599   7.686 -0.3234  0.2589 -0.0365
  846loPI   C1B12865  13.119  13.238   5.666  0.2823 -0.0452  0.0769
  846loPI   C2B12866  12.947  13.021   6.073 -0.1231  0.0166 -0.1830
  846loPI   C3B12867  12.783  12.889   6.559  0.3137 -0.2893 -0.3175
  846loPI   C4B12868  12.790  12.748   6.959  0.0725 -0.0156 -0.4191
  847loPI    C112869   9.456   1.035   4.718 -0.0043 -0.0994  0.0365
  847loPI    C212870   9.318   0.955   4.352 -0.1878 -0.2347  0.1337
  847loPI    C312871   9.357   1.335   4.472 -0.0053 -0.1867 -0.0702
  847loPI   PO412872   9.230   0.940   4.956  0.0866  0.0087  0.1585
  847loPI   GL112873   9.165   1.058   5.376 -0.1729 -0.2442 -0.1669
  847loPI   GL212874   9.468   1.288   5.425 -0.1574  0.1594  0.1763
  847loPI   C1A12875   8.946   1.267   5.568 -0.0395  0.1382  0.0931
  847loPI   C2A12876   8.852   1.117   5.981  0.2119 -0.1410 -0.5168
  847loPI   C3A12877   8.662   1.080   6.453 -0.0103  0.1269  0.0889
  847loPI   C4A12878   8.399   0.855   6.737  0.0147 -0.0434  0.0827
  847loPI   C5A12879   8.315   0.882   7.182 -0.1343 -0.0336 -0.1786
  847loPI   C6A12880   7.865   0.687   7.401 -0.2996  0.0812 -0.1773
  847loPI   C1B12881   9.344   1.215   5.884  0.1874  0.0570 -0.0476
  847loPI   C2B12882   9.207   1.041   6.291 -0.2517  0.0735  0.1008
  847loPI   C3B12883   9.428   0.677   6.533  0.0703 -0.3209 -0.0418
  847loPI   C4B12884   9.569   0.430   6.802  0.0905 -0.1213 -0.1779
  848loPI    C112885  13.751   2.800   4.615 -0.1442 -0.1410 -0.1548
  848loPI    C212886  13.535   3.082   4.431 -0.1011 -0.0391 -0.0511
  848loPI    C312887  13.620   2.739   4.243 -0.2584 -0.0340 -0.1327
  848loPI   PO412888  13.992   2.866   4.716  0.0783 -0.4314  0.1363
  848loPI   GL112889  14.321   2.872   5.079 -0.1465  0.2771 -0.0621
  848loPI   GL212890  14.592   2.656   5.225  0.0966 -0.0264 -0.1780
  848loPI   C1A12891  14.417   2.957   5.548 -0.1174  0.5327  0.0581
  848loPI   C2A12892  14.317   3.038   6.013 -0.0981 -0.0132  0.1266
  848loPI   C3A12893  14.252   3.047   6.512 -0.0975 -0.0784  0.0217
  848loPI   C4A12894  14.131   2.980   6.894  0.3152 -0.0147  0.1922
  848loPI   C5A12895  14.305   2.942   7.282 -0.0216  0.3970 -0.0726
  848loPI   C6A12896  14.215   2.732   7.666 -0.0690 -0.1457  0.3841
  848loPI   C1B12897  14.607   2.432   5.592 -0.1410 -0.1103  0.1174
  848loPI   C2B12898  14.831   2.112   5.860  0.1178 -0.4081  0.2713
  848loPI   C3B12899  14.974   2.122   6.303  0.1060 -0.1694  0.3146
  848loPI   C4B12900  15.277   1.805   6.529  0.0647  0.2421  0.0290
  849loPI    C112901  15.101   6.335   5.074 -0.1081  0.0401 -0.0320
  849loPI    C212902  15.316   6.566   5.319 -0.1692  0.4018 -0.3117
  849loPI    C312903  15.454   6.477   4.954 -0.1121 -0.0734 -0.1812
  849loPI   PO412904  15.047   6.173   5.176 -0.0981 -0.1051 -0.0922
  849loPI   GL112905  14.844   6.166   5.480 -0.0404  0.6228 -0.1929
  849loPI   GL212906  14.786   6.507   5.481  0.0282  0.3100 -0.1133
  849loPI   C1A12907  14.776   6.115   5.890  0.2628 -0.1666  0.0167
  849loPI   C2A12908  14.637   6.045   6.212  0.0004  0.0289 -0.2247
  849loPI   C3A12909  14.734   6.091   6.608 -0.1203  0.1079  0.1416
  849loPI   C4A12910  14.871   6.078   7.072 -0.1854 -0.0117  0.4480
  849loPI   C5A12911  14.736   6.262   7.440 -0.0959 -0.0526  0.2368
  849loPI   C6A12912  14.424   6.510   7.620 -0.2213  0.2569 -0.0232
  849loPI   C1B12913  15.024   6.644   5.687  0.3159  0.2047  0.1940
  849loPI   C2B12914  15.324   6.713   6.014  0.0415 -0.3596 -0.0009
  849loPI   C3B12915  15.345   6.694   6.490  0.0986  0.0233 -0.3636
  849loPI   C4B12916  15.565   6.780   6.850 -0.0937  0.0247 -0.1184
  850loPI    C112917   8.345   0.996   4.710  0.0458  0.1080  0.0098
  850loPI    C212918   8.041   1.151   4.502 -0.0476 -0.0513  0.0262
  850loPI    C312919   8.112   0.757   4.490  0.0714 -0.0338  0.1344
  850loPI   PO412920   8.291   0.999   5.010 -0.2658  0.0183 -0.2858
  850loPI   GL112921   8.535   1.028   5.433  0.0281  0.0026 -0.1795
  850loPI   GL212922   8.762   0.765   5.551 -0.1617 -0.2318  0.0218
  850loPI   C1A12923   8.375   1.088   5.823 -0.3941  0.1764  0.3019
  850loPI   C2A12924   8.248   0.994   6.245 -0.1618 -0.0901 -0.0419
  850loPI   C3A12925   7.914   1.117   6.493 -0.0029 -0.3662 -0.0211
  850loPI   C4A12926   7.942   1.000   6.935 -0.1584  0.0882 -0.1632
  850loPI   C5A12927   7.997   1.277   7.257 -0.0252 -0.2252  0.1068
  850loPI   C6A12928   7.868   1.749   7.306 -0.1455  0.0859  0.3612
  850loPI   C1B12929   9.124   0.757   5.788  0.0283  0.0662 -0.0572
  850loPI   C2B12930   9.009   0.629   6.117 -0.0802 -0.0212 -0.1247
  850loPI   C3B12931   8.920   0.596   6.607  0.1000 -0.1083  0.0122
  850loPI   C4B12932   8.738   0.596   7.077 -0.2930  0.1509  0.1377
  851loPI    C112933   3.684  14.987   4.833 -0.1720 -0.0366  0.0787
  851loPI    C212934   3.446  14.738   4.628 -0.1624  0.0273 -0.0105
  851loPI    C312935   3.759  14.910   4.447 -0.1036  0.0174  0.0811
  851loPI   PO412936   3.520  15.154   4.950  0.2596  0.1109 -0.2335
  851loPI   GL112937   3.855  15.195   5.349  0.3311  0.0203  0.2107
  851loPI   GL212938   3.961  14.947   5.285 -0.0733 -0.1008  0.0034
  851loPI   C1A12939   3.909  15.356   5.735 -0.2638 -0.1548  0.0772
  851loPI   C2A12940   3.963  15.560   6.146 -0.3102  0.0950 -0.2129
  851loPI   C3A12941   3.860  15.564   6.610  0.0055 -0.1146 -0.0727
  851loPI   C4A12942   3.766  15.393   6.964 -0.2805  0.0155  0.0153
  851loPI   C5A12943   3.954  15.121   7.231  0.0473  0.2037  0.1777
  851loPI   C6A12944   3.768  14.655   7.277  0.2132  0.0677 -0.2519
  851loPI   C1B12945   3.728  14.882   5.668 -0.0076 -0.0965  0.0370
  851loPI   C2B12946   3.608  14.655   6.031  0.2680 -0.3008 -0.0454
  851loPI   C3B12947   3.587  14.570   6.457  0.0540 -0.1063 -0.0427
  851loPI   C4B12948   3.495  14.464   6.833  0.1257  0.1513  0.1994
  852loPI    C112949  12.643   5.437   4.793  0.1412  0.1485  0.0463
  852loPI    C212950  12.318   5.464   4.562  0.2131  0.1487 -0.0551
  852loPI    C312951  12.618   5.725   4.517  0.2764  0.0791 -0.0394
  852loPI   PO412952  12.537   5.485   5.036  0.2799 -0.3643 -0.1621
  852loPI   GL112953  12.339   5.440   5.410 -0.1334  0.0044 -0.0967
  852loPI   GL212954  12.536   5.505   5.710  0.0088  0.2780 -0.0165
  852loPI   C1A12955  11.965   5.216   5.709 -0.2472 -0.0707  0.1070
  852loPI   C2A12956  11.727   5.440   6.101  0.2404 -0.1107 -0.1384
  852loPI   C3A12957  11.705   5.588   6.474 -0.2513  0.0489  0.1784
  852loPI   C4A12958  11.967   5.439   6.864  0.0305  0.1370 -0.1550
  852loPI   C5A12959  12.252   5.278   7.300 -0.2901 -0.2707 -0.1259
  852loPI   C6A12960  12.595   5.219   7.621 -0.0098 -0.2301  0.1417
  852loPI   C1B12961  12.379   5.372   6.031  0.3249 -0.0926 -0.0430
  852loPI   C2B12962  12.236   5.537   6.401  0.3369  0.0893 -0.1548
  852loPI   C3B12963  12.210   5.844   6.671  0.1258  0.0591  0.0546
  852loPI   C4B12964  12.324   6.259   6.879 -0.1061 -0.1236 -0.0219
  853loPI    C112965   6.821  16.509   4.413  0.0360  0.0591  0.0481
  853loPI    C212966   7.051  16.537   4.087 -0.0941  0.1421 -0.0379
  853loPI    C312967   6.884  16.866   4.243 -0.0374  0.1019  0.1102
  853loPI   PO412968   6.984  16.408   4.616 -0.2977 -0.0054 -0.2044
  853loPI   GL112969   6.922  16.186   4.978  0.1574 -0.0030 -0.3133
  853loPI   GL212970   6.965  16.540   5.100  0.1256 -0.0312  0.0724
  853loPI   C1A12971   7.048  16.122   5.532 -0.0570  0.2638  0.2942
  853loPI   C2A12972   7.178  15.895   5.894 -0.2231  0.0581 -0.2464
  853loPI   C3A12973   7.061  15.742   6.257 -0.2140  0.0958 -0.0288
  853loPI   C4A12974   6.873  16.040   6.596  0.1297 -0.1043  0.1925
  853loPI   C5A12975   7.128  16.215   6.875  0.0679  0.0625 -0.2393
  853loPI   C6A12976   7.551  16.420   6.929  0.0821  0.0843 -0.3935
  853loPI   C1B12977   6.846  16.604   5.599 -0.1425 -0.4343  0.3602
  853loPI   C2B12978   7.245  16.434   5.909 -0.1610 -0.1214  0.0051
  853loPI   C3B12979   7.393  16.170   6.380 -0.0012 -0.0562 -0.2754
  853loPI   C4B12980   7.518  15.955   6.694  0.1493 -0.2081  0.0451
  854loPI    C112981   6.795   7.327   4.577 -0.0591 -0.1029  0.0896
  854loPI    C212982   7.170   7.283   4.447 -0.1834  0.0574 -0.3407
  854loPI    C312983   6.917   6.973   4.436 -0.0921 -0.0260 -0.1368
  854loPI   PO412984   6.782   7.561   4.866 -0.1034 -0.0948 -0.0458
  854loPI   GL112985   6.829   7.543   5.270  0.0589  0.0999  0.2940
  854loPI   GL212986   7.112   7.444   5.336  0.0227 -0.2692 -0.0922
  854loPI   C1A12987   6.648   7.292   5.670  0.2504 -0.2110  0.0396
  854loPI   C2A12988   6.432   7.265   6.050 -0.0534  0.0766  0.2149
  854loPI   C3A12989   6.619   7.405   6.395  0.2659 -0.0822 -0.0311
  854loPI   C4A12990   7.062   7.319   6.567  0.0751  0.1589 -0.0015
  854loPI   C5A12991   7.500   7.274   6.323 -0.0537  0.1190  0.0050
  854loPI   C6A12992   7.769   7.170   5.971  0.3607 -0.4016  0.0475
  854loPI   C1B12993   7.224   7.268   5.823  0.1515  0.1432  0.2070
  854loPI   C2B12994   6.972   7.079   6.176 -0.1391  0.0212 -0.2240
  854loPI   C3B12995   6.735   6.938   6.524  0.3313  0.3059  0.1597
  854loPI   C4B12996   6.683   6.637   6.877  0.0673  0.0597  0.0521
  855loPI    C112997  15.351   7.794   4.632 -0.0997 -0.1665  0.0605
  855loPI    C212998  15.559   7.455   4.669 -0.0235 -0.1253  0.0122
  855loPI    C312999  15.203   7.451   4.488 -0.0249 -0.1802  0.0156
  855loPI   PO413000  15.375   7.869   4.922  0.0821  0.2431 -0.1366
  855loPI   GL113001  15.359   7.965   5.351  0.1215 -0.0289  0.0537
  855loPI   GL213002  15.119   8.055   5.549 -0.2818  0.3400 -0.2106
  855loPI   C1A13003  15.307   7.633   5.683  0.1145  0.0425  0.1104
  855loPI   C2A13004  15.072   7.723   6.071  0.2649  0.0861 -0.0052
  855loPI   C3A13005  15.009   7.510   6.491  0.2788  0.1724  0.2143
  855loPI   C4A13006  15.069   7.632   6.916 -0.3068  0.0313 -0.2968
  855loPI   C5A13007  14.983   7.946   7.203 -0.1070  0.0584  0.0798
  855loPI   C6A13008  14.815   8.283   7.564 -0.1589 -0.2587  0.2514
  855loPI   C1B13009  15.158   8.173   5.946 -0.2454 -0.0692  0.3488
  855loPI   C2B13010  14.991   8.423   6.352 -0.1270 -0.0493  0.0564
  855loPI   C3B13011  14.814   8.744   6.581  0.0285 -0.1357  0.0709
  855loPI   C4B13012  14.999   9.066   6.959  0.0919  0.0774  0.0252
  856loPI    C113013  17.932  10.941   4.757 -0.2167 -0.1491  0.1227
  856loPI    C213014  17.558  10.854   4.644 -0.1677 -0.0197 -0.1461
  856loPI    C313015  17.867  10.755   4.409 -0.0384 -0.0407  0.0301
  856loPI   PO413016  17.996  11.288   4.864  0.0953  0.1411  0.0644
  856loPI   GL113017  17.896  11.402   5.298  0.2574  0.1067 -0.1214
  856loPI   GL213018  18.180  11.366   5.501 -0.0886  0.2218 -0.1061
  856loPI   C1A13019  17.644  11.447   5.758  0.3566  0.2700 -0.1986
  856loPI   C2A13020  17.470  11.635   6.116  0.3767  0.0672  0.1357
  856loPI   C3A13021  17.349  11.717   6.504  0.3528  0.2230  0.0508
  856loPI   C4A13022  17.165  11.782   6.909  0.3723 -0.0207  0.2183
  856loPI   C5A13023  17.196  11.602   7.312 -0.1489 -0.1621  0.3850
  856loPI   C6A13024  17.474  11.732   7.624  0.0940  0.1045  0.3327
  856loPI   C1B13025  18.160  11.366   5.785 -0.0305 -0.1149 -0.0489
  856loPI   C2B13026  17.923  11.506   6.261 -0.0039 -0.0728 -0.2175
  856loPI   C3B13027  17.925  11.661   6.697  0.0632 -0.0671 -0.1317
  856loPI   C4B13028  17.597  11.617   7.026  0.1227 -0.1052 -0.1519
  857loPI    C113029   5.378   0.116   4.623  0.0629 -0.0539  0.2255
  857loPI    C213030   5.551   0.438   4.461  0.0854 -0.0913  0.1748
  857loPI    C313031   5.652   0.072   4.335 -0.1902 -0.1062 -0.0113
  857loPI   PO413032   5.401   0.181   4.880 -0.0809  0.0552  0.0608
  857loPI   GL113033   5.429   0.439   5.193 -0.2352  0.1103  0.0218
  857loPI   GL213034   5.387   0.725   5.323  0.0519 -0.1188 -0.1760
  857loPI   C1A13035   5.171   0.143   5.480 -0.0676 -0.3304  0.0037
  857loPI   C2A13036   5.456  -0.055   5.815  0.2981 -0.0646 -0.0431
  857loPI   C3A13037   5.752  -0.366   5.926  0.1094  0.1039  0.0079
  857loPI   C4A13038   5.743  -0.762   5.835 -0.3985  0.1035  0.3910
  857loPI   C5A13039   5.892  -1.118   5.817 -0.1384  0.1565  0.1701
  857loPI   C6A13040   5.988  -1.496   5.667 -0.0997  0.0586  0.1221
  857loPI   C1B13041   5.633   0.899   5.649  0.0965 -0.0415 -0.1154
  857loPI   C2B13042   5.762   0.930   6.028  0.0512 -0.0835  0.1223
  857loPI   C3B13043   5.999   0.860   6.419  0.0604 -0.0161  0.4126
  857loPI   C4B13044   5.988   0.687   6.823  0.1636  0.0604  0.0496
  858loPI    C113045  17.355   0.086   4.118  0.0351 -0.1601 -0.1335
  858loPI    C213046  17.503   0.449   4.038 -0.1213 -0.1330 -0.3037
  858loPI    C313047  17.690   0.122   3.903  0.1310 -0.1267  0.0197
  858loPI   PO413048  17.354   0.014   4.465  0.3136  0.1478  0.0864
  858loPI   GL113049  17.692  -0.104   4.829 -0.0941  0.2276  0.3174
  858loPI   GL213050  17.998  -0.096   4.938 -0.1757 -0.1661 -0.0590
  858loPI   C1A13051  17.642  -0.026   5.264  0.0478 -0.2147 -0.0814
  858loPI   C2A13052  17.304   0.044   5.488  0.0527  0.1587 -0.0581
  858loPI   C3A13053  17.347   0.164   5.877 -0.0741  0.0055  0.2063
  858loPI   C4A13054  17.317  -0.022   6.345  0.1030 -0.1211 -0.0215
  858loPI   C5A13055  17.083   0.004   6.677 -0.1237 -0.2288 -0.0804
  858loPI   C6A13056  17.052   0.218   6.998  0.0916  0.1275 -0.2594
  858loPI   C1B13057  18.247  -0.266   5.220 -0.1643 -0.0605 -0.2854
  858loPI   C2B13058  18.364  -0.143   5.643  0.0480 -0.0567  0.0635
  858loPI   C3B13059  18.362  -0.119   6.101  0.0284 -0.2014 -0.0421
  858loPI   C4B13060  18.586  -0.120   6.431  0.0884  0.1419  0.1867
  859loPI    C113061   1.966   2.958   4.957  0.0811  0.0637 -0.0548
  859loPI    C213062   2.318   2.958   4.766 -0.0084 -0.1253 -0.2238
  859loPI    C313063   2.169   2.616   4.912  0.1754  0.0514  0.4120
  859loPI   PO413064   1.844   3.092   4.871 -0.0875  0.1672 -0.3749
  859loPI   GL113065   1.518   2.989   5.182 -0.2135 -0.2015  0.1170
  859loPI   GL213066   1.772   2.890   5.434  0.0947 -0.1200 -0.0849
  859loPI   C1A13067   1.247   3.003   5.680  0.1020  0.1493 -0.1361
  859loPI   C2A13068   1.340   2.897   6.072  0.2312 -0.0136 -0.0149
  859loPI   C3A13069   1.344   2.635   6.425  0.0780  0.3101  0.0526
  859loPI   C4A13070   1.314   2.434   6.812 -0.2275  0.0086  0.2738
  859loPI   C5A13071   1.169   2.369   7.233  0.1908  0.0823  0.0101
  859loPI   C6A13072   1.163   2.544   7.626  0.1033 -0.2517 -0.0140
  859loPI   C1B13073   1.753   2.884   5.817 -0.0765  0.0172 -0.2997
  859loPI   C2B13074   1.757   2.638   6.198  0.2336  0.3378 -0.1150
  859loPI   C3B13075   1.792   2.461   6.679  0.1622  0.0590  0.4635
  859loPI   C4B13076   1.778   2.544   7.167 -0.4561  0.0300  0.1240
  860loPI    C113077  15.603  11.211   5.013  0.1067 -0.2095  0.1390
  860loPI    C213078  15.336  11.499   4.939  0.3409  0.0470  0.2744
  860loPI    C313079  15.446  11.249   4.647  0.0200 -0.0073  0.1960
  860loPI   PO413080  15.657  11.299   5.242  0.0827 -0.0827 -0.0980
  860loPI   GL113081  15.668  11.242   5.634  0.3219  0.3364  0.3602
  860loPI   GL213082  15.583  10.904   5.669  0.0510 -0.3733  0.1000
  860loPI   C1A13083  15.566  11.585   5.986  0.0436 -0.1489  0.0941
  860loPI   C2A13084  15.559  11.609   6.408 -0.2796  0.2034  0.2162
  860loPI   C3A13085  15.458  11.672   6.784  0.0493 -0.1898 -0.1311
  860loPI   C4A13086  15.652  11.857   7.088  0.1082 -0.2002 -0.1153
  860loPI   C5A13087  15.970  12.214   7.143  0.2572  0.0198 -0.0468
  860loPI   C6A13088  16.161  12.536   7.377 -0.2859  0.0909 -0.2554
  860loPI   C1B13089  15.698  10.719   6.053  0.0965  0.2343  0.0001
  860loPI   C2B13090  15.770  10.716   6.456  0.0853  0.1618  0.1949
  860loPI   C3B13091  15.775  10.790   6.901  0.1083  0.2806  0.2681
  860loPI   C4B13092  15.923  10.488   7.081 -0.1764 -0.0004 -0.0712
  861loPI    C113093   3.492  15.620   4.769  0.0973 -0.1252 -0.0325
  861loPI    C213094   3.366  15.609   4.390  0.0698  0.0091 -0.0276
  861loPI    C313095   3.669  15.375   4.507 -0.0012 -0.1213 -0.1028
  861loPI   PO413096   3.242  15.593   4.872  0.1841 -0.3668  0.2542
  861loPI   GL113097   3.218  15.610   5.208  0.0690  0.1683  0.2870
  861loPI   GL213098   3.307  15.393   5.340 -0.1031  0.1545  0.0816
  861loPI   C1A13099   3.142  15.892   5.608  0.0677 -0.1442  0.2771
  861loPI   C2A13100   3.242  16.038   6.049  0.0785  0.0583 -0.0799
  861loPI   C3A13101   3.239  16.246   6.336 -0.0302  0.0818  0.0431
  861loPI   C4A13102   3.118  16.094   6.765 -0.0208  0.2072  0.0061
  861loPI   C5A13103   2.945  15.865   7.037  0.1728 -0.1896 -0.2810
  861loPI   C6A13104   2.830  15.468   7.319 -0.0141 -0.1116 -0.1471
  861loPI   C1B13105   3.369  15.175   5.709 -0.0471  0.1041 -0.0283
  861loPI   C2B13106   3.461  15.187   6.130  0.1646 -0.1557  0.1235
  861loPI   C3B13107   3.484  15.155   6.512 -0.1443  0.4987  0.1605
  861loPI   C4B13108   3.587  14.949   6.925  0.0451 -0.1449 -0.3796
  862loPI    C113109   7.193  11.249   4.853 -0.1605 -0.1510  0.1470
  862loPI    C213110   7.559  11.408   4.838 -0.2621  0.0914  0.1797
  862loPI    C313111   7.273  11.586   5.053 -0.4946  0.1014 -0.1306
  862loPI   PO413112   7.161  10.940   4.925  0.1983  0.2745 -0.0980
  862loPI   GL113113   7.085  10.555   5.227 -0.0412 -0.1744  0.0685
  862loPI   GL213114   7.272  10.736   5.401  0.2393  0.1022  0.3487
  862loPI   C1A13115   6.778  10.622   5.503  0.3781 -0.1746  0.0225
  862loPI   C2A13116   6.674  10.757   5.924  0.1529  0.0822  0.3389
  862loPI   C3A13117   6.447  10.496   6.186  0.0567 -0.1450 -0.0351
  862loPI   C4A13118   6.224  10.359   6.568 -0.2382 -0.1480 -0.1758
  862loPI   C5A13119   6.358  10.517   6.887  0.2374  0.0205  0.0126
  862loPI   C6A13120   6.354  10.424   7.316  0.0508  0.4847  0.0430
  862loPI   C1B13121   7.605  10.871   5.687 -0.0862  0.2513 -0.0220
  862loPI   C2B13122   7.685  10.993   6.042 -0.2306  0.3403 -0.2447
  862loPI   C3B13123   7.969  11.079   6.325  0.2175 -0.0056 -0.0801
  862loPI   C4B13124   8.338  11.300   6.280 -0.2912 -0.1001  0.2062
  863loPI    C113125   0.196  15.898   4.873  0.0774  0.1111 -0.1577
  863loPI    C213126  -0.144  15.838   4.672  0.0566 -0.3536  0.0035
  863loPI    C313127   0.208  15.768   4.495  0.0758  0.1433 -0.1688
  863loPI   PO413128   0.142  16.154   5.041  0.1353  0.0186 -0.1632
  863loPI   GL113129   0.168  16.150   5.449  0.0515  0.4003  0.0593
  863loPI   GL213130   0.411  16.318   5.452  0.1449  0.2352  0.1130
  863loPI   C1A13131   0.065  16.247   5.910  0.0653  0.0726  0.2769
  863loPI   C2A13132  -0.002  16.106   6.318  0.0699 -0.0415  0.6099
  863loPI   C3A13133   0.153  15.812   6.647  0.0202 -0.1963  0.2352
  863loPI   C4A13134   0.316  15.866   7.107 -0.1997 -0.2504 -0.0098
  863loPI   C5A13135   0.346  16.137   7.529 -0.0545 -0.0357  0.0070
  863loPI   C6A13136   0.097  16.460   7.731 -0.3112  0.0194  0.1828
  863loPI   C1B13137   0.583  16.395   5.762  0.0823  0.1507 -0.1980
  863loPI   C2B13138   0.436  16.451   6.141  0.0944  0.0134 -0.0827
  863loPI   C3B13139   0.333  16.375   6.515  0.2579  0.0971 -0.0585
  863loPI   C4B13140   0.392  16.290   6.877 -0.0170  0.1947 -0.2364
  864loPI    C113141  13.861  10.719   4.973 -0.2954 -0.0635  0.2228
  864loPI    C213142  13.973  11.080   5.104 -0.1000 -0.1486  0.2942
  864loPI    C313143  14.244  10.788   5.065 -0.1919 -0.1872 -0.1000
  864loPI   PO413144  13.706  10.652   5.085 -0.3059  0.0365  0.1121
  864loPI   GL113145  13.724  10.747   5.460  0.1577  0.0409  0.2815
  864loPI   GL213146  14.129  10.841   5.519 -0.2860  0.1448 -0.1775
  864loPI   C1A13147  13.774  10.613   5.937  0.1010  0.1147 -0.2977
  864loPI   C2A13148  13.845  10.486   6.380 -0.0300 -0.3000  0.1022
  864loPI   C3A13149  13.875  10.697   6.701 -0.0366 -0.4748  0.4872
  864loPI   C4A13150  13.956  10.927   7.089 -0.0457 -0.2177 -0.1765
  864loPI   C5A13151  13.829  11.061   7.530  0.1221 -0.2482 -0.0777
  864loPI   C6A13152  13.691  11.295   7.872  0.0207  0.0508 -0.0893
  864loPI   C1B13153  14.176  10.899   6.006 -0.2444 -0.2335  0.0122
  864loPI   C2B13154  14.282  11.043   6.303 -0.0287  0.1228  0.2680
  864loPI   C3B13155  14.220  11.227   6.750 -0.2587 -0.3050 -0.0051
  864loPI   C4B13156  14.295  11.286   7.114 -0.3958  0.1049  0.0568
  865loPI    C113157  18.756  18.427   4.296 -0.1557  0.1698  0.0841
  865loPI    C213158  18.409  18.620   4.249 -0.2242 -0.0609 -0.4264
  865loPI    C313159  18.710  18.684   3.993  0.0902  0.0783 -0.0335
  865loPI   PO413160  18.856  18.519   4.595  0.2860  0.1454  0.0980
  865loPI   GL113161  18.762  18.339   5.091 -0.3726 -0.0291 -0.4043
  865loPI   GL213162  18.661  18.608   5.131 -0.0458 -0.1173 -0.2545
  865loPI   C1A13163  18.924  18.207   5.463 -0.0331 -0.2128 -0.0503
  865loPI   C2A13164  18.995  18.302   5.964 -0.2922 -0.0479  0.0501
  865loPI   C3A13165  18.955  18.415   6.418 -0.1149 -0.0773 -0.0320
  865loPI   C4A13166  19.006  18.367   6.807 -0.3656 -0.1035  0.3570
  865loPI   C5A13167  19.253  18.283   7.147 -0.1453  0.2917  0.1021
  865loPI   C6A13168  19.429  18.475   7.324 -0.0196  0.1777 -0.1429
  865loPI   C1B13169  18.859  18.695   5.676 -0.0273  0.0067  0.1899
  865loPI   C2B13170  19.032  18.824   6.062 -0.1462  0.1894 -0.0065
  865loPI   C3B13171  19.286  18.802   6.462 -0.5999 -0.0066 -0.2311
  865loPI   C4B13172  19.416  18.384   6.585  0.2837  0.0347 -0.1674
  866loPI    C113173   0.459   9.983   5.233 -0.2083  0.1545  0.0449
  866loPI    C213174   0.376   9.641   5.425 -0.1584  0.0594 -0.1015
  866loPI    C313175   0.226   9.708   5.060  0.0514  0.0751 -0.1867
  866loPI   PO413176   0.418  10.152   5.427  0.1767  0.0104  0.2507
  866loPI   GL113177   0.291  10.117   5.833 -0.4669 -0.1482 -0.2241
  866loPI   GL213178   0.366   9.768   5.908  0.0235  0.1975 -0.0160
  866loPI   C1A13179   0.588  10.321   6.093  0.1653  0.1319 -0.0255
  866loPI   C2A13180   0.377  10.315   6.618  0.1682  0.1549  0.2619
  866loPI   C3A13181   0.558  10.498   6.982  0.1298  0.0905 -0.0829
  866loPI   C4A13182   0.943  10.321   7.162 -0.1405  0.0807  0.1894
  866loPI   C5A13183   1.231  10.032   7.472 -0.0775  0.1214  0.1477
  866loPI   C6A13184   1.514   9.727   7.710  0.1238  0.1307 -0.0404
  866loPI   C1B13185   0.451   9.861   6.262 -0.0133  0.0931  0.2704
  866loPI   C2B13186   0.645   9.888   6.564 -0.1155  0.2037 -0.0460
  866loPI   C3B13187   0.626   9.959   6.993  0.1370  0.2423 -0.1893
  866loPI   C4B13188   0.532   9.822   7.415  0.0196 -0.0322 -0.0555
  867loPI    C113189   7.908  16.707   4.764  0.0263 -0.1411 -0.1063
  867loPI    C213190   8.178  16.800   4.484 -0.0227  0.5096  0.0461
  867loPI    C313191   7.800  16.722   4.379  0.1266 -0.0193 -0.1304
  867loPI   PO413192   7.988  16.939   5.028  0.1508  0.0074  0.1003
  867loPI   GL113193   8.033  17.073   5.425  0.2851 -0.1030  0.2607
  867loPI   GL213194   8.333  16.882   5.355 -0.1606  0.1195 -0.2063
  867loPI   C1A13195   8.072  17.231   5.807 -0.0423 -0.0787  0.1485
  867loPI   C2A13196   8.320  17.421   6.145 -0.2622  0.0768 -0.0577
  867loPI   C3A13197   8.493  17.576   6.430  0.2191  0.0706 -0.0223
  867loPI   C4A13198   8.669  17.602   6.790 -0.3537 -0.3141  0.2281
  867loPI   C5A13199   8.725  17.448   7.132 -0.0488  0.1471 -0.0378
  867loPI   C6A13200   8.403  17.083   7.359  0.2004 -0.0217  0.0146
  867loPI   C1B13201   8.149  16.733   5.771 -0.0913 -0.4868 -0.0786
  867loPI   C2B13202   8.152  16.896   6.218  0.0240 -0.1229  0.2686
  867loPI   C3B13203   8.102  17.074   6.632  0.0421 -0.1165  0.0643
  867loPI   C4B13204   7.793  17.226   6.906 -0.1548 -0.6019 -0.0766
  868loPI    C113205  12.147   2.015   4.977  0.0164 -0.0366 -0.2131
  868loPI    C213206  11.903   1.744   4.814  0.1784 -0.2996 -0.0279
  868loPI    C313207  12.005   2.072   4.608 -0.2393 -0.2390 -0.1483
  868loPI   PO413208  12.023   2.223   5.172 -0.1628  0.1974  0.1322
  868loPI   GL113209  12.120   2.471   5.591 -0.0833  0.1453  0.0211
  868loPI   GL213210  11.969   2.207   5.753  0.0185 -0.0615  0.0956
  868loPI   C1A13211  12.249   2.574   5.990  0.0532  0.0988  0.0949
  868loPI   C2A13212  12.556   2.268   6.215 -0.0145 -0.1532  0.3168
  868loPI   C3A13213  12.610   1.841   6.479  0.1292  0.0931 -0.3116
  868loPI   C4A13214  12.499   1.780   6.897  0.1949 -0.0965  0.2205
  868loPI   C5A13215  12.133   1.899   7.058  0.0751 -0.1664 -0.1433
  868loPI   C6A13216  11.805   2.157   7.129  0.2568 -0.4190  0.0743
  868loPI   C1B13217  12.070   2.042   6.068  0.0415  0.3023  0.1589
  868loPI   C2B13218  12.103   1.990   6.492  0.1730 -0.0243 -0.0103
  868loPI   C3B13219  12.369   2.249   6.711 -0.1118 -0.0785 -0.2475
  868loPI   C4B13220  12.294   2.453   7.007 -0.4416 -0.2210  0.2753
  869loPI    C113221  18.133  12.408   5.157 -0.0432 -0.1481 -0.0912
  869loPI    C213222  18.145  12.652   4.840  0.0653  0.1420  0.1312
  869loPI    C313223  18.100  12.803   5.207  0.1762 -0.1719  0.2781
  869loPI   PO413224  18.330  12.249   5.139  0.0723  0.1834 -0.1596
  869loPI   GL113225  18.511  12.135   5.478  0.2802  0.2472 -0.2691
  869loPI   GL213226  18.575  11.855   5.590  0.0451 -0.0886  0.0400
  869loPI   C1A13227  18.395  12.305   5.828 -0.1391  0.0168 -0.2423
  869loPI   C2A13228  18.357  12.430   6.204  0.0029  0.2465 -0.0908
  869loPI   C3A13229  18.120  12.501   6.492 -0.1161 -0.1212 -0.0796
  869loPI   C4A13230  18.123  12.719   6.812 -0.1135 -0.3141 -0.0265
  869loPI   C5A13231  18.014  12.518   7.174 -0.0039 -0.3082 -0.1561
  869loPI   C6A13232  18.246  12.294   7.605  0.1614  0.0098  0.3275
  869loPI   C1B13233  18.461  11.823   6.018  0.0809  0.2478 -0.0505
  869loPI   C2B13234  18.264  11.959   6.391 -0.4454 -0.2408  0.2290
  869loPI   C3B13235  18.184  12.140   6.878 -0.3739 -0.1493 -0.1047
  869loPI   C4B13236  18.063  11.918   7.302 -0.2170  0.2449 -0.0289
  870loPI    C113237   7.186   0.386   4.785  0.1743 -0.2648 -0.1807
  870loPI    C213238   7.233   0.163   5.113  0.2237  0.0871  0.0570
  870loPI    C313239   6.867   0.231   4.968  0.1928  0.0254  0.1056
  870loPI   PO413240   7.332   0.660   4.907 -0.1847  0.2213 -0.1545
  870loPI   GL113241   7.280   0.660   5.417 -0.1662 -0.0917 -0.2519
  870loPI   GL213242   6.960   0.547   5.483  0.3957  0.1887  0.2319
  870loPI   C1A13243   7.132   0.659   5.900  0.0282  0.1941  0.0235
  870loPI   C2A13244   6.985   0.698   6.264 -0.0228 -0.0190 -0.1342
  870loPI   C3A13245   7.004   1.005   6.685  0.2293  0.2242  0.1208
  870loPI   C4A13246   6.809   1.109   7.084  0.3008  0.2498 -0.1275
  870loPI   C5A13247   6.501   1.172   7.429  0.3597  0.3127  0.0467
  870loPI   C6A13248   6.092   1.157   7.814  0.1261 -0.0859 -0.2202
  870loPI   C1B13249   7.090   0.201   5.701  0.1621 -0.1058 -0.1003
  870loPI   C2B13250   7.059   0.171   6.137 -0.2264  0.0338  0.1128
  870loPI   C3B13251   7.209   0.206   6.536  0.1035 -0.0627 -0.1076
  870loPI   C4B13252   7.050   0.482   6.856  0.1732  0.0843  0.1812
  871loPI    C113253   7.596   9.506   5.095 -0.1277 -0.0277 -0.0727
  871loPI    C213254   7.652   9.822   4.857  0.0041  0.0552  0.0668
  871loPI    C313255   7.958   9.577   4.940  0.0308  0.1891  0.3782
  871loPI   PO413256   7.444   9.609   5.253  0.1884 -0.2608  0.3940
  871loPI   GL113257   7.453   9.640   5.731  0.0092  0.0798  0.1217
  871loPI   GL213258   7.247   9.903   5.806  0.1227  0.1686  0.0120
  871loPI   C1A13259   7.605   9.606   6.176 -0.1095  0.1623  0.1739
  871loPI   C2A13260   7.761   9.502   6.561 -0.0387  0.3745 -0.2488
  871loPI   C3A13261   7.543   9.385   6.977 -0.3081 -0.0866 -0.0944
  871loPI   C4A13262   7.324   9.504   7.248 -0.0814  0.1145 -0.0805
  871loPI   C5A13263   7.133   9.474   7.453  0.1091  0.0171  0.0009
  871loPI   C6A13264   6.748   9.459   7.795 -0.1096  0.1863  0.1562
  871loPI   C1B13265   7.263  10.081   6.228 -0.2235 -0.0051 -0.0329
  871loPI   C2B13266   7.296  10.309   6.565  0.0343 -0.2660 -0.0168
  871loPI   C3B13267   7.374  10.407   6.959 -0.0965  0.3602 -0.0823
  871loPI   C4B13268   7.739  10.564   7.222  0.3994  0.0736  0.2351
  872loPI    C113269   3.639   7.749   4.656 -0.0362  0.2326 -0.1009
  872loPI    C213270   3.972   7.676   4.447 -0.0732  0.1256 -0.1235
  872loPI    C313271   3.617   7.684   4.262 -0.1185 -0.0799 -0.0477
  872loPI   PO413272   3.659   7.692   4.896 -0.3647  0.0325  0.1752
  872loPI   GL113273   3.760   7.785   5.259 -0.5076  0.1999 -0.3578
  872loPI   GL213274   3.975   7.515   5.447 -0.0080 -0.1483 -0.2909
  872loPI   C1A13275   3.682   7.903   5.725 -0.1146 -0.1667  0.1286
  872loPI   C2A13276   3.706   7.922   6.128  0.0229 -0.0522 -0.1929
  872loPI   C3A13277   3.518   8.026   6.536  0.1425  0.1419 -0.0813
  872loPI   C4A13278   3.378   7.848   6.941 -0.4142 -0.1963 -0.2457
  872loPI   C5A13279   3.097   7.756   7.350  0.3236 -0.4072 -0.2353
  872loPI   C6A13280   2.991   7.408   7.526  0.3417  0.2148  0.2999
  872loPI   C1B13281   3.925   7.428   5.956  0.1036  0.0340  0.1731
  872loPI   C2B13282   3.954   7.589   6.399  0.3242 -0.0128  0.3734
  872loPI   C3B13283   4.150   7.654   6.643  0.0032  0.0114 -0.1260
  872loPI   C4B13284   3.954   8.040   6.891 -0.2042  0.2139 -0.0260
  873loPI    C113285   5.159   8.430   4.704 -0.1742  0.0102 -0.0079
  873loPI    C213286   5.252   8.411   4.316 -0.2247  0.0326 -0.0212
  873loPI    C313287   5.094   8.745   4.468 -0.0268  0.0916  0.0588
  873loPI   PO413288   5.345   8.289   4.827 -0.3618 -0.2252 -0.1106
  873loPI   GL113289   5.343   8.187   5.265 -0.2717 -0.3380 -0.0613
  873loPI   GL213290   5.267   7.914   5.286  0.1268 -0.0009 -0.2712
  873loPI   C1A13291   5.652   8.220   5.506 -0.0927  0.1020 -0.0882
  873loPI   C2A13292   5.584   8.264   5.904 -0.2178  0.0386  0.1582
  873loPI   C3A13293   5.907   8.596   6.071  0.2424  0.2567 -0.1723
  873loPI   C4A13294   5.930   8.709   6.467 -0.3734  0.1974 -0.4133
  873loPI   C5A13295   6.025   8.389   6.840  0.0342  0.2403 -0.0778
  873loPI   C6A13296   5.858   7.977   6.789  0.0062 -0.1177  0.2353
  873loPI   C1B13297   5.281   7.949   5.689  0.1332  0.2485 -0.1921
  873loPI   C2B13298   5.178   8.031   6.097 -0.0494  0.3294  0.0718
  873loPI   C3B13299   5.069   8.162   6.483 -0.0485  0.1386  0.2226
  873loPI   C4B13300   4.862   8.431   6.796 -0.2140 -0.3981  0.2850
  874loPI    C113301  14.215  12.472   5.101 -0.0252  0.1726  0.1115
  874loPI    C213302  14.345  12.851   5.089 -0.2162  0.2364  0.0136
  874loPI    C313303  14.129  12.704   4.786 -0.3013  0.1066  0.1353
  874loPI   PO413304  14.154  12.422   5.289  0.2619  0.1544  0.1331
  874loPI   GL113305  14.087  12.250   5.659 -0.0429  0.3216 -0.2593
  874loPI   GL213306  13.856  12.060   5.707 -0.0334 -0.2234  0.2205
  874loPI   C1A13307  14.252  12.382   6.003 -0.0804  0.0602  0.0927
  874loPI   C2A13308  14.287  12.580   6.358 -0.0938 -0.1995 -0.0545
  874loPI   C3A13309  14.288  12.794   6.685 -0.1458 -0.0528  0.2488
  874loPI   C4A13310  14.165  12.805   7.146 -0.1209  0.2479  0.0516
  874loPI   C5A13311  13.935  12.602   7.415  0.1794 -0.0898 -0.1589
  874loPI   C6A13312  13.735  12.231   7.790  0.0633 -0.3907  0.0187
  874loPI   C1B13313  13.923  12.042   6.162 -0.2967  0.1544 -0.3565
  874loPI   C2B13314  14.011  12.193   6.581 -0.1113  0.2844  0.0227
  874loPI   C3B13315  14.083  12.189   6.982 -0.0842  0.0512 -0.0924
  874loPI   C4B13316  13.977  12.024   7.395 -0.1147  0.0962  0.0973
  875loPI    C113317  12.401   4.785   4.620 -0.0617  0.0759  0.0404
  875loPI    C213318  12.191   5.000   4.356 -0.0356  0.1109  0.0481
  875loPI    C313319  12.413   4.692   4.231 -0.0271  0.1244  0.0298
  875loPI   PO413320  12.473   4.922   4.789  0.3082  0.2153 -0.0659
  875loPI   GL113321  12.427   5.007   5.118  0.0602  0.0090  0.0104
  875loPI   GL213322  12.754   5.124   5.368  0.6490 -0.0997 -0.0055
  875loPI   C1A13323  12.354   4.997   5.570  0.2530 -0.1233 -0.2035
  875loPI   C2A13324  12.232   4.885   5.973 -0.0976  0.1722 -0.1723
  875loPI   C3A13325  12.019   5.023   6.234  0.3161 -0.1759 -0.1774
  875loPI   C4A13326  11.749   5.059   6.558  0.1171 -0.0193 -0.2197
  875loPI   C5A13327  11.716   4.990   7.033 -0.0082  0.3272 -0.1918
  875loPI   C6A13328  11.535   5.268   7.269 -0.1403  0.0118 -0.2384
  875loPI   C1B13329  12.766   5.060   5.828 -0.4958 -0.2857  0.2520
  875loPI   C2B13330  12.726   4.900   6.260  0.1203 -0.0387 -0.0015
  875loPI   C3B13331  12.366   4.983   6.570 -0.0099 -0.2591  0.0715
  875loPI   C4B13332  12.168   4.924   6.975 -0.2228 -0.0815 -0.1975
  876loPI    C113333  13.401  18.671   4.940 -0.2702 -0.1644 -0.1157
  876loPI    C213334  13.627  18.358   4.833  0.1720  0.0908  0.0462
  876loPI    C313335  13.421  18.349   5.176 -0.1779 -0.1951 -0.1648
  876loPI   PO413336  13.503  18.951   5.006 -0.1310  0.2917 -0.1203
  876loPI   GL113337  13.638  19.150   5.391 -0.0524  0.0730 -0.2110
  876loPI   GL213338  13.475  18.821   5.454  0.3096  0.1011 -0.1860
  876loPI   C1A13339  13.680  19.195   5.857  0.0017  0.1612 -0.2180
  876loPI   C2A13340  13.522  19.013   6.283 -0.0592  0.2014  0.1948
  876loPI   C3A13341  13.388  18.804   6.655 -0.1179 -0.0119 -0.3928
  876loPI   C4A13342  13.403  18.486   6.953 -0.0319  0.1211 -0.2081
  876loPI   C5A13343  13.018  18.297   7.037  0.1783 -0.1381 -0.4198
  876loPI   C6A13344  12.530  18.386   7.167 -0.3816  0.2719  0.0633
  876loPI   C1B13345  13.299  18.656   5.876 -0.1434 -0.2615  0.0626
  876loPI   C2B13346  13.029  18.670   6.284  0.0405  0.4051 -0.3077
  876loPI   C3B13347  12.748  18.636   6.669  0.1523 -0.0547 -0.1291
  876loPI   C4B13348  12.817  18.916   7.015 -0.0403 -0.1014  0.0929
  877loPI    C113349  14.057   3.730   4.653  0.0543  0.0570  0.1685
  877loPI    C213350  14.315   3.483   4.834 -0.0644 -0.1338  0.0799
  877loPI    C313351  14.438   3.715   4.533 -0.0199 -0.3069 -0.0370
  877loPI   PO413352  13.922   3.748   4.830  0.3181 -0.2257  0.2860
  877loPI   GL113353  13.825   3.875   5.181  0.1151 -0.1541 -0.3116
  877loPI   GL213354  13.611   3.622   5.309 -0.0928 -0.1568  0.0577
  877loPI   C1A13355  13.922   4.134   5.488 -0.0358 -0.3159 -0.1517
  877loPI   C2A13356  13.936   4.349   5.884 -0.0223 -0.1284 -0.2493
  877loPI   C3A13357  13.746   4.473   6.278 -0.0225 -0.0162 -0.3166
  877loPI   C4A13358  13.839   4.348   6.790  0.2800 -0.0359  0.0799
  877loPI   C5A13359  13.787   4.202   7.204 -0.2606 -0.1268  0.0567
  877loPI   C6A13360  13.620   4.252   7.569 -0.0798 -0.0134  0.0055
  877loPI   C1B13361  13.877   3.534   5.656  0.2747 -0.0667  0.0618
  877loPI   C2B13362  14.078   3.490   6.204 -0.1189  0.0909 -0.0219
  877loPI   C3B13363  14.122   3.495   6.634 -0.2706 -0.2734 -0.1904
  877loPI   C4B13364  14.253   3.446   7.081 -0.1213  0.1824  0.1110
  878loPI    C113365  14.349   5.287   4.504  0.1835 -0.1118  0.0248
  878loPI    C213366  14.400   5.090   4.160  0.0446  0.0297 -0.0780
  878loPI    C313367  14.346   5.486   4.158  0.1065  0.0401  0.1119
  878loPI   PO413368  14.286   5.179   4.670  0.1770 -0.2289  0.1527
  878loPI   GL113369  14.293   5.115   5.231  0.2645 -0.1254  0.2930
  878loPI   GL213370  14.537   5.208   5.401 -0.0098 -0.0255 -0.0194
  878loPI   C1A13371  14.089   5.271   5.653  0.1180 -0.1816  0.1472
  878loPI   C2A13372  14.025   5.358   6.056  0.1160  0.2110 -0.3053
  878loPI   C3A13373  14.027   5.226   6.539  0.0155  0.1495 -0.0982
  878loPI   C4A13374  13.932   5.183   6.983  0.2143  0.3178  0.0438
  878loPI   C5A13375  13.939   5.128   7.387 -0.0273 -0.2540  0.2206
  878loPI   C6A13376  14.090   5.346   7.668  0.1526 -0.0196  0.0389
  878loPI   C1B13377  14.627   5.343   5.785 -0.0486 -0.0122 -0.3204
  878loPI   C2B13378  14.492   5.547   6.218 -0.1629  0.0462 -0.1319
  878loPI   C3B13379  14.443   5.539   6.694 -0.2121  0.3715  0.0590
  878loPI   C4B13380  14.264   5.511   7.169 -0.3646  0.1340 -0.0194
  879loPI    C113381   1.303  18.396   4.414  0.1886  0.0706  0.0048
  879loPI    C213382   1.396  18.785   4.428 -0.2156  0.1712  0.0265
  879loPI    C313383   1.082  18.663   4.213  0.0752 -0.1808 -0.2100
  879loPI   PO413384   1.242  18.339   4.657  0.1625  0.0440 -0.0597
  879loPI   GL113385   1.378  18.274   5.095 -0.0473  0.3537  0.0247
  879loPI   GL213386   1.407  17.976   5.324  0.1650  0.0046  0.2656
  879loPI   C1A13387   1.205  18.639   5.309 -0.1456 -0.1026  0.2336
  879loPI   C2A13388   1.151  18.740   5.784  0.0930  0.1153 -0.0256
  879loPI   C3A13389   1.030  18.894   6.234  0.2170 -0.3442 -0.1915
  879loPI   C4A13390   0.932  19.179   6.528 -0.3022 -0.0903  0.1060
  879loPI   C5A13391   1.100  19.313   6.967  0.0296 -0.1533  0.1641
  879loPI   C6A13392   1.150  19.464   7.359  0.2947  0.0807  0.0615
  879loPI   C1B13393   1.380  17.797   5.749  0.1987 -0.3006 -0.4092
  879loPI   C2B13394   1.551  17.913   6.088 -0.1795 -0.1883 -0.0258
  879loPI   C3B13395   1.568  18.025   6.575 -0.0128 -0.0020  0.1545
  879loPI   C4B13396   1.735  18.210   6.889 -0.1023  0.0888 -0.0082
  880loPI    C113397  16.678   8.174   5.267  0.0127 -0.0659 -0.0473
  880loPI    C213398  16.369   8.127   5.516  0.0548  0.2408  0.0675
  880loPI    C313399  16.307   8.144   5.121 -0.0302 -0.0812  0.0641
  880loPI   PO413400  16.968   7.947   5.395  0.0127  0.1386 -0.0436
  880loPI   GL113401  17.162   7.741   5.718 -0.0641  0.2182 -0.2689
  880loPI   GL213402  17.229   7.424   5.847  0.0264 -0.1258 -0.0019
  880loPI   C1A13403  17.349   7.796   6.138  0.6233  0.0184 -0.2801
  880loPI   C2A13404  17.460   7.815   6.442  0.1449  0.4861  0.1666
  880loPI   C3A13405  17.233   8.003   6.760 -0.1092  0.2219  0.0678
  880loPI   C4A13406  17.194   7.979   7.146  0.1109 -0.1596 -0.3108
  880loPI   C5A13407  17.131   8.198   7.558 -0.0810  0.1539 -0.0030
  880loPI   C6A13408  17.015   8.245   7.975 -0.1844 -0.1811 -0.1333
  880loPI   C1B13409  17.011   7.481   6.250 -0.2563  0.0068 -0.1649
  880loPI   C2B13410  17.163   7.472   6.655 -0.0763  0.0412  0.0509
  880loPI   C3B13411  16.993   7.528   7.080 -0.1674 -0.3109  0.0209
  880loPI   C4B13412  16.830   7.444   7.502  0.0916 -0.1653  0.0920
  881loPI    C113413  12.268   9.959   5.106  0.0982 -0.1168  0.0797
  881loPI    C213414  12.440  10.319   5.087 -0.1731  0.0101 -0.0343
  881loPI    C313415  12.664   9.989   5.060  0.0627  0.1696 -0.0639
  881loPI   PO413416  12.060  10.030   5.247 -0.1878 -0.0815 -0.2587
  881loPI   GL113417  11.742   9.985   5.514  0.0557  0.0778 -0.1822
  881loPI   GL213418  11.868   9.755   5.627  0.2486 -0.0115  0.0328
  881loPI   C1A13419  11.576  10.106   5.952 -0.1527  0.0272 -0.2656
  881loPI   C2A13420  11.534   9.963   6.265 -0.1940 -0.1170  0.1901
  881loPI   C3A13421  11.714   9.860   6.654 -0.1947 -0.0637  0.3195
  881loPI   C4A13422  11.941   9.586   6.969  0.2193  0.0003  0.1133
  881loPI   C5A13423  12.276   9.561   7.281  0.0317  0.0842  0.0697
  881loPI   C6A13424  12.481   9.838   7.423 -0.2189  0.1252 -0.2276
  881loPI   C1B13425  11.945   9.745   6.025 -0.0480  0.1966  0.1593
  881loPI   C2B13426  12.212   9.787   6.462  0.1401  0.1148  0.0785
  881loPI   C3B13427  12.241   9.961   6.917  0.3520  0.0814 -0.2959
  881loPI   C4B13428  12.038  10.072   7.321 -0.1828 -0.0104 -0.0080
  882loPI    C113429  10.397   7.437   4.956  0.2650  0.0534  0.1070
  882loPI    C213430  10.361   7.712   5.245 -0.0194  0.0307  0.0959
  882loPI    C313431  10.492   7.819   4.883  0.2165  0.0827  0.1948
  882loPI   PO413432  10.412   7.156   5.093 -0.1433  0.0238 -0.2492
  882loPI   GL113433  10.390   6.979   5.548 -0.1938 -0.0543  0.2662
  882loPI   GL213434  10.398   7.293   5.625  0.0642  0.0123 -0.0500
  882loPI   C1A13435  10.484   7.005   6.016 -0.1393 -0.0956  0.1131
  882loPI   C2A13436  10.320   7.052   6.444 -0.2761 -0.0626 -0.2245
  882loPI   C3A13437  10.193   7.257   6.754 -0.2504  0.0109  0.0781
  882loPI   C4A13438  10.365   7.657   6.923  0.1700  0.2114  0.1915
  882loPI   C5A13439  10.669   7.865   6.798 -0.0494 -0.1377 -0.0498
  882loPI   C6A13440  11.028   7.995   6.818 -0.2437  0.2289 -0.3307
  882loPI   C1B13441  10.124   7.366   6.029 -0.0060 -0.0241  0.0332
  882loPI   C2B13442   9.786   7.457   6.415  0.1583  0.3432 -0.0809
  882loPI   C3B13443   9.651   7.365   6.790 -0.0275  0.0167 -0.5353
  882loPI   C4B13444   9.410   7.330   7.188 -0.1447 -0.1365 -0.0722
  883loPI    C113445  18.345   3.914   4.881 -0.0928 -0.0138  0.0801
  883loPI    C213446  18.380   3.526   4.972  0.1215  0.0092  0.1005
  883loPI    C313447  18.419   3.647   4.592  0.0387  0.0093  0.0919
  883loPI   PO413448  18.478   4.063   5.067  0.1353 -0.0487 -0.1598
  883loPI   GL113449  18.538   4.288   5.470  0.3592 -0.3637  0.1056
  883loPI   GL213450  18.593   4.578   5.389 -0.0956  0.0524  0.1509
  883loPI   C1A13451  18.504   4.141   5.967 -0.1349  0.1258 -0.0407
  883loPI   C2A13452  18.340   4.342   6.427  0.2688  0.3336 -0.0824
  883loPI   C3A13453  18.113   4.252   6.815 -0.2030  0.2942 -0.2386
  883loPI   C4A13454  18.008   4.454   7.182  0.0128  0.0295 -0.0077
  883loPI   C5A13455  18.272   4.728   7.460  0.1195 -0.1071  0.2885
  883loPI   C6A13456  18.262   4.928   7.822  0.2002 -0.0714  0.0785
  883loPI   C1B13457  18.805   4.479   5.836  0.2964 -0.2544  0.1500
  883loPI   C2B13458  18.894   4.523   6.276  0.1725  0.1318  0.0318
  883loPI   C3B13459  19.296   4.622   6.638 -0.1751 -0.0051 -0.2730
  883loPI   C4B13460  19.613   4.914   6.827 -0.0052  0.1780  0.2712
  884loPI    C113461  19.065   3.005   4.774  0.0180 -0.0667 -0.1388
  884loPI    C213462  18.842   3.280   4.588 -0.1623  0.0330  0.2167
  884loPI    C313463  19.039   3.005   4.375 -0.0924  0.3488 -0.1363
  884loPI   PO413464  19.233   3.079   4.919 -0.1516  0.0902 -0.2385
  884loPI   GL113465  19.153   3.055   5.336 -0.2077  0.2759  0.2131
  884loPI   GL213466  18.906   3.108   5.325 -0.1272 -0.1697 -0.0089
  884loPI   C1A13467  19.456   2.970   5.761 -0.0443 -0.1257 -0.0628
  884loPI   C2A13468  19.591   3.005   6.195 -0.1913  0.1409 -0.1293
  884loPI   C3A13469  19.630   3.039   6.713 -0.3265  0.1734  0.0331
  884loPI   C4A13470  19.668   2.893   7.048  0.1763  0.3160  0.1452
  884loPI   C5A13471  19.415   2.855   7.350  0.1544  0.0987 -0.0463
  884loPI   C6A13472  19.054   2.662   7.432 -0.0359 -0.0529  0.1270
  884loPI   C1B13473  18.850   3.180   5.741  0.1204  0.0401  0.0087
  884loPI   C2B13474  18.759   3.411   6.168 -0.0470  0.0278 -0.2185
  884loPI   C3B13475  18.800   3.550   6.629  0.0476 -0.0292 -0.1286
  884loPI   C4B13476  18.876   3.326   7.084 -0.1047 -0.3974 -0.2434
  885loPI    C113477   7.992  12.924   4.826 -0.0987 -0.1872 -0.0058
  885loPI    C213478   7.983  13.317   4.753 -0.1246 -0.1818  0.0266
  885loPI    C313479   8.303  13.101   4.647 -0.0721 -0.1359  0.0909
  885loPI   PO413480   7.824  12.858   5.013  0.1051  0.1793  0.1567
  885loPI   GL113481   7.836  12.615   5.410 -0.1222  0.0177  0.1443
  885loPI   GL213482   7.938  12.330   5.516 -0.0417  0.0348  0.0436
  885loPI   C1A13483   7.657  12.632   5.824  0.0878  0.0310 -0.2059
  885loPI   C2A13484   7.825  12.676   6.300  0.0465 -0.2831  0.0910
  885loPI   C3A13485   7.843  12.567   6.749  0.2123 -0.0960 -0.0251
  885loPI   C4A13486   7.967  12.402   7.143  0.3493 -0.0818 -0.0797
  885loPI   C5A13487   7.695  12.289   7.513  0.3311  0.0687  0.0007
  885loPI   C6A13488   7.415  12.129   7.575 -0.3087  0.1101 -0.3194
  885loPI   C1B13489   8.207  12.337   5.771 -0.5399 -0.0717 -0.2155
  885loPI   C2B13490   8.280  12.421   6.243  0.1024  0.2335 -0.1404
  885loPI   C3B13491   8.313  12.394   6.690 -0.3094 -0.0859 -0.0856
  885loPI   C4B13492   8.629  12.486   6.959  0.0847  0.1393  0.0628
  886loPI    C113493  16.784   3.232   4.781  0.0467  0.2347  0.0454
  886loPI    C213494  16.832   3.082   4.413  0.2346  0.1220  0.1139
  886loPI    C313495  16.623   2.879   4.687  0.3728  0.0487  0.1659
  886loPI   PO413496  16.973   3.251   4.931 -0.1830 -0.0864 -0.1329
  886loPI   GL113497  17.139   3.234   5.365 -0.0256 -0.3808  0.0968
  886loPI   GL213498  16.905   3.206   5.663  0.1781 -0.0231 -0.0648
  886loPI   C1A13499  17.428   3.366   5.610 -0.1830 -0.0233  0.2657
  886loPI   C2A13500  17.429   3.387   5.994 -0.3111 -0.0075  0.4499
  886loPI   C3A13501  17.503   3.028   6.303 -0.2013 -0.2160 -0.1162
  886loPI   C4A13502  17.539   2.974   6.801 -0.0171 -0.3534  0.2119
  886loPI   C5A13503  17.672   2.854   7.147 -0.0154  0.2069  0.0815
  886loPI   C6A13504  17.359   2.445   7.289 -0.6620 -0.1465 -0.1322
  886loPI   C1B13505  16.937   3.133   6.151 -0.1930 -0.1656  0.1608
  886loPI   C2B13506  17.029   3.221   6.504 -0.0908  0.1324 -0.3568
  886loPI   C3B13507  17.104   3.263   6.898  0.1122 -0.1271  0.0865
  886loPI   C4B13508  17.447   3.544   7.083 -0.0237  0.1684 -0.0464
  887loPI    C113509   9.453  11.147   4.938 -0.1312 -0.0870 -0.2266
  887loPI    C213510   9.770  11.171   4.695 -0.0895  0.0168 -0.1625
  887loPI    C313511   9.671  10.821   4.862 -0.0972 -0.0473 -0.3003
  887loPI   PO413512   9.461  11.442   5.065 -0.0535 -0.1761 -0.1526
  887loPI   GL113513   9.676  11.620   5.345 -0.0462 -0.0190  0.2355
  887loPI   GL213514   9.961  11.514   5.438 -0.1516  0.0412  0.0987
  887loPI   C1A13515   9.651  11.734   5.754 -0.0392 -0.2974 -0.0522
  887loPI   C2A13516   9.668  11.662   6.155 -0.2779  0.3881 -0.0167
  887loPI   C3A13517   9.891  11.719   6.535 -0.1756 -0.0401  0.1242
  887loPI   C4A13518   9.825  11.636   7.039 -0.0561 -0.2026  0.1295
  887loPI   C5A13519   9.784  11.475   7.438 -0.2013 -0.2097 -0.1704
  887loPI   C6A13520   9.926  11.769   7.709 -0.1370 -0.1584  0.1977
  887loPI   C1B13521  10.042  11.360   5.886  0.1525 -0.1020  0.0385
  887loPI   C2B13522  10.093  11.327   6.354 -0.0583  0.2032  0.2556
  887loPI   C3B13523  10.033  11.194   6.798  0.1437  0.0636  0.0593
  887loPI   C4B13524   9.892  10.954   7.201  0.0513 -0.0091 -0.1373
  888loPI    C113525   2.946   8.164   5.007  0.2532 -0.0486  0.1099
  888loPI    C213526   2.931   8.235   4.614  0.0272 -0.0668  0.1139
  888loPI    C313527   3.259   8.071   4.776  0.2611  0.2670 -0.0107
  888loPI   PO413528   2.913   8.322   5.105  0.1386  0.0074  0.0318
  888loPI   GL113529   2.743   8.149   5.466 -0.1011 -0.1814 -0.0230
  888loPI   GL213530   2.680   8.436   5.580 -0.2280 -0.0492  0.1867
  888loPI   C1A13531   2.986   8.240   5.842  0.2400  0.2456 -0.0423
  888loPI   C2A13532   3.148   8.182   6.230 -0.0110 -0.0088  0.1193
  888loPI   C3A13533   3.050   8.080   6.631 -0.0628 -0.0445 -0.1841
  888loPI   C4A13534   3.042   8.313   7.042  0.2418  0.0894 -0.1868
  888loPI   C5A13535   3.140   8.547   7.468 -0.0502 -0.0555  0.0834
  888loPI   C6A13536   2.794   8.644   7.532  0.0003 -0.0933 -0.0613
  888loPI   C1B13537   2.740   8.739   5.950 -0.0201 -0.0228  0.0373
  888loPI   C2B13538   2.813   8.508   6.305 -0.1903 -0.1284  0.3062
  888loPI   C3B13539   2.803   8.536   6.719 -0.2076 -0.2125  0.2434
  888loPI   C4B13540   2.520   8.333   7.003 -0.2778 -0.1970 -0.2415
  889loPI    C113541   6.360  11.503   5.045 -0.1190 -0.0623 -0.1470
  889loPI    C213542   6.679  11.282   4.947 -0.1986 -0.1573 -0.1933
  889loPI    C313543   6.311  11.128   4.915 -0.2332 -0.1564  0.1604
  889loPI   PO413544   6.401  11.580   5.247  0.1138  0.0505 -0.1357
  889loPI   GL113545   6.308  11.465   5.672  0.5765 -0.3308 -0.1636
  889loPI   GL213546   6.596  11.783   5.654  0.1499  0.0703 -0.0568
  889loPI   C1A13547   6.512  11.331   6.081  0.0764 -0.3596  0.0247
  889loPI   C2A13548   6.547  11.354   6.484 -0.2972 -0.0590  0.1622
  889loPI   C3A13549   6.709  11.442   6.959 -0.0569 -0.3379  0.0027
  889loPI   C4A13550   6.996  11.467   7.306  0.0059  0.1618 -0.0497
  889loPI   C5A13551   7.042  10.969   7.414  0.2621 -0.3311  0.4214
  889loPI   C6A13552   7.249  10.595   7.438 -0.0650 -0.3627 -0.0012
  889loPI   C1B13553   6.481  11.854   6.038 -0.0444  0.3360 -0.1099
  889loPI   C2B13554   6.549  11.893   6.429 -0.0756 -0.4943 -0.0628
  889loPI   C3B13555   6.784  11.996   6.719 -0.1564  0.2625  0.0230
  889loPI   C4B13556   6.873  12.335   6.942 -0.1286 -0.2149 -0.1043
  890loPI    C113557   0.277   4.405   4.802  0.2030 -0.0053 -0.1328
  890loPI    C213558   0.284   4.755   4.609  0.0282  0.0424 -0.0544
  890loPI    C313559   0.457   4.433   4.446  0.0373  0.1239 -0.2073
  890loPI   PO413560   0.233   4.479   5.068 -0.2446  0.4500 -0.1848
  890loPI   GL113561   0.645   4.558   5.430  0.0066  0.2714 -0.0601
  890loPI   GL213562   0.953   4.489   5.440  0.1766  0.2860 -0.3514
  890loPI   C1A13563   0.657   4.515   5.865 -0.0398 -0.1018  0.1897
  890loPI   C2A13564   0.602   4.414   6.237 -0.2338 -0.1349  0.0486
  890loPI   C3A13565   0.601   4.393   6.719 -0.0688 -0.1213 -0.0356
  890loPI   C4A13566   0.375   4.437   7.102  0.0889  0.1554 -0.0035
  890loPI   C5A13567   0.380   4.405   7.453  0.1596 -0.0057  0.4169
  890loPI   C6A13568   0.181   4.480   7.778  0.0259  0.2496  0.1846
  890loPI   C1B13569   1.088   4.274   5.815  0.0566  0.1203 -0.0076
  890loPI   C2B13570   0.998   3.883   6.040 -0.3522 -0.3299  0.0008
  890loPI   C3B13571   1.062   3.993   6.435 -0.0489  0.2213 -0.0996
  890loPI   C4B13572   1.098   3.757   6.868  0.1328  0.2639  0.0705
  891loPI    C113573   0.809  14.622   4.958  0.2019  0.0058 -0.2850
  891loPI    C213574   0.542  14.444   4.719 -0.0560 -0.1561  0.1126
  891loPI    C313575   0.680  14.809   4.629 -0.2948 -0.1336 -0.1772
  891loPI   PO413576   0.755  14.663   5.216  0.1182 -0.3049  0.1745
  891loPI   GL113577   0.687  14.454   5.566  0.0731 -0.0488  0.0015
  891loPI   GL213578   1.010  14.450   5.698 -0.0348 -0.1538 -0.0086
  891loPI   C1A13579   0.518  14.113   5.823 -0.0118  0.0666 -0.0098
  891loPI   C2A13580   0.564  14.110   6.303  0.0785 -0.1443  0.0803
  891loPI   C3A13581   0.467  14.105   6.673  0.2269  0.2149  0.1122
  891loPI   C4A13582   0.243  14.173   7.001 -0.1185  0.0539 -0.1166
  891loPI   C5A13583  -0.021  14.049   7.322 -0.0376 -0.2143 -0.2480
  891loPI   C6A13584  -0.382  13.973   7.451  0.1005 -0.1058 -0.0970
  891loPI   C1B13585   0.986  14.199   6.062 -0.1589  0.0686  0.1956
  891loPI   C2B13586   0.997  14.142   6.525 -0.1901 -0.0697 -0.0421
  891loPI   C3B13587   0.857  14.176   6.994  0.2176 -0.2877  0.2283
  891loPI   C4B13588   0.560  14.025   7.411 -0.0077  0.2711  0.1282
  892loPI    C113589  13.848  17.158   4.382  0.0870 -0.0362  0.1815
  892loPI    C213590  13.918  17.543   4.299 -0.2627 -0.0499 -0.2142
  892loPI    C313591  14.132  17.257   4.118 -0.1336 -0.0494 -0.0650
  892loPI   PO413592  13.852  17.165   4.757 -0.0665 -0.0081 -0.2279
  892loPI   GL113593  13.719  17.175   5.083  0.1240  0.0222  0.1488
  892loPI   GL213594  13.540  16.838   5.043 -0.0817  0.2115 -0.1577
  892loPI   C1A13595  13.781  17.154   5.524 -0.0179  0.2206  0.3091
  892loPI   C2A13596  14.091  16.989   5.770  0.3244  0.2249  0.0747
  892loPI   C3A13597  14.237  16.971   6.193 -0.2505 -0.5156 -0.3283
  892loPI   C4A13598  14.354  17.292   6.536  0.1875 -0.1753 -0.1961
  892loPI   C5A13599  14.565  17.324   6.837 -0.1361 -0.1386  0.0605
  892loPI   C6A13600  14.907  17.450   7.093  0.0422  0.2953 -0.0562
  892loPI   C1B13601  13.630  16.693   5.484 -0.2900 -0.0050 -0.2433
  892loPI   C2B13602  13.690  16.715   5.895 -0.2132 -0.1574 -0.0447
  892loPI   C3B13603  13.620  16.610   6.350 -0.1387  0.2828 -0.0480
  892loPI   C4B13604  13.437  16.364   6.593 -0.0987  0.2278 -0.0030
  893loPI    C113605  10.768  14.585   4.507 -0.1098  0.1412 -0.2021
  893loPI    C213606  10.979  14.259   4.409 -0.1735 -0.0469  0.2608
  893loPI    C313607  10.990  14.583   4.174 -0.0877 -0.3688 -0.1914
  893loPI   PO413608  10.950  14.662   4.859  0.1465  0.1106  0.1945
  893loPI   GL113609  11.179  14.620   5.123 -0.0398  0.0146  0.1112
  893loPI   GL213610  11.178  14.786   5.405 -0.0337 -0.2637 -0.1294
  893loPI   C1A13611  11.523  14.518   5.508 -0.0310 -0.0915 -0.0838
  893loPI   C2A13612  11.613  14.331   5.918  0.0679 -0.0231 -0.1346
  893loPI   C3A13613  11.626  14.486   6.397  0.2534  0.0208  0.2353
  893loPI   C4A13614  11.767  14.193   6.710 -0.3926 -0.0901  0.2416
  893loPI   C5A13615  11.502  14.103   7.069  0.0413  0.0009 -0.0131
  893loPI   C6A13616  11.265  14.386   7.219 -0.1428  0.0021 -0.2504
  893loPI   C1B13617  11.301  14.963   5.828 -0.0635 -0.1305 -0.0301
  893loPI   C2B13618  11.581  14.838   6.104  0.1758  0.0969 -0.1031
  893loPI   C3B13619  11.647  14.966   6.544 -0.1563  0.1951  0.2156
  893loPI   C4B13620  11.275  15.169   6.664  0.3053  0.1637  0.0700
  894loPI    C113621  15.759   6.140   4.710 -0.0824 -0.1113 -0.0194
  894loPI    C213622  15.948   5.948   4.415  0.0463 -0.1053  0.0586
  894loPI    C313623  15.724   6.268   4.333  0.4329  0.1617  0.0160
  894loPI   PO413624  15.912   6.283   4.959 -0.2256  0.2206  0.2762
  894loPI   GL113625  15.949   6.143   5.319  0.2500  0.1962  0.2648
  894loPI   GL213626  15.792   6.335   5.481  0.2126 -0.1087 -0.2086
  894loPI   C1A13627  15.868   5.874   5.748 -0.1447 -0.1127 -0.3924
  894loPI   C2A13628  15.906   5.905   6.195  0.1173  0.2990 -0.0926
  894loPI   C3A13629  15.710   5.941   6.678 -0.1398  0.0835  0.3155
  894loPI   C4A13630  15.662   6.320   6.889  0.0719  0.1050 -0.2641
  894loPI   C5A13631  15.832   6.516   7.148  0.2746 -0.1877 -0.1693
  894loPI   C6A13632  15.958   6.434   7.478 -0.1758  0.3683  0.0556
  894loPI   C1B13633  15.717   6.361   5.910  0.2767 -0.1967  0.0859
  894loPI   C2B13634  15.721   6.347   6.313  0.1581 -0.3080 -0.3155
  894loPI   C3B13635  16.060   6.622   6.647  0.2768  0.0864 -0.0091
  894loPI   C4B13636  16.327   6.612   7.084  0.4431  0.0907  0.2149
  895loPI    C113637   3.646   1.493   4.761  0.1502 -0.1114  0.2600
  895loPI    C213638   4.008   1.577   4.615  0.1420 -0.1470  0.2190
  895loPI    C313639   3.690   1.785   4.492  0.0747 -0.4395 -0.1190
  895loPI   PO413640   3.641   1.549   5.063 -0.1381  0.0015 -0.1457
  895loPI   GL113641   3.442   1.617   5.476 -0.0458  0.1142 -0.0908
  895loPI   GL213642   3.427   1.474   5.790  0.1085 -0.0141  0.1090
  895loPI   C1A13643   3.729   1.843   5.879 -0.0914 -0.1306  0.3295
  895loPI   C2A13644   3.609   1.871   6.353 -0.2449  0.2765  0.1308
  895loPI   C3A13645   3.518   1.869   6.793 -0.0855 -0.1757 -0.0546
  895loPI   C4A13646   3.588   1.950   7.243 -0.0280  0.1562 -0.0628
  895loPI   C5A13647   3.804   2.017   7.675  0.2185 -0.2571 -0.1939
  895loPI   C6A13648   4.038   1.878   8.095 -0.1993 -0.3981 -0.0109
  895loPI   C1B13649   3.484   1.416   6.168  0.0792 -0.1524  0.0156
  895loPI   C2B13650   3.612   1.399   6.581  0.0813  0.1581 -0.3841
  895loPI   C3B13651   3.450   1.397   6.991  0.1405  0.2851  0.0366
  895loPI   C4B13652   3.082   1.607   7.093  0.3798 -0.0939 -0.2464
  896loPI    C113653   6.129  10.592   4.741 -0.2038  0.1026  0.0801
  896loPI    C213654   5.896  10.549   4.419 -0.1241  0.1175  0.0202
  896loPI    C313655   6.147  10.860   4.444 -0.1195  0.1082  0.0901
  896loPI   PO413656   5.937  10.616   4.937  0.2706 -0.0425  0.0694
  896loPI   GL113657   5.954  10.661   5.470  0.0742 -0.4095  0.0216
  896loPI   GL213658   6.252  10.467   5.637 -0.0155 -0.1352  0.2048
  896loPI   C1A13659   5.652  10.785   5.814 -0.0653 -0.1112  0.0501
  896loPI   C2A13660   5.596  10.985   6.196  0.0016 -0.5395  0.0654
  896loPI   C3A13661   5.681  11.152   6.546  0.0055  0.0098 -0.2222
  896loPI   C4A13662   5.712  11.078   6.984 -0.2051 -0.1084 -0.0513
  896loPI   C5A13663   5.602  10.913   7.387  0.3537 -0.0618  0.0980
  896loPI   C6A13664   5.413  10.719   7.649  0.1822 -0.1734  0.2242
  896loPI   C1B13665   6.158  10.812   5.985  0.0883 -0.0199 -0.5174
  896loPI   C2B13666   6.140  11.004   6.348 -0.0037  0.0137 -0.0497
  896loPI   C3B13667   6.175  11.136   6.771 -0.0547  0.3858 -0.0148
  896loPI   C4B13668   6.077  11.415   7.053  0.0951  0.2162 -0.2469
  897loPI    C113669  17.777  15.406   4.946 -0.0066 -0.0244 -0.1039
  897loPI    C213670  17.762  15.031   4.808 -0.2317 -0.0383 -0.0445
  897loPI    C313671  17.457  15.281   4.742  0.1224  0.2873 -0.5118
  897loPI   PO413672  17.839  15.346   5.181 -0.1498 -0.2422  0.2140
  897loPI   GL113673  17.752  15.588   5.589  0.0769 -0.1216 -0.1143
  897loPI   GL213674  18.121  15.706   5.545  0.0618 -0.2818  0.0425
  897loPI   C1A13675  17.926  15.841   5.998  0.1729 -0.2004  0.0367
  897loPI   C2A13676  17.942  15.903   6.525  0.0186  0.0021  0.1456
  897loPI   C3A13677  17.815  15.716   6.916 -0.0275 -0.1058  0.1400
  897loPI   C4A13678  17.819  15.562   7.286  0.0478 -0.0674  0.1061
  897loPI   C5A13679  17.965  15.624   7.686 -0.0371  0.2982 -0.0850
  897loPI   C6A13680  17.727  15.741   8.024 -0.0083 -0.1245 -0.2627
  897loPI   C1B13681  18.404  15.778   5.910  0.1792  0.3061  0.2427
  897loPI   C2B13682  18.678  15.879   6.330 -0.2021  0.0470 -0.0509
  897loPI   C3B13683  18.880  16.031   6.823 -0.0828  0.0212 -0.3581
  897loPI   C4B13684  19.159  16.273   7.192 -0.1176 -0.2141  0.1596
  898loPI    C113685  14.207   0.497   4.747  0.1675  0.0472  0.0452
  898loPI    C213686  14.061   0.479   4.375 -0.1096  0.0233  0.1530
  898loPI    C313687  14.380   0.707   4.453  0.0705 -0.1234 -0.1361
  898loPI   PO413688  14.206   0.317   4.874  0.0422  0.0047 -0.2396
  898loPI   GL113689  14.467   0.372   5.230  0.0259  0.3785 -0.1242
  898loPI   GL213690  14.575   0.679   5.376  0.1332  0.3136 -0.0025
  898loPI   C1A13691  14.272   0.072   5.436 -0.5599 -0.2057 -0.0492
  898loPI   C2A13692  14.183   0.116   5.921 -0.0228 -0.0705 -0.1521
  898loPI   C3A13693  13.989  -0.089   6.302 -0.2398 -0.3758 -0.3834
  898loPI   C4A13694  13.929  -0.239   6.808 -0.0592  0.0702 -0.0595
  898loPI   C5A13695  13.888  -0.215   7.281  0.0109  0.0433  0.0269
  898loPI   C6A13696  13.938  -0.138   7.623 -0.2183 -0.0849 -0.2036
  898loPI   C1B13697  14.545   0.435   5.721 -0.1617 -0.0435  0.2047
  898loPI   C2B13698  14.589   0.430   6.218 -0.2478 -0.3509  0.1443
  898loPI   C3B13699  14.899   0.509   6.610 -0.2024 -0.0397 -0.0898
  898loPI   C4B13700  14.921   0.559   7.059 -0.0302 -0.0598  0.2391
  899loPI    C113701   0.619   9.335   5.040  0.0374 -0.0046  0.2478
  899loPI    C213702   0.655   9.023   4.792  0.0877  0.1652  0.0384
  899loPI    C313703   0.299   9.198   4.843  0.0385  0.0117  0.2348
  899loPI   PO413704   0.680   9.220   5.284  0.0496 -0.2707  0.2707
  899loPI   GL113705   0.415   8.914   5.643  0.0071 -0.2692  0.2156
  899loPI   GL213706   0.798   8.900   5.662 -0.0321  0.3674 -0.1661
  899loPI   C1A13707   0.402   8.740   5.946 -0.0610 -0.1635 -0.3956
  899loPI   C2A13708   0.451   8.831   6.370 -0.0989 -0.0408  0.3826
  899loPI   C3A13709   0.489   8.838   6.790  0.0831  0.0628  0.2655
  899loPI   C4A13710   0.562   9.139   7.164  0.2795  0.3870  0.2201
  899loPI   C5A13711   0.701   9.390   7.465  0.0467  0.1079 -0.5183
  899loPI   C6A13712   1.045   9.625   7.652 -0.0002 -0.2360 -0.0213
  899loPI   C1B13713   0.941   8.768   6.043  0.1172  0.0077 -0.0811
  899loPI   C2B13714   0.975   8.807   6.483  0.2111 -0.1320  0.1896
  899loPI   C3B13715   1.046   8.890   6.889 -0.0313 -0.0610  0.3070
  899loPI   C4B13716   1.062   9.166   7.264 -0.2321  0.1829 -0.2761
  900loPI    C113717   7.917  11.770   4.804 -0.0029 -0.1422 -0.0550
  900loPI    C213718   8.259  11.970   4.747  0.1059 -0.2056  0.3433
  900loPI    C313719   8.201  11.615   4.570  0.1343 -0.0734  0.0643
  900loPI   PO413720   7.700  11.912   4.840  0.1570  0.0454  0.0445
  900loPI   GL113721   7.508  12.043   5.276 -0.1483 -0.3147 -0.1490
  900loPI   GL213722   7.433  12.284   5.274  0.0201  0.0273 -0.1394
  900loPI   C1A13723   7.318  11.738   5.537 -0.3369 -0.0610 -0.0715
  900loPI   C2A13724   7.060  11.765   5.875 -0.0405  0.0812 -0.0456
  900loPI   C3A13725   6.941  11.651   6.269  0.1382 -0.0229  0.4132
  900loPI   C4A13726   7.018  11.504   6.564 -0.2318 -0.1926  0.0173
  900loPI   C5A13727   7.231  11.221   6.925 -0.2271  0.2348 -0.5002
  900loPI   C6A13728   7.516  11.086   7.265 -0.1760  0.0038 -0.0843
  900loPI   C1B13729   7.366  12.178   5.794 -0.1426 -0.0879  0.5230
  900loPI   C2B13730   7.374  11.967   6.240  0.0961  0.0527 -0.2159
  900loPI   C3B13731   7.406  11.862   6.579 -0.0646  0.0177 -0.1893
  900loPI   C4B13732   7.152  11.785   6.959 -0.0471 -0.2686 -0.0031
  901loPI    C113733  17.910   0.835   4.770 -0.1622  0.1210  0.0957
  901loPI    C213734  17.906   1.105   4.476  0.0360 -0.1697 -0.1804
  901loPI    C313735  17.671   0.782   4.454 -0.1208 -0.0780  0.0963
  901loPI   PO413736  18.129   0.879   4.865  0.1092  0.0060 -0.2350
  901loPI   GL113737  18.190   0.767   5.290 -0.3341  0.0663  0.2232
  901loPI   GL213738  18.428   0.534   5.325  0.1291  0.0034  0.3815
  901loPI   C1A13739  18.058   0.763   5.675 -0.2864 -0.0371  0.1021
  901loPI   C2A13740  17.971   0.950   6.058 -0.0737 -0.2538 -0.1245
  901loPI   C3A13741  17.854   0.952   6.465 -0.0283  0.0955 -0.1093
  901loPI   C4A13742  17.706   1.126   6.824  0.0021  0.2256 -0.2365
  901loPI   C5A13743  17.627   0.980   7.275  0.1279  0.3292  0.0115
  901loPI   C6A13744  17.861   0.551   7.339  0.4454  0.5245  0.0455
  901loPI   C1B13745  18.318   0.357   5.762 -0.2454 -0.1184 -0.1160
  901loPI   C2B13746  18.130   0.383   6.145 -0.1615 -0.1084  0.2722
  901loPI   C3B13747  18.002   0.385   6.501  0.0978 -0.1034 -0.1022
  901loPI   C4B13748  17.962   0.271   6.944 -0.1298  0.0661 -0.1437
  902loPI    C113749   6.895  14.578   4.799  0.2795  0.2716 -0.1070
  902loPI    C213750   6.863  14.302   4.511  0.0673 -0.0304  0.1976
  902loPI    C313751   6.886  14.690   4.415  0.1137 -0.1330 -0.2266
  902loPI   PO413752   7.060  14.381   4.985  0.0653 -0.1254 -0.0773
  902loPI   GL113753   6.739  14.308   5.408  0.0675  0.0144 -0.1383
  902loPI   GL213754   7.041  14.280   5.502 -0.0690  0.2235 -0.0487
  902loPI   C1A13755   6.598  14.382   5.902  0.0834 -0.1371  0.4724
  902loPI   C2A13756   6.453  14.451   6.323  0.0601  0.1118 -0.1223
  902loPI   C3A13757   6.344  14.634   6.642 -0.1448 -0.1700  0.4304
  902loPI   C4A13758   6.221  14.757   7.085 -0.0865  0.2076  0.0289
  902loPI   C5A13759   6.362  14.691   7.493 -0.1692 -0.1414 -0.4513
  902loPI   C6A13760   6.732  14.956   7.492  0.1064 -0.0636  0.1665
  902loPI   C1B13761   7.076  14.602   5.836 -0.0884  0.0535  0.5352
  902loPI   C2B13762   6.950  14.570   6.177  0.1930 -0.3311 -0.1562
  902loPI   C3B13763   6.838  14.778   6.556  0.1823  0.2281 -0.1748
  902loPI   C4B13764   6.780  15.130   6.869  0.1320 -0.0012  0.0639
  903loPI    C113765   3.302   1.908   5.062 -0.1715  0.2771 -0.0579
  903loPI    C213766   3.321   2.163   4.754 -0.0655 -0.0531 -0.3319
  903loPI    C313767   3.208   1.784   4.693  0.0612 -0.1521  0.0194
  903loPI   PO413768   3.235   2.040   5.208 -0.1807  0.2112 -0.1526
  903loPI   GL113769   3.395   2.109   5.559 -0.1187  0.1151 -0.1030
  903loPI   GL213770   3.403   2.406   5.622  0.0853  0.0994 -0.1806
  903loPI   C1A13771   3.032   2.250   5.910  0.3740  0.1998  0.0622
  903loPI   C2A13772   3.182   2.566   6.223  0.4212  0.1561 -0.0264
  903loPI   C3A13773   3.020   2.595   6.603 -0.4159  0.1688 -0.2626
  903loPI   C4A13774   2.982   2.526   7.074  0.0951  0.0216  0.4219
  903loPI   C5A13775   2.839   2.480   7.474  0.0939 -0.0716 -0.2492
  903loPI   C6A13776   2.443   2.400   7.638 -0.0721  0.2990 -0.3165
  903loPI   C1B13777   3.566   2.260   6.054 -0.0678 -0.1609  0.5816
  903loPI   C2B13778   3.557   2.359   6.456  0.1329  0.2343 -0.0413
  903loPI   C3B13779   3.550   2.380   6.975  0.1739  0.0307  0.1463
  903loPI   C4B13780   3.373   2.440   7.437  0.0570  0.0407 -0.0544
  904loPI    C113781   0.358   3.754   4.812  0.1821  0.2261 -0.2486
  904loPI    C213782   0.094   3.520   4.623  0.2016 -0.0049  0.0043
  904loPI    C313783   0.361   3.730   4.413 -0.0932  0.1255 -0.2467
  904loPI   PO413784   0.226   3.931   4.985  0.1426 -0.3829  0.0427
  904loPI   GL113785   0.288   3.928   5.523 -0.0281 -0.0924  0.1352
  904loPI   GL213786   0.141   4.160   5.454  0.2640  0.0853 -0.2129
  904loPI   C1A13787   0.537   4.029   5.852 -0.1083  0.4537 -0.0318
  904loPI   C2A13788   0.543   3.965   6.354  0.2552  0.3057 -0.1004
  904loPI   C3A13789   0.618   3.870   6.752 -0.2309 -0.0275  0.0458
  904loPI   C4A13790   0.391   3.791   7.139 -0.1607  0.2147  0.3557
  904loPI   C5A13791   0.227   3.873   7.438 -0.0831 -0.0169  0.0776
  904loPI   C6A13792  -0.141   3.745   7.592  0.0157 -0.3722 -0.0930
  904loPI   C1B13793   0.105   4.303   5.986 -0.0349 -0.0440 -0.1959
  904loPI   C2B13794   0.106   4.098   6.382  0.0654  0.3593  0.2849
  904loPI   C3B13795   0.208   4.096   6.762 -0.5312 -0.2115  0.3174
  904loPI   C4B13796  -0.050   3.888   6.964  0.0187 -0.1243 -0.0983
  905loPI    C113797  18.948  10.857   5.149  0.0036  0.0841 -0.0528
  905loPI    C213798  18.741  10.755   4.823  0.1425 -0.0730 -0.0934
  905loPI    C313799  19.123  10.643   4.860  0.2018  0.1580  0.0104
  905loPI   PO413800  18.705  10.787   5.358 -0.0410 -0.4281 -0.1906
  905loPI   GL113801  18.420  10.942   5.683 -0.1584 -0.2251 -0.1527
  905loPI   GL213802  18.129  10.849   5.861  0.1758 -0.1554 -0.0956
  905loPI   C1A13803  18.580  11.228   6.031  0.1638  0.2609  0.0275
  905loPI   C2A13804  18.462  11.456   6.316 -0.0389 -0.1319  0.0038
  905loPI   C3A13805  18.449  11.657   6.722  0.1326 -0.0221  0.0052
  905loPI   C4A13806  18.619  11.959   7.060 -0.1390  0.0154  0.2333
  905loPI   C5A13807  19.003  12.218   7.087  0.1588  0.2654 -0.1801
  905loPI   C6A13808  19.021  12.674   7.187  0.1442 -0.1936 -0.0788
  905loPI   C1B13809  18.200  10.953   6.242  0.0591 -0.0498 -0.1740
  905loPI   C2B13810  18.172  11.221   6.691 -0.2492  0.0166 -0.1130
  905loPI   C3B13811  18.077  11.431   7.143  0.2929 -0.1383 -0.2130
  905loPI   C4B13812  18.044  11.519   7.611 -0.1420  0.2112  0.2301
  906loPI    C113813   4.140  19.083   4.577  0.0991 -0.0038 -0.0209
  906loPI    C213814   4.169  19.428   4.778  0.1931  0.0687 -0.1574
  906loPI    C313815   4.295  19.406   4.399 -0.1381 -0.0214 -0.2661
  906loPI   PO413816   4.098  18.924   4.860  0.1785  0.0255 -0.2879
  906loPI   GL113817   4.418  18.959   5.191 -0.1365 -0.1836  0.0443
  906loPI   GL213818   4.207  18.929   5.435  0.0555 -0.1251  0.3302
  906loPI   C1A13819   4.591  19.238   5.366  0.1786 -0.2152 -0.0627
  906loPI   C2A13820   4.623  19.410   5.732 -0.1541  0.4418  0.2724
  906loPI   C3A13821   4.390  19.359   6.082 -0.2010 -0.4288  0.1671
  906loPI   C4A13822   4.464  19.338   6.514  0.3554  0.0125 -0.0298
  906loPI   C5A13823   4.401  19.045   6.929 -0.4743 -0.0551 -0.3402
  906loPI   C6A13824   4.184  18.673   7.232  0.2399  0.0744  0.3071
  906loPI   C1B13825   4.372  18.838   5.871 -0.0756  0.0360  0.0654
  906loPI   C2B13826   4.244  18.864   6.302  0.0914  0.0187 -0.1529
  906loPI   C3B13827   4.133  18.719   6.709 -0.0874 -0.2653  0.0023
  906loPI   C4B13828   4.099  18.321   6.880 -0.1539  0.2579  0.0176
  907loPI    C113829  10.724  15.631   4.678 -0.0100  0.3439  0.2363
  907loPI    C213830  10.837  15.468   4.330  0.1132  0.2561  0.3168
  907loPI    C313831  10.453  15.565   4.390 -0.0131 -0.2480  0.3636
  907loPI   PO413832  10.885  15.517   4.883 -0.0500 -0.3672  0.2441
  907loPI   GL113833  11.096  15.665   5.297  0.3442  0.0655 -0.0330
  907loPI   GL213834  11.329  15.613   5.150  0.1555 -0.1350  0.0070
  907loPI   C1A13835  11.029  15.707   5.692  0.1830  0.0282  0.0216
  907loPI   C2A13836  10.988  15.482   5.952  0.1179 -0.1146 -0.1276
  907loPI   C3A13837  11.027  15.480   6.382  0.0890 -0.0170  0.0088
  907loPI   C4A13838  11.088  15.885   6.691  0.0455 -0.3130 -0.0053
  907loPI   C5A13839  10.996  16.298   6.875  0.2861 -0.1074  0.1361
  907loPI   C6A13840  10.861  16.377   7.201  0.1591  0.2252  0.2070
  907loPI   C1B13841  11.577  15.654   5.538  0.3816  0.1728  0.0499
  907loPI   C2B13842  11.438  15.753   5.952 -0.0715 -0.0160 -0.3589
  907loPI   C3B13843  11.110  15.940   6.187 -0.1854 -0.0526 -0.1632
  907loPI   C4B13844  10.750  15.988   6.277 -0.1756  0.1944 -0.1640
  908loPI    C113845   2.608   4.317   4.869 -0.1515  0.0383 -0.0670
  908loPI    C213846   2.548   4.610   4.603  0.0181  0.0846 -0.0552
  908loPI    C313847   2.653   4.245   4.478 -0.0557  0.0654 -0.0612
  908loPI   PO413848   2.536   4.281   5.038 -0.2476  0.2516 -0.0663
  908loPI   GL113849   2.492   4.088   5.523  0.2213 -0.1397  0.1590
  908loPI   GL213850   2.817   4.001   5.380 -0.1045  0.1358 -0.2896
  908loPI   C1A13851   2.353   4.057   5.919  0.2829 -0.2573  0.1392
  908loPI   C2A13852   2.421   4.073   6.392 -0.1212 -0.0115  0.1910
  908loPI   C3A13853   2.467   3.969   6.796 -0.1395  0.1123  0.1937
  908loPI   C4A13854   2.375   3.987   7.299 -0.0337  0.0772 -0.0238
  908loPI   C5A13855   2.043   3.756   7.419 -0.1555 -0.1207  0.1680
  908loPI   C6A13856   1.780   3.465   7.620  0.2977 -0.0162  0.1072
  908loPI   C1B13857   2.881   4.139   5.774 -0.0154  0.2146 -0.1343
  908loPI   C2B13858   3.034   4.112   6.252  0.1858  0.4139 -0.1486
  908loPI   C3B13859   3.284   4.294   6.729  0.2227 -0.0418 -0.1308
  908loPI   C4B13860   3.260   4.400   7.180 -0.2974 -0.1251  0.0914
  909loPI    C113861  17.148   6.008   5.080 -0.1326  0.1588 -0.0450
  909loPI    C213862  17.331   6.271   4.841  0.0594 -0.0139 -0.0909
  909loPI    C313863  17.177   5.935   4.688  0.0128 -0.0342  0.0002
  909loPI   PO413864  17.288   5.998   5.316 -0.0836 -0.1730  0.0023
  909loPI   GL113865  17.450   6.095   5.616 -0.1948 -0.0742  0.0579
  909loPI   GL213866  17.584   6.424   5.684  0.1794 -0.2151  0.4961
  909loPI   C1A13867  17.170   6.345   5.891  0.0747  0.5217 -0.0375
  909loPI   C2A13868  16.965   6.670   6.099 -0.2086  0.0236 -0.0597
  909loPI   C3A13869  17.070   6.955   6.544 -0.0644  0.0819  0.0768
  909loPI   C4A13870  17.092   7.028   6.961 -0.2301  0.2834 -0.3410
  909loPI   C5A13871  17.036   6.997   7.421 -0.0275 -0.1591  0.2865
  909loPI   C6A13872  17.014   7.061   7.836 -0.0341  0.2557 -0.0606
  909loPI   C1B13873  17.749   6.492   6.081  0.2820  0.2120  0.2352
  909loPI   C2B13874  17.742   6.321   6.544 -0.0196 -0.3050  0.1240
  909loPI   C3B13875  17.734   6.333   7.034  0.0118 -0.1754  0.0251
  909loPI   C4B13876  17.862   5.995   7.372  0.3028 -0.1783 -0.0360
  910loPI    C113877  19.018  11.324   5.032  0.0168 -0.3611  0.0532
  910loPI    C213878  18.973  11.196   4.656 -0.0641  0.0248 -0.0727
  910loPI    C313879  18.655  11.318   4.865  0.0423  0.2657 -0.0479
  910loPI   PO413880  19.193  11.445   5.054 -0.0145 -0.3106  0.0805
  910loPI   GL113881  19.425  11.713   5.392  0.1761  0.1454  0.0015
  910loPI   GL213882  19.408  11.988   5.432  0.1957  0.2729  0.1024
  910loPI   C1A13883  19.658  11.783   5.827 -0.0905 -0.1933 -0.1703
  910loPI   C2A13884  19.406  11.994   6.214 -0.0437 -0.3510  0.0031
  910loPI   C3A13885  19.244  12.091   6.654  0.0557 -0.2195  0.0312
  910loPI   C4A13886  19.427  11.970   7.084  0.2692  0.0467  0.0314
  910loPI   C5A13887  19.569  11.932   7.452 -0.1679  0.2346 -0.1010
  910loPI   C6A13888  19.959  11.711   7.604 -0.0210  0.1576  0.0123
  910loPI   C1B13889  19.209  12.082   5.803  0.0948 -0.0392  0.0214
  910loPI   C2B13890  18.900  12.010   6.016  0.3440  0.2168  0.1106
  910loPI   C3B13891  18.763  12.028   6.442 -0.2083 -0.1556  0.0606
  910loPI   C4B13892  18.643  12.274   6.645 -0.1071  0.0972  0.2351
  911loPI    C113893   5.696  13.452   4.848  0.3843 -0.0772 -0.1192
  911loPI    C213894   5.890  13.695   4.596  0.0623  0.0285 -0.2716
  911loPI    C313895   5.614  13.441   4.457 -0.2845  0.2492 -0.0035
  911loPI   PO413896   5.640  13.624   5.054 -0.4585  0.2366 -0.1503
  911loPI   GL113897   5.591  13.689   5.496  0.2954 -0.1282 -0.0187
  911loPI   GL213898   5.925  13.770   5.627  0.0554 -0.0033 -0.2215
  911loPI   C1A13899   5.497  13.767   5.799  0.2503  0.1328  0.0527
  911loPI   C2A13900   5.556  13.894   6.180  0.0721  0.2529  0.1205
  911loPI   C3A13901   5.525  13.890   6.623  0.2042 -0.2637  0.2962
  911loPI   C4A13902   5.370  13.877   7.004  0.1537 -0.2775 -0.0748
  911loPI   C5A13903   5.247  13.981   7.366 -0.2087  0.0844 -0.0295
  911loPI   C6A13904   5.122  13.761   7.731 -0.2551  0.1464  0.1233
  911loPI   C1B13905   5.991  13.691   6.109  0.0064  0.0306  0.1046
  911loPI   C2B13906   6.103  13.647   6.594  0.0133 -0.0282  0.0016
  911loPI   C3B13907   5.791  13.641   7.044 -0.0955 -0.2082 -0.0366
  911loPI   C4B13908   5.523  13.578   7.392 -0.0286 -0.1183 -0.0125
  912loPI    C113909   2.820   1.590   4.769 -0.0410 -0.1340 -0.0139
  912loPI    C213910   2.700   1.946   4.631 -0.2388 -0.1856  0.0219
  912loPI    C313911   2.854   1.675   4.380 -0.0743 -0.0701 -0.0030
  912loPI   PO413912   2.787   1.626   5.050  0.0615  0.1973 -0.0135
  912loPI   GL113913   2.804   1.749   5.396  0.0572 -0.0566  0.3140
  912loPI   GL213914   2.664   1.909   5.541 -0.2152 -0.2274  0.0354
  912loPI   C1A13915   3.030   1.737   5.748  0.0117  0.3145 -0.0670
  912loPI   C2A13916   3.117   1.767   6.051  0.4619  0.0142  0.1712
  912loPI   C3A13917   3.172   2.098   6.394  0.2208 -0.2208 -0.1792
  912loPI   C4A13918   3.101   2.169   6.764  0.0203  0.0508  0.1561
  912loPI   C5A13919   3.142   2.109   7.204  0.2159  0.0108  0.1519
  912loPI   C6A13920   2.925   1.993   7.503 -0.2389 -0.0585  0.0641
  912loPI   C1B13921   2.287   1.792   5.828  0.1498  0.1790  0.0095
  912loPI   C2B13922   2.233   1.601   6.254 -0.0760 -0.0241  0.1671
  912loPI   C3B13923   2.440   1.423   6.522  0.0325 -0.1795  0.0770
  912loPI   C4B13924   2.617   1.347   6.946 -0.1841  0.0536  0.0848
  913loPI    C113925   7.073  16.878   4.763 -0.0940 -0.0765  0.1509
  913loPI    C213926   7.067  17.235   4.583  0.1691 -0.1571 -0.0247
  913loPI    C313927   7.328  16.956   4.465  0.0482 -0.3665  0.1926
  913loPI   PO413928   6.740  16.911   4.821 -0.1719 -0.1264  0.0803
  913loPI   GL113929   6.520  16.845   5.119  0.1569 -0.1377 -0.0099
  913loPI   GL213930   6.773  17.041   5.375 -0.0176  0.1073 -0.0887
  913loPI   C1A13931   6.400  16.754   5.523 -0.0182 -0.1283  0.2536
  913loPI   C2A13932   6.486  16.641   6.001 -0.0510  0.0094  0.5333
  913loPI   C3A13933   6.466  16.646   6.386  0.1520  0.3113  0.4002
  913loPI   C4A13934   6.118  16.679   6.632 -0.1410 -0.2431  0.1263
  913loPI   C5A13935   5.917  16.682   7.089 -0.0873 -0.3349  0.4200
  913loPI   C6A13936   5.776  16.314   7.374  0.0748 -0.0328  0.1013
  913loPI   C1B13937   6.686  17.202   5.832 -0.0992  0.3713  0.0559
  913loPI   C2B13938   6.552  17.150   6.231 -0.2145  0.0345  0.0681
  913loPI   C3B13939   6.421  17.120   6.672 -0.0257 -0.0366  0.2108
  913loPI   C4B13940   6.272  17.224   7.079  0.2749 -0.0241  0.2449
  914loPI    C113941  18.469  13.813   4.755  0.0322  0.0285  0.0175
  914loPI    C213942  18.296  13.570   4.488 -0.0989 -0.0276  0.1516
  914loPI    C313943  18.577  13.830   4.370 -0.1392 -0.0676 -0.0359
  914loPI   PO413944  18.600  13.602   4.993  0.0251  0.1744 -0.5169
  914loPI   GL113945  18.448  13.570   5.448 -0.0618  0.0327 -0.0798
  914loPI   GL213946  18.748  13.480   5.464 -0.3166 -0.2468  0.2030
  914loPI   C1A13947  18.370  13.925   5.760  0.0290  0.2786  0.2892
  914loPI   C2A13948  18.411  13.940   6.241 -0.0615 -0.0367  0.1693
  914loPI   C3A13949  18.222  14.029   6.665  0.3675  0.0163  0.2674
  914loPI   C4A13950  18.001  14.204   7.077  0.0342 -0.1668  0.1510
  914loPI   C5A13951  17.703  14.389   7.317 -0.0054 -0.1746  0.1562
  914loPI   C6A13952  17.640  14.687   7.666 -0.0201  0.0784  0.1698
  914loPI   C1B13953  18.857  13.444   5.904 -0.2282  0.0420  0.3349
  914loPI   C2B13954  18.866  13.611   6.352 -0.0474 -0.1374  0.0699
  914loPI   C3B13955  18.665  13.826   6.691  0.0964 -0.0903  0.0943
  914loPI   C4B13956  18.559  14.202   6.938  0.1709  0.0698  0.0744
  915loPI    C113957   6.958  18.848   4.790  0.0813  0.1252 -0.0079
  915loPI    C213958   6.589  18.697   4.759  0.1632 -0.0862  0.0263
  915loPI    C313959   6.893  18.520   4.570  0.2207  0.1857 -0.1409
  915loPI   PO413960   6.908  18.908   5.096 -0.1043  0.1330  0.0556
  915loPI   GL113961   7.010  18.738   5.495  0.0372  0.1742  0.1070
  915loPI   GL213962   7.262  18.662   5.241  0.0317 -0.0420  0.0619
  915loPI   C1A13963   7.148  18.902   5.909  0.2014  0.0472  0.1102
  915loPI   C2A13964   6.986  18.890   6.352 -0.1307  0.0914 -0.2152
  915loPI   C3A13965   6.835  18.739   6.752  0.0278 -0.1919 -0.3138
  915loPI   C4A13966   6.765  18.702   7.135  0.0162 -0.2614  0.2523
  915loPI   C5A13967   6.529  18.444   7.354  0.1296  0.1206 -0.1653
  915loPI   C6A13968   6.246  18.070   7.378 -0.0055 -0.0425 -0.2478
  915loPI   C1B13969   7.397  19.071   5.470 -0.0955 -0.1332  0.0688
  915loPI   C2B13970   7.640  19.250   5.882  0.1116 -0.1227 -0.1508
  915loPI   C3B13971   7.685  19.364   6.415 -0.4628  0.0940 -0.0973
  915loPI   C4B13972   7.638  19.174   6.832  0.0963 -0.0694  0.0377
  916loPI    C113973  17.910   9.788   4.876 -0.1423 -0.0135  0.0666
  916loPI    C213974  18.078   9.926   4.541  0.3263 -0.1470  0.2390
  916loPI    C313975  17.954   9.547   4.561 -0.0373 -0.0392  0.1004
  916loPI   PO413976  18.044   9.965   5.165 -0.0319 -0.1715 -0.3648
  916loPI   GL113977  18.108  10.013   5.593 -0.1350 -0.3213  0.0585
  916loPI   GL213978  17.783  10.012   5.573  0.0942  0.1168  0.0806
  916loPI   C1A13979  18.492   9.905   5.956  0.1467 -0.1520  0.0179
  916loPI   C2A13980  18.623  10.114   6.330 -0.0517 -0.0018  0.2288
  916loPI   C3A13981  18.560  10.307   6.669 -0.3108 -0.1812 -0.1461
  916loPI   C4A13982  18.710  10.609   6.982 -0.2695  0.0985 -0.2578
  916loPI   C5A13983  18.797  10.760   7.396 -0.2044  0.2717 -0.0218
  916loPI   C6A13984  19.004  11.077   7.335 -0.2065 -0.2810  0.2511
  916loPI   C1B13985  17.792  10.000   6.019 -0.3193  0.0273 -0.0573
  916loPI   C2B13986  17.789  10.148   6.370  0.0282  0.0377 -0.0929
  916loPI   C3B13987  17.902  10.218   6.816 -0.0071 -0.4446  0.5319
  916loPI   C4B13988  17.722  10.429   7.014  0.1702  0.1244  0.1969
  917loPI    C113989   4.311  10.499   5.254  0.0365 -0.0355 -0.0066
  917loPI    C213990   4.258  10.235   4.958 -0.1755 -0.1158  0.1014
  917loPI    C313991   3.978  10.512   5.032 -0.0001  0.0762  0.0539
  917loPI   PO413992   4.491  10.404   5.342  0.0245 -0.1600 -0.1349
  917loPI   GL113993   4.590  10.140   5.697 -0.3980  0.0274  0.0215
  917loPI   GL213994   4.280  10.189   5.810  0.4396  0.0862  0.1130
  917loPI   C1A13995   4.835  10.207   6.000 -0.1930  0.0615  0.2279
  917loPI   C2A13996   4.978  10.184   6.475 -0.1395  0.0511 -0.1789
  917loPI   C3A13997   5.121  10.164   6.875 -0.0883 -0.1832 -0.0119
  917loPI   C4A13998   4.964  10.143   7.248  0.1666 -0.1840  0.0040
  917loPI   C5A13999   4.825  10.306   7.609 -0.4415 -0.1738  0.0448
  917loPI   C6A14000   4.468  10.480   7.677  0.2671 -0.0756 -0.3129
  917loPI   C1B14001   4.040  10.164   6.182 -0.1275  0.0218 -0.0820
  917loPI   C2B14002   3.973  10.120   6.527 -0.0717  0.2555  0.3193
  917loPI   C3B14003   3.880  10.140   6.938 -0.1542  0.3480  0.1007
  917loPI   C4B14004   3.877  10.449   7.241  0.0494  0.3554  0.1576
  918loPI    C114005  14.117   6.798   4.445  0.0117  0.1882 -0.4284
  918loPI    C214006  13.959   6.432   4.477  0.2114  0.1283 -0.0680
  918loPI    C314007  14.144   6.541   4.140 -0.1005  0.0027 -0.2845
  918loPI   PO414008  14.138   6.738   4.832  0.0238  0.0987 -0.0472
  918loPI   GL114009  13.991   6.571   5.205 -0.0412  0.1775 -0.1152
  918loPI   GL214010  13.831   6.770   5.479 -0.0403 -0.2795  0.2839
  918loPI   C1A14011  14.305   6.660   5.587 -0.3155 -0.1696  0.0942
  918loPI   C2A14012  14.301   6.333   5.929 -0.2748  0.3505 -0.0276
  918loPI   C3A14013  14.368   6.465   6.345 -0.0487 -0.1330  0.1312
  918loPI   C4A14014  14.229   6.241   6.706  0.0453  0.0769  0.1114
  918loPI   C5A14015  14.261   6.138   7.185 -0.1084 -0.4523 -0.1234
  918loPI   C6A14016  14.266   5.916   7.562 -0.1230 -0.0028  0.1768
  918loPI   C1B14017  13.790   6.587   5.923  0.1613 -0.1650 -0.2369
  918loPI   C2B14018  13.913   6.505   6.339  0.0187 -0.2433 -0.1779
  918loPI   C3B14019  13.694   6.574   6.699 -0.0492  0.0570 -0.0029
  918loPI   C4B14020  13.347   6.799   6.633  0.3115 -0.1227 -0.0748
  919loPI    C114021   2.895  13.060   5.037  0.2708  0.0956 -0.1220
  919loPI    C214022   3.166  13.343   5.117  0.1859  0.1216  0.0813
  919loPI    C314023   3.061  13.267   4.738  0.2438  0.3294  0.0225
  919loPI   PO414024   2.799  12.975   5.287  0.0259  0.2430 -0.2841
  919loPI   GL114025   2.657  12.916   5.615  0.0762  0.1285  0.2973
  919loPI   GL214026   2.404  13.153   5.698 -0.0484 -0.1929  0.0050
  919loPI   C1A14027   2.699  12.777   5.994 -0.1044 -0.2482 -0.2722
  919loPI   C2A14028   2.721  12.941   6.383 -0.0043 -0.1512  0.1382
  919loPI   C3A14029   2.637  12.986   6.847  0.1955 -0.1488  0.1936
  919loPI   C4A14030   2.560  12.988   7.265  0.3035 -0.0179  0.1701
  919loPI   C5A14031   2.502  12.877   7.698 -0.0239 -0.0155 -0.0310
  919loPI   C6A14032   2.666  12.638   7.993  0.0416 -0.0586 -0.0174
  919loPI   C1B14033   2.402  13.140   6.096  0.0247 -0.1126 -0.0466
  919loPI   C2B14034   2.257  13.189   6.476  0.2452 -0.1465 -0.4153
  919loPI   C3B14035   2.078  13.254   6.834 -0.1457  0.0048 -0.0891
  919loPI   C4B14036   2.058  12.923   7.228  0.0768 -0.2758  0.1991
  920loPI    C114037   5.544   5.991   4.719 -0.0236  0.0100  0.1788
  920loPI    C214038   5.842   5.736   4.640 -0.0220  0.0346  0.1045
  920loPI    C314039   5.665   5.935   4.342 -0.2727 -0.1583  0.1210
  920loPI   PO414040   5.496   5.887   4.956  0.2589 -0.0824 -0.0419
  920loPI   GL114041   5.336   5.935   5.414 -0.2509  0.3348  0.3814
  920loPI   GL214042   5.202   5.622   5.514 -0.1200  0.3899  0.2703
  920loPI   C1A14043   5.226   6.023   5.898  0.0199  0.0709  0.2303
  920loPI   C2A14044   5.106   6.106   6.375  0.3093  0.2275  0.1395
  920loPI   C3A14045   5.129   6.027   6.778 -0.1256  0.3025  0.5354
  920loPI   C4A14046   5.082   5.722   6.998  0.0646  0.1287  0.0868
  920loPI   C5A14047   5.017   5.267   7.154 -0.1375  0.0107 -0.0793
  920loPI   C6A14048   5.048   4.861   7.319 -0.2652  0.1185 -0.0952
  920loPI   C1B14049   5.071   5.466   6.017 -0.0514 -0.0330  0.1153
  920loPI   C2B14050   5.156   5.443   6.443  0.2718  0.0937  0.1178
  920loPI   C3B14051   5.126   5.228   6.667 -0.0606  0.0218  0.1379
  920loPI   C4B14052   4.973   4.938   6.819 -0.0904 -0.0069 -0.1870
  921loPI    C114053   5.557   4.691   4.734 -0.0439 -0.0421 -0.0591
  921loPI    C214054   5.425   4.878   4.406 -0.0679  0.0268 -0.0103
  921loPI    C314055   5.420   4.479   4.424 -0.0607  0.0227 -0.0962
  921loPI   PO414056   5.510   4.756   4.927 -0.2659 -0.0954 -0.0755
  921loPI   GL114057   5.332   4.632   5.365 -0.0239  0.1369 -0.0855
  921loPI   GL214058   5.622   4.654   5.371  0.0891  0.4699 -0.1577
  921loPI   C1A14059   5.331   4.710   5.805  0.2004 -0.0310 -0.2517
  921loPI   C2A14060   4.991   4.721   6.137 -0.1439  0.3137 -0.0245
  921loPI   C3A14061   5.085   4.533   6.519  0.1187  0.0209 -0.1662
  921loPI   C4A14062   5.228   4.513   6.971  0.1796  0.0364 -0.0799
  921loPI   C5A14063   5.156   4.375   7.442  0.0369 -0.2532  0.0537
  921loPI   C6A14064   5.299   4.540   7.796 -0.0296  0.0815 -0.1397
  921loPI   C1B14065   5.854   4.635   5.810 -0.1774  0.0077  0.3813
  921loPI   C2B14066   5.824   4.748   6.295 -0.0827 -0.3635 -0.0412
  921loPI   C3B14067   5.997   4.761   6.595 -0.3479 -0.0221 -0.1017
  921loPI   C4B14068   6.048   5.057   6.874 -0.0662  0.0853  0.1911
  922loPI    C114069   3.620   2.348   5.134 -0.0832 -0.1475  0.3009
  922loPI    C214070   3.906   2.404   4.860  0.0571  0.0875  0.4921
  922loPI    C314071   3.784   2.034   4.948 -0.0351  0.0126  0.0688
  922loPI   PO414072   3.672   2.617   5.316  0.1267  0.3029 -0.0227
  922loPI   GL114073   3.443   2.953   5.421 -0.2298  0.1276 -0.0812
  922loPI   GL214074   3.074   2.756   5.578 -0.0306 -0.0048  0.0895
  922loPI   C1A14075   3.619   2.812   5.930  0.0205 -0.0342  0.0393
  922loPI   C2A14076   3.617   2.865   6.397  0.0296 -0.1755 -0.2075
  922loPI   C3A14077   3.915   2.896   6.717 -0.0258 -0.0226 -0.0678
  922loPI   C4A14078   3.858   3.240   7.081 -0.0666  0.0811 -0.0651
  922loPI   C5A14079   3.698   3.286   7.487  0.0655 -0.2720 -0.1817
  922loPI   C6A14080   3.364   3.267   7.839 -0.2491  0.0962 -0.1094
  922loPI   C1B14081   2.777   2.692   5.909  0.0908 -0.0612  0.0232
  922loPI   C2B14082   2.623   2.419   6.279  0.0569  0.1588 -0.0043
  922loPI   C3B14083   2.619   2.334   6.721  0.0254  0.0574 -0.1808
  922loPI   C4B14084   2.550   2.192   7.151 -0.0010 -0.1420  0.0362
  923loPI    C114085  17.105   8.523   5.116 -0.1784 -0.0934  0.2061
  923loPI    C214086  17.320   8.199   5.018  0.0643  0.1353 -0.0352
  923loPI    C314087  17.042   8.339   4.766  0.1263  0.2533 -0.0385
  923loPI   PO414088  17.285   8.638   5.254 -0.0202 -0.0255 -0.2069
  923loPI   GL114089  17.479   8.637   5.761  0.3808  0.2503 -0.0151
  923loPI   GL214090  17.459   8.940   5.842 -0.1218 -0.2068 -0.0942
  923loPI   C1A14091  17.491   8.638   6.250  0.3186  0.0582  0.0689
  923loPI   C2A14092  17.542   8.338   6.482  0.1276  0.2052  0.2006
  923loPI   C3A14093  17.707   8.093   6.816  0.2430  0.2522  0.0442
  923loPI   C4A14094  17.893   8.273   7.235  0.2620  0.5581  0.2235
  923loPI   C5A14095  17.692   8.278   7.527 -0.1787 -0.2704 -0.0587
  923loPI   C6A14096  17.523   8.488   7.841  0.3499 -0.1974 -0.0126
  923loPI   C1B14097  17.754   9.036   6.266  0.1413 -0.1736  0.0629
  923loPI   C2B14098  17.878   9.122   6.700  0.1678 -0.0198 -0.0664
  923loPI   C3B14099  17.839   9.249   7.097 -0.1534 -0.3481  0.2248
  923loPI   C4B14100  17.980   9.210   7.452 -0.1828  0.0198 -0.0881
  924loPI    C114101   1.721   5.647   4.991  0.0853  0.0981 -0.2206
  924loPI    C214102   1.611   5.973   4.786  0.1335  0.1361 -0.1861
  924loPI    C314103   1.831   6.010   5.118 -0.0735  0.0849 -0.0411
  924loPI   PO414104   1.561   5.495   5.030 -0.1117 -0.3006 -0.2581
  924loPI   GL114105   1.497   5.459   5.423 -0.0008 -0.0400 -0.3388
  924loPI   GL214106   1.715   5.656   5.487 -0.1989 -0.2026  0.1121
  924loPI   C1A14107   1.646   5.071   5.756  0.2406  0.1341 -0.0638
  924loPI   C2A14108   1.640   4.955   6.203  0.0223 -0.0246 -0.0204
  924loPI   C3A14109   1.516   4.863   6.619  0.0935 -0.2895  0.1196
  924loPI   C4A14110   1.565   4.744   7.071  0.3246 -0.0005 -0.1576
  924loPI   C5A14111   1.478   4.865   7.569  0.0649  0.1535  0.1872
  924loPI   C6A14112   1.425   4.579   7.904  0.1023 -0.0017  0.0673
  924loPI   C1B14113   1.850   5.661   5.910  0.1248  0.2193  0.3386
  924loPI   C2B14114   1.767   5.544   6.315  0.0705  0.1704 -0.1771
  924loPI   C3B14115   1.762   5.330   6.707 -0.1713 -0.1020 -0.3474
  924loPI   C4B14116   1.825   5.205   7.181  0.0783  0.3515  0.1170
  925loPI    C114117   9.572  18.238   4.867 -0.1010 -0.0096 -0.4958
  925loPI    C214118   9.346  18.522   5.034 -0.0655 -0.0729 -0.3389
  925loPI    C314119   9.622  18.621   4.762  0.0595  0.0635 -0.1653
  925loPI   PO414120   9.659  18.005   5.086  0.0549  0.1714 -0.2842
  925loPI   GL114121   9.969  17.856   5.368 -0.1723 -0.5133  0.1391
  925loPI   GL214122  10.163  18.179   5.513  0.2628  0.2101  0.0500
  925loPI   C1A14123   9.702  17.910   5.772 -0.1716 -0.2617  0.1838
  925loPI   C2A14124   9.393  17.914   6.038 -0.0300  0.0470  0.0102
  925loPI   C3A14125   9.282  18.230   6.421 -0.2169  0.0614 -0.0553
  925loPI   C4A14126   9.385  18.350   6.933  0.1517  0.0269 -0.0482
  925loPI   C5A14127   9.430  18.506   7.347 -0.2143  0.2382  0.2699
  925loPI   C6A14128   9.389  18.420   7.833  0.0349 -0.1565  0.2069
  925loPI   C1B14129  10.065  18.191   5.993 -0.2004  0.4125 -0.2571
  925loPI   C2B14130   9.794  18.132   6.232 -0.3031  0.0108  0.5145
  925loPI   C3B14131   9.717  18.311   6.622  0.2419 -0.0492 -0.0279
  925loPI   C4B14132   9.899  18.454   7.071 -0.4428 -0.0963 -0.1610
  926loPI    C114133  15.232  18.981   4.829 -0.0248  0.1298  0.0662
  926loPI    C214134  15.199  18.773   4.488 -0.1377  0.3750 -0.0751
  926loPI    C314135  14.871  18.880   4.690 -0.0677  0.1467  0.1652
  926loPI   PO414136  15.448  18.870   4.923  0.0190 -0.3250 -0.2627
  926loPI   GL114137  15.503  18.657   5.408  0.0341 -0.0905 -0.0267
  926loPI   GL214138  15.824  18.889   5.378  0.1079 -0.0926 -0.2391
  926loPI   C1A14139  15.363  18.855   5.752  0.0288  0.1386  0.0085
  926loPI   C2A14140  15.343  18.865   6.143 -0.3165  0.2053  0.0679
  926loPI   C3A14141  15.419  18.947   6.516 -0.0032 -0.0178  0.0129
  926loPI   C4A14142  15.201  18.704   6.875 -0.0401  0.0988 -0.0945
  926loPI   C5A14143  14.888  18.538   7.085 -0.2349  0.1348  0.1559
  926loPI   C6A14144  14.642  18.428   7.441  0.1629  0.0695  0.0804
  926loPI   C1B14145  15.808  19.018   5.877 -0.0037 -0.1050 -0.1348
  926loPI   C2B14146  15.860  19.121   6.226  0.3387 -0.1240 -0.0432
  926loPI   C3B14147  16.106  18.949   6.607  0.1336 -0.0645  0.3069
  926loPI   C4B14148  16.228  18.750   6.967  0.1020  0.3122  0.1411
  927loPI    C114149   5.356  11.305   4.657  0.0407  0.0024 -0.1030
  927loPI    C214150   5.338  11.588   4.375  0.0554 -0.0552 -0.1620
  927loPI    C314151   5.535  11.247   4.304  0.1868 -0.0084 -0.0280
  927loPI   PO414152   5.467  11.390   4.889 -0.0340  0.1137  0.2188
  927loPI   GL114153   5.513  11.383   5.307  0.0132 -0.0955 -0.1516
  927loPI   GL214154   5.251  11.600   5.466  0.1129 -0.2534 -0.3382
  927loPI   C1A14155   5.607  11.267   5.671 -0.1739  0.3211 -0.2746
  927loPI   C2A14156   5.964  11.385   5.995  0.0082 -0.0615 -0.0865
  927loPI   C3A14157   6.142  11.558   6.392 -0.0835 -0.3586  0.2389
  927loPI   C4A14158   6.301  11.739   6.785  0.0858  0.1277  0.3687
  927loPI   C5A14159   6.112  11.854   7.189  0.3782  0.1622 -0.2035
  927loPI   C6A14160   5.689  11.938   7.358  0.4871 -0.0319  0.1717
  927loPI   C1B14161   5.014  11.661   5.778  0.2538 -0.1034  0.0846
  927loPI   C2B14162   5.053  11.895   6.171 -0.2517  0.1738 -0.0642
  927loPI   C3B14163   5.295  11.886   6.430 -0.0955  0.0624  0.4392
  927loPI   C4B14164   5.666  11.708   6.296  0.1644  0.2567  0.1267
  928loPI    C114165  12.333   7.661   4.963 -0.0571  0.0134  0.0660
  928loPI    C214166  12.628   7.588   4.703 -0.0562 -0.0879  0.0949
  928loPI    C314167  12.328   7.327   4.743 -0.1644  0.0280  0.0459
  928loPI   PO414168  12.447   7.717   5.220  0.0318  0.3628  0.0221
  928loPI   GL114169  12.404   7.448   5.532  0.0553  0.1417 -0.3908
  928loPI   GL214170  12.168   7.612   5.625  0.0764  0.0958 -0.2535
  928loPI   C1A14171  12.639   7.730   5.787 -0.0211  0.0146 -0.1420
  928loPI   C2A14172  12.804   7.679   6.144  0.1551  0.1248  0.0676
  928loPI   C3A14173  12.735   7.514   6.527  0.3631 -0.0627 -0.1771
  928loPI   C4A14174  12.909   7.399   6.856 -0.5471  0.2777  0.0188
  928loPI   C5A14175  13.175   7.098   7.042  0.4619  0.0242 -0.2242
  928loPI   C6A14176  13.473   7.003   7.388  0.0859  0.1618 -0.0488
  928loPI   C1B14177  12.007   7.710   5.914 -0.1226 -0.2707  0.2224
  928loPI   C2B14178  11.704   7.601   6.149 -0.4589  0.1241  0.1069
  928loPI   C3B14179  11.423   7.736   6.486  0.1390  0.2729 -0.0340
  928loPI   C4B14180  11.486   7.961   6.873 -0.1002  0.0972 -0.0795
  929loPI    C114181  10.672  12.285   4.721  0.2386  0.0197 -0.3755
  929loPI    C214182  10.662  12.647   4.890  0.0958 -0.1147 -0.0895
  929loPI    C314183  10.482  12.586   4.538 -0.0214  0.0532 -0.0604
  929loPI   PO414184  10.768  12.173   4.928 -0.0092  0.0481 -0.0057
  929loPI   GL114185  10.833  11.978   5.386  0.0539 -0.0818  0.1283
  929loPI   GL214186  10.495  11.967   5.439  0.0432 -0.1617  0.0361
  929loPI   C1A14187  11.118  11.970   5.767  0.0995  0.1094  0.1342
  929loPI   C2A14188  11.174  11.713   6.126  0.1200  0.1798  0.1209
  929loPI   C3A14189  10.920  11.768   6.563 -0.3005  0.3446 -0.2240
  929loPI   C4A14190  10.768  11.959   6.801 -0.0156 -0.0786 -0.2774
  929loPI   C5A14191  10.538  12.016   7.110  0.2793  0.0567 -0.2102
  929loPI   C6A14192  10.221  11.975   7.391 -0.2103 -0.0394  0.0009
  929loPI   C1B14193  10.593  12.133   5.837  0.0734 -0.3548  0.3256
  929loPI   C2B14194  10.468  12.244   6.135  0.2199  0.2147 -0.2464
  929loPI   C3B14195  10.588  12.472   6.513 -0.1131 -0.1342  0.3374
  929loPI   C4B14196  10.665  12.719   6.912 -0.1020 -0.1449  0.0736
  930loPI    C114197  11.536  11.322   4.813  0.0746  0.0177 -0.1318
  930loPI    C214198  11.468  11.708   4.734  0.0520  0.0565  0.0700
  930loPI    C314199  11.712  11.496   4.499 -0.1391  0.1238 -0.1950
  930loPI   PO414200  11.263  11.256   4.879  0.1909 -0.0230 -0.1257
  930loPI   GL114201  11.296  11.124   5.236  0.0785 -0.0425  0.0874
  930loPI   GL214202  10.933  11.221   5.263  0.1276  0.1670 -0.3516
  930loPI   C1A14203  11.506  10.974   5.613  0.4453  0.0197  0.3035
  930loPI   C2A14204  11.441  11.084   6.055 -0.1506  0.0733  0.0111
  930loPI   C3A14205  11.468  11.305   6.496 -0.2588 -0.0946  0.3346
  930loPI   C4A14206  11.393  11.684   6.676 -0.0919 -0.0169 -0.0166
  930loPI   C5A14207  11.180  11.803   7.006  0.1314 -0.2486  0.1379
  930loPI   C6A14208  10.969  11.906   7.361  0.0712 -0.2392  0.1527
  930loPI   C1B14209  11.119  11.500   5.554 -0.3346 -0.2377  0.1483
  930loPI   C2B14210  11.462  11.475   5.732 -0.0872  0.1791  0.0851
  930loPI   C3B14211  11.667  11.566   6.159  0.2711 -0.0294  0.0645
  930loPI   C4B14212  11.998  11.251   6.290 -0.1140 -0.1192 -0.1485
  931loPI    C114213  16.406   3.963   5.135 -0.2331 -0.0070  0.0111
  931loPI    C214214  16.491   3.587   5.026  0.0566  0.0777 -0.0635
  931loPI    C314215  16.701   3.892   4.874  0.0271  0.2479  0.2297
  931loPI   PO414216  16.472   4.006   5.449  0.0420 -0.1451 -0.3168
  931loPI   GL114217  16.255   4.158   5.621 -0.2296  0.2031  0.0381
  931loPI   GL214218  15.999   4.004   5.519  0.1666  0.2368 -0.0101
  931loPI   C1A14219  16.116   4.221   6.020 -0.0216 -0.1517  0.0879
  931loPI   C2A14220  16.077   4.064   6.325 -0.1748  0.1442  0.1082
  931loPI   C3A14221  15.888   3.967   6.636 -0.0299  0.1120 -0.2174
  931loPI   C4A14222  15.607   4.016   7.060  0.0169 -0.1305  0.1240
  931loPI   C5A14223  15.544   3.723   7.416 -0.1229 -0.2595  0.0173
  931loPI   C6A14224  15.275   3.731   7.683  0.4013 -0.1631  0.5074
  931loPI   C1B14225  15.633   4.160   5.828  0.1280 -0.3302  0.1266
  931loPI   C2B14226  15.667   4.290   6.273  0.0939  0.0084 -0.2038
  931loPI   C3B14227  15.316   4.225   6.526  0.1504 -0.1308  0.1510
  931loPI   C4B14228  14.979   4.191   6.834  0.2196  0.0042 -0.2447
  932loPI    C114229  15.827  10.281   5.279 -0.0189 -0.0579 -0.1390
  932loPI    C214230  16.226  10.265   5.286 -0.0111  0.1567  0.0016
  932loPI    C314231  16.037  10.405   4.962  0.0065 -0.3864 -0.2541
  932loPI   PO414232  15.643  10.387   5.454 -0.1387 -0.1676  0.2755
  932loPI   GL114233  15.516  10.304   5.815 -0.0117  0.0278  0.1959
  932loPI   GL214234  15.364  10.063   5.662 -0.0504 -0.1179 -0.4264
  932loPI   C1A14235  15.332  10.286   6.254  0.2396  0.2561  0.0877
  932loPI   C2A14236  15.433  10.275   6.711  0.2027 -0.1077  0.0726
  932loPI   C3A14237  15.438  10.368   7.033 -0.0520 -0.1696 -0.4560
  932loPI   C4A14238  15.386  10.400   7.429  0.0830 -0.0998  0.1550
  932loPI   C5A14239  15.388  10.822   7.689 -0.2294  0.0348  0.0580
  932loPI   C6A14240  15.667  11.121   7.789  0.2913  0.0932  0.2073
  932loPI   C1B14241  15.027   9.938   5.980 -0.2412  0.2313  0.2114
  932loPI   C2B14242  15.028   9.942   6.460  0.1696  0.3274  0.0226
  932loPI   C3B14243  15.181   9.593   6.517 -0.2510  0.1793 -0.0198
  932loPI   C4B14244  15.081   9.174   6.409  0.1835 -0.0310  0.5453
  933loPI    C114245  13.058   8.982   4.808  0.0210 -0.3427 -0.1495
  933loPI    C214246  13.039   9.296   4.561 -0.2227  0.0381  0.3355
  933loPI    C314247  12.984   8.926   4.419  0.0741  0.2052 -0.2463
  933loPI   PO414248  13.209   9.142   5.057  0.0001  0.0269 -0.4007
  933loPI   GL114249  13.308   9.129   5.564 -0.1856  0.1986  0.2126
  933loPI   GL214250  13.090   8.891   5.568  0.1313  0.0665  0.0940
  933loPI   C1A14251  13.286   9.207   6.018  0.3107 -0.3751  0.1287
  933loPI   C2A14252  13.161   9.173   6.432  0.0385  0.1144  0.4229
  933loPI   C3A14253  13.079   9.141   6.869  0.0159 -0.0087  0.0598
  933loPI   C4A14254  12.972   8.907   7.306 -0.1195  0.0865 -0.0248
  933loPI   C5A14255  13.083   8.565   7.522 -0.1627  0.0562 -0.2151
  933loPI   C6A14256  13.137   8.384   7.972 -0.0261 -0.0480  0.2782
  933loPI   C1B14257  12.929   8.733   5.976  0.2240  0.0614 -0.1284
  933loPI   C2B14258  12.925   8.726   6.478  0.1814 -0.0371  0.0147
  933loPI   C3B14259  12.966   8.635   6.875  0.0506  0.1437  0.1798
  933loPI   C4B14260  12.573   8.645   7.123  0.1576  0.3098 -0.0087
  934loPI    C114261  14.096  16.132   4.539  0.0378 -0.3603 -0.0447
  934loPI    C214262  13.731  16.166   4.379  0.0400 -0.0264  0.0142
  934loPI    C314263  14.055  16.234   4.155  0.0513  0.1484  0.0826
  934loPI   PO414264  14.091  16.274   4.806 -0.0702 -0.2843 -0.0209
  934loPI   GL114265  13.983  16.339   5.153  0.1137 -0.1598  0.0016
  934loPI   GL214266  13.839  16.088   5.250  0.1208  0.3477 -0.0807
  934loPI   C1A14267  14.197  16.349   5.611  0.0929 -0.3526  0.3480
  934loPI   C2A14268  14.094  16.461   6.017  0.1029  0.3893 -0.0425
  934loPI   C3A14269  14.082  16.483   6.356 -0.1645 -0.0521 -0.0772
  934loPI   C4A14270  13.917  16.199   6.564  0.0170 -0.1849 -0.0256
  934loPI   C5A14271  13.782  16.100   6.990  0.1514 -0.1643  0.1032
  934loPI   C6A14272  13.729  15.640   7.264 -0.0865 -0.2584 -0.1364
  934loPI   C1B14273  13.750  16.172   5.653 -0.3549  0.0956 -0.0721
  934loPI   C2B14274  13.692  16.094   6.085  0.0416 -0.0095 -0.3274
  934loPI   C3B14275  13.809  15.740   6.419 -0.0685 -0.1650 -0.1623
  934loPI   C4B14276  14.162  15.558   6.694  0.0467  0.0755 -0.0306
  935loPI    C114277   5.977  12.918   4.813 -0.0453 -0.3034 -0.1231
  935loPI    C214278   6.036  13.021   4.432  0.0851 -0.0935 -0.0481
  935loPI    C314279   6.201  13.238   4.725 -0.1758 -0.1368  0.1342
  935loPI   PO414280   5.744  12.871   4.887 -0.0574 -0.0305  0.2753
  935loPI   GL114281   5.616  12.895   5.199  0.1725  0.3194  0.0783
  935loPI   GL214282   5.540  13.212   5.307 -0.2710 -0.4134 -0.0398
  935loPI   C1A14283   5.630  12.712   5.652 -0.1269 -0.0930  0.0439
  935loPI   C2A14284   5.528  12.760   6.046  0.1311  0.1141 -0.2578
  935loPI   C3A14285   5.465  12.818   6.442 -0.1573 -0.0979 -0.1064
  935loPI   C4A14286   5.443  12.822   6.883  0.2817  0.1979 -0.0634
  935loPI   C5A14287   5.413  13.048   7.286  0.2060  0.1753 -0.0099
  935loPI   C6A14288   5.206  13.270   7.634 -0.0908  0.1952 -0.1132
  935loPI   C1B14289   5.483  13.167   5.639  0.0080  0.1081 -0.1768
  935loPI   C2B14290   5.460  13.252   6.024 -0.1848 -0.2842 -0.1529
  935loPI   C3B14291   5.501  13.398   6.415  0.0014 -0.1919  0.1081
  935loPI   C4B14292   5.497  13.326   6.799 -0.0877  0.1718  0.1224
  936loPI    C114293   7.429   6.230   4.808  0.1063 -0.1838 -0.0513
  936loPI    C214294   7.337   6.429   4.474  0.0434  0.1515  0.1608
  936loPI    C314295   7.420   6.038   4.457 -0.2431  0.1000 -0.2039
  936loPI   PO414296   7.640   6.382   4.886  0.0164  0.0022  0.0177
  936loPI   GL114297   7.641   6.458   5.313 -0.1871  0.1050  0.0856
  936loPI   GL214298   7.867   6.405   5.402  0.2624 -0.0644  0.1134
  936loPI   C1A14299   7.593   6.067   5.681  0.2992  0.2027  0.1189
  936loPI   C2A14300   7.495   6.124   6.167  0.2386  0.3017  0.0818
  936loPI   C3A14301   7.528   6.222   6.515  0.1066  0.0834 -0.0521
  936loPI   C4A14302   7.886   6.242   6.767  0.0122  0.0129  0.0082
  936loPI   C5A14303   8.252   6.022   6.804 -0.1313  0.0328 -0.0234
  936loPI   C6A14304   8.561   5.880   7.071  0.1496 -0.0373 -0.0280
  936loPI   C1B14305   7.914   6.638   5.847 -0.3849  0.0119  0.0507
  936loPI   C2B14306   7.927   6.414   6.207 -0.1995  0.0886 -0.3782
  936loPI   C3B14307   8.319   6.211   6.344  0.0115 -0.1061 -0.3345
  936loPI   C4B14308   8.715   6.161   6.114 -0.0068 -0.3078 -0.0902
  937loPI    C114309  15.151   3.517   4.660  0.0017 -0.2341  0.1020
  937loPI    C214310  15.084   3.376   4.291 -0.0756 -0.1105  0.0682
  937loPI    C314311  15.450   3.502   4.395 -0.0861 -0.0135 -0.0118
  937loPI   PO414312  14.888   3.581   4.760  0.3987 -0.1913 -0.2744
  937loPI   GL114313  14.825   3.595   5.170  0.1919  0.0283  0.1272
  937loPI   GL214314  14.702   3.349   5.475  0.2013 -0.1881 -0.0612
  937loPI   C1A14315  14.817   3.816   5.561  0.1123  0.2533 -0.1283
  937loPI   C2A14316  14.717   3.916   5.940 -0.0931  0.1322  0.0797
  937loPI   C3A14317  14.713   3.919   6.435 -0.3092  0.0021  0.1772
  937loPI   C4A14318  14.665   3.796   6.944  0.0769 -0.0651 -0.1733
  937loPI   C5A14319  14.798   4.085   7.312 -0.2858  0.0890 -0.0540
  937loPI   C6A14320  14.478   4.392   7.461  0.1970 -0.0112 -0.2279
  937loPI   C1B14321  14.509   3.470   5.837 -0.2018 -0.3422  0.0384
  937loPI   C2B14322  14.548   3.477   6.358  0.1651 -0.0702 -0.0312
  937loPI   C3B14323  14.643   3.202   6.835 -0.1267 -0.0541 -0.0843
  937loPI   C4B14324  14.759   2.826   6.979  0.0117  0.1616  0.2910
  938loPI    C114325  11.751   5.085   4.691  0.1772  0.1291 -0.0340
  938loPI    C214326  11.642   5.056   4.307  0.1736  0.1078 -0.0314
  938loPI    C314327  11.813   5.391   4.442  0.2194  0.0971 -0.0630
  938loPI   PO414328  11.918   4.874   4.782  0.1787 -0.0077  0.1746
  938loPI   GL114329  11.884   4.854   5.273 -0.0343 -0.2089  0.0412
  938loPI   GL214330  11.717   5.166   5.297  0.0844  0.1938  0.0957
  938loPI   C1A14331  11.892   4.778   5.603  0.1746  0.3601  0.2953
  938loPI   C2A14332  11.966   4.447   6.028  0.1444 -0.1493 -0.2200
  938loPI   C3A14333  12.049   4.182   6.299  0.0472  0.0777  0.0604
  938loPI   C4A14334  12.288   4.139   6.699  0.2485 -0.1144  0.0731
  938loPI   C5A14335  12.198   4.385   7.152  0.0330  0.0380  0.1581
  938loPI   C6A14336  11.796   4.253   7.375 -0.1730 -0.1282  0.0730
  938loPI   C1B14337  11.453   5.395   5.432 -0.2801 -0.3473 -0.0477
  938loPI   C2B14338  11.440   5.674   5.711 -0.1165 -0.2569 -0.0754
  938loPI   C3B14339  11.308   5.783   6.069 -0.0862  0.2519 -0.0938
  938loPI   C4B14340  11.337   6.042   6.430 -0.1669 -0.2160  0.3529
  939loPI    C114341  15.959   8.493   5.040  0.0487 -0.1931 -0.0319
  939loPI    C214342  15.615   8.347   4.898  0.1499 -0.4756  0.0076
  939loPI    C314343  15.962   8.176   4.796  0.2636 -0.3283  0.1428
  939loPI   PO414344  15.877   8.533   5.311  0.2312 -0.1510  0.1107
  939loPI   GL114345  15.920   8.421   5.698  0.2266  0.0724  0.0858
  939loPI   GL214346  16.078   8.676   5.797  0.0298  0.0347  0.2091
  939loPI   C1A14347  16.122   8.116   5.967 -0.1822 -0.5075 -0.2902
  939loPI   C2A14348  15.955   8.073   6.325  0.1194  0.3185 -0.3890
  939loPI   C3A14349  15.910   8.195   6.696 -0.3000  0.0848 -0.0856
  939loPI   C4A14350  15.805   8.451   6.914 -0.0208  0.1993  0.1517
  939loPI   C5A14351  15.783   8.483   7.418 -0.0541  0.1023 -0.1655
  939loPI   C6A14352  15.740   8.365   7.782 -0.1361 -0.0092 -0.2496
  939loPI   C1B14353  16.284   8.649   6.201 -0.0434 -0.0403  0.4160
  939loPI   C2B14354  16.401   8.748   6.591  0.0747  0.2649  0.1214
  939loPI   C3B14355  16.406   8.743   7.006  0.0006  0.0802  0.3093
  939loPI   C4B14356  16.417   8.733   7.389 -0.2572  0.2065  0.2063
  940loPI    C114357   3.088   4.514   4.426  0.0922  0.0205  0.1035
  940loPI    C214358   3.160   4.121   4.446  0.3138  0.0535 -0.0210
  940loPI    C314359   3.407   4.360   4.241  0.0420  0.2224 -0.1575
  940loPI   PO414360   3.037   4.534   4.734 -0.0324  0.2665 -0.0924
  940loPI   GL114361   3.020   4.406   5.214 -0.2816  0.2638  0.1801
  940loPI   GL214362   2.977   4.703   5.542  0.1592  0.0106  0.1175
  940loPI   C1A14363   3.318   4.344   5.550 -0.0179 -0.1017  0.2995
  940loPI   C2A14364   3.609   4.366   5.994  0.1578 -0.0128  0.0983
  940loPI   C3A14365   3.688   4.179   6.337  0.0078  0.1715  0.0785
  940loPI   C4A14366   3.557   3.904   6.604  0.1486 -0.1223  0.0494
  940loPI   C5A14367   3.390   3.695   6.989  0.2349 -0.1147  0.0273
  940loPI   C6A14368   3.270   3.476   7.391  0.3062 -0.1305 -0.0738
  940loPI   C1B14369   3.182   4.662   5.893  0.0290 -0.0580 -0.3069
  940loPI   C2B14370   3.264   4.597   6.354 -0.2446 -0.1381  0.1502
  940loPI   C3B14371   2.997   4.826   6.762  0.0395 -0.0116 -0.2134
  940loPI   C4B14372   3.055   4.889   7.164  0.2519 -0.0154 -0.2161
  941loPI    C114373  14.462  16.538   4.588 -0.0113  0.1102  0.1309
  941loPI    C214374  14.120  16.676   4.433 -0.0501 -0.0932  0.0314
  941loPI    C314375  14.433  16.604   4.194 -0.0590 -0.2593  0.0687
  941loPI   PO414376  14.537  16.621   4.858  0.0111  0.1686  0.0833
  941loPI   GL114377  14.406  16.665   5.291  0.0477 -0.0842 -0.2929
  941loPI   GL214378  14.609  16.354   5.357 -0.0097  0.2585  0.0520
  941loPI   C1A14379  14.500  16.698   5.801  0.0377 -0.3650  0.0854
  941loPI   C2A14380  14.566  16.476   6.173 -0.1380 -0.1470 -0.1524
  941loPI   C3A14381  14.842  16.363   6.613  0.0265  0.1197  0.0243
  941loPI   C4A14382  15.249  16.354   6.879 -0.1488 -0.1811  0.0188
  941loPI   C5A14383  15.656  16.619   6.982 -0.2651 -0.0205 -0.2356
  941loPI   C6A14384  15.995  16.733   7.265 -0.0598  0.0968  0.0530
  941loPI   C1B14385  14.843  16.351   5.779 -0.0954 -0.1597 -0.4680
  941loPI   C2B14386  15.115  16.328   6.158 -0.1828 -0.0928 -0.0005
  941loPI   C3B14387  15.183  16.651   6.414  0.0897  0.0126  0.1137
  941loPI   C4B14388  15.026  16.999   6.615  0.2617 -0.1329  0.0739
  942loPI    C114389  17.808   7.990   5.087  0.0714  0.2233 -0.0843
  942loPI    C214390  18.068   7.902   4.796 -0.1012  0.0081 -0.1769
  942loPI    C314391  17.715   8.066   4.705 -0.1523 -0.0516 -0.0883
  942loPI   PO414392  18.045   8.033   5.297  0.1342  0.2276  0.0822
  942loPI   GL114393  18.079   8.364   5.705 -0.1958 -0.2244 -0.3723
  942loPI   GL214394  18.016   8.638   5.808 -0.2450  0.0715 -0.0171
  942loPI   C1A14395  17.658   8.153   5.964 -0.0864  0.1112 -0.1312
  942loPI   C2A14396  17.166   8.264   6.012  0.0497 -0.4165 -0.0454
  942loPI   C3A14397  17.023   8.376   6.436  0.3391  0.1784  0.0264
  942loPI   C4A14398  16.805   8.378   6.807  0.0881  0.3195 -0.1687
  942loPI   C5A14399  16.698   8.328   7.282 -0.2867  0.1865  0.0005
  942loPI   C6A14400  16.645   8.105   7.669 -0.0773  0.3209  0.1229
  942loPI   C1B14401  18.026   8.618   6.204  0.2879  0.1386  0.1384
  942loPI   C2B14402  18.274   8.779   6.622 -0.1944  0.1584  0.0277
  942loPI   C3B14403  18.222   8.896   7.058 -0.0024 -0.0813  0.1227
  942loPI   C4B14404  18.441   9.203   7.389  0.1561  0.1408  0.1653
  943loPI    C114405   7.832  17.219   4.567  0.0874  0.1766 -0.0294
  943loPI    C214406   7.823  17.618   4.559  0.2125  0.1858  0.1876
  943loPI    C314407   8.168  17.428   4.626  0.1686  0.0383  0.0047
  943loPI   PO414408   7.584  17.226   4.806  0.0141  0.0572  0.3259
  943loPI   GL114409   7.478  16.901   5.087  0.0128 -0.1567  0.2208
  943loPI   GL214410   7.543  17.187   5.278 -0.0285 -0.4411  0.0318
  943loPI   C1A14411   7.221  16.850   5.367  0.2333 -0.1444 -0.1253
  943loPI   C2A14412   7.237  16.969   5.763  0.2028 -0.0622  0.3012
  943loPI   C3A14413   7.009  16.930   6.148  0.1981  0.3668 -0.0873
  943loPI   C4A14414   6.959  17.012   6.629  0.0821 -0.0180 -0.0001
  943loPI   C5A14415   6.816  17.200   7.077 -0.1281 -0.2864  0.0072
  943loPI   C6A14416   6.672  17.100   7.451 -0.0660  0.1628  0.1708
  943loPI   C1B14417   7.641  17.393   5.622 -0.2161  0.2202 -0.2273
  943loPI   C2B14418   7.403  17.707   5.826  0.0930  0.3432  0.2798
  943loPI   C3B14419   7.420  17.793   6.279 -0.1071 -0.1638 -0.0199
  943loPI   C4B14420   7.514  17.749   6.661  0.0869 -0.0245 -0.0358
  944loPI    C114421  13.231   2.778   4.732  0.1608 -0.2900  0.1915
  944loPI    C214422  13.144   2.388   4.735 -0.2470 -0.2090 -0.1165
  944loPI    C314423  13.171   2.584   4.388  0.0301  0.0244  0.0323
  944loPI   PO414424  13.208   2.795   5.072 -0.1129 -0.0641  0.0017
  944loPI   GL114425  13.207   3.036   5.389  0.0697  0.0210 -0.3326
  944loPI   GL214426  13.482   3.098   5.345  0.1223 -0.2153  0.0240
  944loPI   C1A14427  13.291   2.978   5.842 -0.0029 -0.1895 -0.0549
  944loPI   C2A14428  13.307   2.972   6.262 -0.0364 -0.2750  0.0383
  944loPI   C3A14429  13.095   3.092   6.712 -0.0646  0.1932 -0.0499
  944loPI   C4A14430  13.178   3.263   7.134 -0.3046 -0.1047  0.0116
  944loPI   C5A14431  13.432   3.269   7.558  0.0877  0.4218 -0.2773
  944loPI   C6A14432  13.307   3.014   7.993 -0.1277  0.3347 -0.2834
  944loPI   C1B14433  13.861   3.000   5.531  0.0423  0.1152 -0.1666
  944loPI   C2B14434  13.837   2.836   5.969  0.0072  0.1796 -0.0253
  944loPI   C3B14435  13.794   2.725   6.403 -0.0890  0.2144  0.1368
  944loPI   C4B14436  13.788   2.549   6.816 -0.2436  0.0197  0.0327
  945loPI    C114437   7.980   5.530   4.642  0.1356 -0.1409 -0.0288
  945loPI    C214438   8.043   5.159   4.506 -0.1563 -0.1203 -0.2302
  945loPI    C314439   8.316   5.445   4.442 -0.0258 -0.2498 -0.2578
  945loPI   PO414440   7.921   5.496   4.905 -0.1245 -0.1198 -0.0524
  945loPI   GL114441   7.635   5.414   5.244  0.1367  0.2086  0.0952
  945loPI   GL214442   7.669   5.536   5.517 -0.2733 -0.1765 -0.2388
  945loPI   C1A14443   7.709   4.996   5.377  0.1166 -0.1403 -0.0685
  945loPI   C2A14444   7.804   4.831   5.709  0.1212 -0.4710  0.4299
  945loPI   C3A14445   7.507   4.596   6.040  0.0569  0.1605  0.1601
  945loPI   C4A14446   7.464   4.533   6.504 -0.0763 -0.0117 -0.0384
  945loPI   C5A14447   7.395   4.448   7.012  0.0486 -0.0962  0.2010
  945loPI   C6A14448   7.393   4.422   7.444 -0.1363  0.1905  0.0984
  945loPI   C1B14449   7.473   5.622   5.973  0.0622  0.1041  0.0758
  945loPI   C2B14450   7.446   5.549   6.402  0.1108 -0.0647 -0.1308
  945loPI   C3B14451   7.671   5.288   6.659 -0.1921  0.0143  0.1623
  945loPI   C4B14452   7.619   5.236   7.064 -0.0408 -0.1234 -0.2545
  946loPI    C114453  17.660  13.186   4.524 -0.3168  0.0433 -0.2365
  946loPI    C214454  17.306  13.028   4.621 -0.1661  0.0101  0.2937
  946loPI    C314455  17.397  13.400   4.736 -0.0796  0.0712  0.0355
  946loPI   PO414456  17.803  13.088   4.718 -0.1810 -0.3680 -0.2617
  946loPI   GL114457  17.829  13.198   5.219 -0.0145 -0.2455  0.1213
  946loPI   GL214458  17.606  13.362   5.185  0.2841  0.0985 -0.2262
  946loPI   C1A14459  18.141  13.191   5.538  0.1451 -0.3075  0.2598
  946loPI   C2A14460  18.364  13.237   5.839 -0.1151  0.0318 -0.2650
  946loPI   C3A14461  18.577  13.254   6.266 -0.1902  0.0912  0.0154
  946loPI   C4A14462  18.810  13.227   6.632 -0.1621 -0.2028 -0.1420
  946loPI   C5A14463  18.779  13.285   6.964  0.3369  0.1601 -0.0640
  946loPI   C6A14464  18.761  13.029   7.382 -0.1634  0.2082  0.0469
  946loPI   C1B14465  17.507  13.378   5.610 -0.1402 -0.2488  0.3273
  946loPI   C2B14466  17.306  13.485   6.017 -0.1429  0.1598 -0.4312
  946loPI   C3B14467  17.202  13.620   6.495 -0.0176  0.0613 -0.0126
  946loPI   C4B14468  17.380  13.401   6.725  0.1401 -0.0911  0.1926
  947loPI    C114469   4.742  13.990   4.812 -0.1905 -0.0935  0.1191
  947loPI    C214470   4.973  14.316   4.823 -0.1273 -0.1452  0.3882
  947loPI    C314471   4.992  14.068   4.510  0.0824 -0.0770  0.3455
  947loPI   PO414472   4.804  13.748   4.991 -0.0525 -0.3694 -0.0637
  947loPI   GL114473   4.941  13.758   5.423 -0.3084  0.0854  0.0155
  947loPI   GL214474   5.151  13.500   5.300 -0.1376 -0.0527  0.0180
  947loPI   C1A14475   4.720  13.677   5.799  0.1429 -0.2154 -0.0596
  947loPI   C2A14476   4.632  13.788   6.149 -0.0818  0.0283 -0.2303
  947loPI   C3A14477   4.539  14.052   6.423  0.3527  0.0581  0.0680
  947loPI   C4A14478   4.195  14.233   6.521  0.1050  0.0731 -0.3825
  947loPI   C5A14479   3.958  14.513   6.788 -0.3117  0.1159 -0.0426
  947loPI   C6A14480   3.967  15.047   6.653 -0.1272 -0.0849 -0.0145
  947loPI   C1B14481   5.129  13.436   5.746  0.1286  0.2329  0.0183
  947loPI   C2B14482   5.050  13.527   6.153 -0.1609  0.1835  0.0467
  947loPI   C3B14483   5.056  13.551   6.619 -0.2810  0.3233 -0.0186
  947loPI   C4B14484   5.076  13.421   7.113  0.1566 -0.1815  0.0739
  948loPI    C114485   5.619   9.605   5.018  0.3570 -0.0408 -0.0225
  948loPI    C214486   5.576   9.761   4.652  0.2845  0.0836  0.0385
  948loPI    C314487   5.784   9.424   4.702  0.1286 -0.0418 -0.1439
  948loPI   PO414488   5.795   9.862   5.169  0.0008  0.3198 -0.0147
  948loPI   GL114489   5.828   9.917   5.469  0.1929 -0.0733  0.0678
  948loPI   GL214490   5.784   9.642   5.683 -0.1490 -0.1303 -0.1186
  948loPI   C1A14491   5.887  10.081   5.838  0.2316 -0.1289  0.1975
  948loPI   C2A14492   5.795  10.170   6.140 -0.1737 -0.1162  0.1528
  948loPI   C3A14493   5.864  10.456   6.266 -0.0201 -0.2778 -0.0986
  948loPI   C4A14494   5.870  10.703   6.636 -0.1449  0.0671  0.0143
  948loPI   C5A14495   5.936  10.617   7.070  0.0007 -0.3629  0.0298
  948loPI   C6A14496   5.907  10.486   7.509  0.0273  0.2781  0.1085
  948loPI   C1B14497   6.042   9.639   6.074 -0.4540 -0.4223  0.0458
  948loPI   C2B14498   5.959   9.696   6.454  0.3111  0.4015  0.0412
  948loPI   C3B14499   5.882   9.765   6.864 -0.0038 -0.1407 -0.0350
  948loPI   C4B14500   6.013  10.025   7.247  0.0194 -0.2115  0.2296
  949loPI    C114501   8.050  10.393   5.025  0.0801 -0.0636  0.1955
  949loPI    C214502   8.365  10.433   4.782 -0.0632 -0.0560  0.0089
  949loPI    C314503   8.096  10.727   4.811 -0.2259 -0.1939 -0.0819
  949loPI   PO414504   8.205  10.273   5.279  0.0548  0.1588 -0.1141
  949loPI   GL114505   8.459  10.289   5.647 -0.1790  0.0675  0.2321
  949loPI   GL214506   8.367  10.586   5.673 -0.1794 -0.1097 -0.5667
  949loPI   C1A14507   8.452  10.245   6.137  0.1202 -0.0496 -0.0553
  949loPI   C2A14508   8.418  10.325   6.537 -0.0715  0.0033  0.0562
  949loPI   C3A14509   8.558  10.533   6.911 -0.4518  0.3133  0.1432
  949loPI   C4A14510   8.614  10.902   7.169 -0.1151 -0.4688 -0.3747
  949loPI   C5A14511   8.379  11.025   7.426 -0.0756  0.0207 -0.0724
  949loPI   C6A14512   8.038  10.887   7.576  0.2330  0.2701 -0.0671
  949loPI   C1B14513   8.459  10.856   6.044  0.2329  0.0007 -0.1614
  949loPI   C2B14514   8.508  10.857   6.475  0.1202 -0.0655 -0.1527
  949loPI   C3B14515   8.328  11.204   6.751 -0.0711 -0.0302  0.1428
  949loPI   C4B14516   8.148  11.348   7.107 -0.0332 -0.0968  0.2103
  950loPI    C114517  17.166  14.624   5.175  0.3101  0.0131 -0.2274
  950loPI    C214518  17.287  14.766   5.529  0.0599 -0.2584 -0.0274
  950loPI    C314519  17.511  14.824   5.202  0.3511 -0.1058  0.1947
  950loPI   PO414520  16.890  14.689   5.244  0.0894 -0.0264 -0.0874
  950loPI   GL114521  16.791  14.853   5.569 -0.2663  0.0435 -0.2218
  950loPI   GL214522  16.400  14.866   5.532 -0.0815 -0.0364 -0.0708
  950loPI   C1A14523  16.979  15.061   5.877 -0.3625  0.0040 -0.4094
  950loPI   C2A14524  17.055  15.350   6.242  0.3891  0.3391  0.2912
  950loPI   C3A14525  17.192  15.463   6.746  0.0070  0.2998  0.1593
  950loPI   C4A14526  17.305  15.609   7.129 -0.0479 -0.2801 -0.3350
  950loPI   C5A14527  17.254  15.797   7.487  0.1989  0.3645  0.2882
  950loPI   C6A14528  17.669  15.997   7.588  0.1633  0.1992 -0.1949
  950loPI   C1B14529  16.358  14.753   5.993 -0.0110 -0.0370  0.2160
  950loPI   C2B14530  16.370  14.893   6.410  0.3558  0.0370 -0.0840
  950loPI   C3B14531  16.617  14.954   6.691  0.1367  0.1111  0.0113
  950loPI   C4B14532  16.669  14.889   7.122 -0.1431  0.0790 -0.1331
  951loPI    C114533   1.475  12.680   5.000  0.2076  0.1390 -0.0819
  951loPI    C214534   1.118  12.860   4.981  0.1402  0.0301  0.1192
  951loPI    C314535   1.280  12.701   4.652  0.1147  0.2902 -0.0220
  951loPI   PO414536   1.440  12.500   5.182  0.1901 -0.0820  0.1394
  951loPI   GL114537   1.093  12.633   5.466 -0.0870  0.1039  0.1888
  951loPI   GL214538   1.058  12.416   5.651 -0.0892  0.1736  0.1102
  951loPI   C1A14539   1.280  12.768   5.901 -0.2640  0.0113 -0.1151
  951loPI   C2A14540   1.677  12.637   6.143 -0.0902  0.2336 -0.0925
  951loPI   C3A14541   1.998  12.759   6.359 -0.0129 -0.2566  0.0160
  951loPI   C4A14542   2.340  12.628   6.549  0.1937 -0.3483  0.0330
  951loPI   C5A14543   2.539  12.527   7.002  0.0715  0.0773  0.1898
  951loPI   C6A14544   2.352  12.472   7.365  0.4122 -0.1204  0.3422
  951loPI   C1B14545   1.110  12.308   6.085 -0.2130 -0.0656  0.1094
  951loPI   C2B14546   1.136  12.151   6.442 -0.2332  0.1181  0.0720
  951loPI   C3B14547   1.177  12.269   6.918 -0.0392  0.2277 -0.1291
  951loPI   C4B14548   1.502  12.591   7.105 -0.2344 -0.1440 -0.2593
  952loPI    C114549   3.953   4.651   4.858  0.0377 -0.4232 -0.2256
  952loPI    C214550   4.293   4.640   4.648  0.2656  0.1813  0.0870
  952loPI    C314551   3.978   4.843   4.508  0.1734 -0.0178  0.0007
  952loPI   PO414552   4.090   4.759   5.114  0.1597  0.1670  0.3882
  952loPI   GL114553   3.856   4.777   5.348 -0.4074 -0.0642 -0.1810
  952loPI   GL214554   4.099   4.911   5.580  0.2191 -0.4506  0.0387
  952loPI   C1A14555   3.631   4.793   5.768 -0.0397 -0.1086 -0.0740
  952loPI   C2A14556   3.681   4.882   6.262 -0.3883  0.0144  0.4298
  952loPI   C3A14557   3.483   4.795   6.741 -0.3120 -0.5029  0.0134
  952loPI   C4A14558   3.536   4.802   7.204  0.0937 -0.0684  0.0225
  952loPI   C5A14559   3.367   5.150   7.407 -0.1781  0.1887 -0.1384
  952loPI   C6A14560   3.110   5.500   7.420 -0.1825 -0.1595 -0.1542
  952loPI   C1B14561   4.160   5.086   5.996 -0.0518  0.1958 -0.0239
  952loPI   C2B14562   4.100   5.135   6.510 -0.2830  0.5915 -0.1612
  952loPI   C3B14563   3.941   5.147   6.904  0.0392 -0.0556  0.0845
  952loPI   C4B14564   3.952   5.146   7.288 -0.0624  0.2876  0.1568
  953loPI    C114565   4.312   5.553   4.798  0.0060  0.0761 -0.0525
  953loPI    C214566   4.173   5.179   4.818 -0.1285  0.1362  0.1700
  953loPI    C314567   3.920   5.483   4.755 -0.0708  0.2246  0.3562
  953loPI   PO414568   4.444   5.576   5.052  0.1485 -0.1834  0.2258
  953loPI   GL114569   4.388   5.647   5.365  0.1643 -0.0364 -0.2449
  953loPI   GL214570   4.715   5.878   5.403 -0.2415 -0.2138 -0.0542
  953loPI   C1A14571   4.261   5.636   5.798  0.1096 -0.0943  0.0460
  953loPI   C2A14572   4.203   5.595   6.227  0.1854 -0.0861  0.0535
  953loPI   C3A14573   4.114   5.665   6.643  0.0592 -0.1980  0.0900
  953loPI   C4A14574   4.021   5.651   7.095 -0.0585 -0.1024  0.1361
  953loPI   C5A14575   4.115   5.615   7.469 -0.1593 -0.0033 -0.2093
  953loPI   C6A14576   4.415   5.864   7.572  0.0910 -0.1157  0.1190
  953loPI   C1B14577   4.693   5.810   5.829 -0.3593  0.1652 -0.2548
  953loPI   C2B14578   4.746   5.673   6.270  0.0182 -0.0146 -0.2588
  953loPI   C3B14579   4.689   5.795   6.617 -0.0023 -0.0353  0.0266
  953loPI   C4B14580   4.508   5.737   7.091 -0.0405  0.0380  0.0045
  954loPI    C114581   5.038   4.831   4.669 -0.0605 -0.0440 -0.0318
  954loPI    C214582   4.702   4.814   4.451  0.0465  0.0166 -0.2032
  954loPI    C314583   4.761   5.118   4.705 -0.0586 -0.0305 -0.1221
  954loPI   PO414584   5.036   4.585   4.863 -0.0382  0.1097  0.0231
  954loPI   GL114585   4.843   4.417   5.195 -0.4403 -0.2837 -0.1733
  954loPI   GL214586   5.070   4.264   5.433  0.3473  0.5746  0.3634
  954loPI   C1A14587   4.620   4.667   5.554 -0.0457  0.0951 -0.2380
  954loPI   C2A14588   4.520   4.736   5.983 -0.2149  0.0620 -0.3762
  954loPI   C3A14589   4.534   4.651   6.433 -0.1664 -0.0036 -0.5415
  954loPI   C4A14590   4.431   4.837   6.758 -0.2195  0.0622  0.0145
  954loPI   C5A14591   4.593   4.951   7.224  0.0483 -0.2957  0.0637
  954loPI   C6A14592   4.532   5.330   7.388 -0.1168  0.1352  0.0025
  954loPI   C1B14593   4.881   4.380   5.799 -0.0762  0.1310 -0.0504
  954loPI   C2B14594   4.757   4.271   6.225 -0.2607 -0.1503  0.1253
  954loPI   C3B14595   4.820   4.174   6.645  0.2319 -0.0647  0.2549
  954loPI   C4B14596   4.715   4.003   7.009  0.1302  0.0037 -0.0633
  955loPI    C114597   1.984   6.809   5.047  0.1202 -0.1242  0.1138
  955loPI    C214598   2.032   7.080   4.757 -0.1523  0.0650  0.2406
  955loPI    C314599   1.688   6.878   4.787  0.0140 -0.2305  0.2048
  955loPI   PO414600   2.139   6.900   5.269  0.1996 -0.0160  0.1652
  955loPI   GL114601   1.946   6.817   5.630 -0.3182  0.2426 -0.0599
  955loPI   GL214602   1.700   6.830   5.479  0.0886 -0.0807 -0.1976
  955loPI   C1A14603   2.249   6.436   5.825  0.0611  0.1340  0.0159
  955loPI   C2A14604   2.568   6.118   6.097 -0.0239  0.3866  0.2922
  955loPI   C3A14605   2.790   6.091   6.506  0.0333  0.0154 -0.3075
  955loPI   C4A14606   3.002   6.262   6.818  0.0306 -0.1979 -0.0521
  955loPI   C5A14607   2.623   6.283   7.014  0.1591  0.4636  0.0319
  955loPI   C6A14608   2.189   6.116   7.199 -0.2235  0.1858  0.0938
  955loPI   C1B14609   1.679   6.991   5.977  0.2415  0.1809 -0.1146
  955loPI   C2B14610   1.607   6.915   6.455 -0.2326  0.0731 -0.0644
  955loPI   C3B14611   1.600   6.736   6.891  0.3066  0.0040  0.1103
  955loPI   C4B14612   1.499   6.586   7.329  0.1105 -0.1009  0.1170
  956loPI    C114613  12.418   2.514   5.090 -0.1366  0.3071  0.2186
  956loPI    C214614  12.663   2.310   4.847 -0.2380  0.0290  0.3462
  956loPI    C314615  12.727   2.699   4.916  0.0084  0.0220  0.1671
  956loPI   PO414616  12.479   2.352   5.317  0.0792  0.0983  0.0186
  956loPI   GL114617  12.562   2.226   5.685  0.2369 -0.2708  0.0003
  956loPI   GL214618  12.326   1.973   5.525 -0.1309 -0.0913  0.1188
  956loPI   C1A14619  12.959   2.216   5.863  0.0111 -0.0105  0.2135
  956loPI   C2A14620  13.213   2.108   6.220  0.1522  0.0243 -0.1128
  956loPI   C3A14621  12.982   2.159   6.568  0.0133 -0.2738 -0.1317
  956loPI   C4A14622  12.820   2.206   6.964  0.0147 -0.1381  0.1066
  956loPI   C5A14623  12.587   2.175   7.295  0.0114  0.0842  0.1563
  956loPI   C6A14624  12.381   1.854   7.552 -0.0471  0.2162  0.2813
  956loPI   C1B14625  12.463   1.817   5.896  0.2254  0.1051 -0.2834
  956loPI   C2B14626  12.553   1.445   6.093  0.2952  0.0756 -0.0612
  956loPI   C3B14627  12.667   1.032   6.315 -0.4469 -0.2959 -0.1582
  956loPI   C4B14628  13.018   0.796   6.238  0.0291 -0.2100  0.1824
  957loPI    C114629   4.920  13.202   4.946  0.2341  0.1952  0.2036
  957loPI    C214630   4.975  13.165   4.551 -0.1615 -0.0281  0.1644
  957loPI    C314631   5.284  13.123   4.801  0.1028  0.1722 -0.1223
  957loPI   PO414632   4.749  13.006   5.060 -0.2241 -0.0241  0.0636
  957loPI   GL114633   4.798  12.809   5.444  0.2418  0.0548 -0.1922
  957loPI   GL214634   5.100  12.893   5.411 -0.1663  0.2191 -0.2544
  957loPI   C1A14635   4.610  12.753   5.856  0.0373  0.1196  0.0352
  957loPI   C2A14636   4.653  12.798   6.188  0.0822 -0.0939 -0.5322
  957loPI   C3A14637   4.475  12.407   6.403  0.0591 -0.2714  0.1910
  957loPI   C4A14638   4.243  12.144   6.795 -0.1706  0.1756  0.1827
  957loPI   C5A14639   4.195  12.079   7.172 -0.1958  0.6384  0.0616
  957loPI   C6A14640   4.206  11.946   7.558  0.1131  0.0953 -0.1480
  957loPI   C1B14641   5.072  12.924   5.900  0.3820 -0.0739  0.0505
  957loPI   C2B14642   5.074  13.024   6.282 -0.0960 -0.2065  0.2772
  957loPI   C3B14643   4.970  12.850   6.596  0.2634 -0.1771 -0.0322
  957loPI   C4B14644   4.570  12.767   6.715 -0.0868 -0.0757 -0.1844
  958loPI    C114645   1.569  10.474   4.941  0.1802 -0.0732 -0.0219
  958loPI    C214646   1.432  10.517   4.568  0.0363 -0.0222  0.0364
  958loPI    C314647   1.625  10.819   4.746 -0.0155  0.0021  0.0520
  958loPI   PO414648   1.785  10.283   5.002 -0.0124 -0.0808 -0.1976
  958loPI   GL114649   2.166  10.365   5.246  0.1689  0.3238 -0.0774
  958loPI   GL214650   1.910  10.175   5.488 -0.2454  0.4009 -0.1196
  958loPI   C1A14651   2.304  10.279   5.712 -0.2381 -0.0904  0.1576
  958loPI   C2A14652   2.528  10.169   5.995 -0.3189 -0.3443  0.0399
  958loPI   C3A14653   2.721   9.975   6.345  0.1320 -0.4414 -0.0204
  958loPI   C4A14654   2.672   9.657   6.755 -0.1726  0.0814 -0.2397
  958loPI   C5A14655   2.767   9.646   7.214  0.0332 -0.2164 -0.3881
  958loPI   C6A14656   2.646   9.607   7.682 -0.0425  0.0842  0.2486
  958loPI   C1B14657   1.638  10.190   5.866  0.0699  0.2148 -0.1518
  958loPI   C2B14658   1.476  10.126   6.310  0.3431 -0.0693  0.0455
  958loPI   C3B14659   1.763  10.033   6.694 -0.3908 -0.0905 -0.0050
  958loPI   C4B14660   2.201  10.126   6.737 -0.2175  0.4975 -0.4224
  959loPI    C114661   3.606   0.986   4.924  0.1995  0.0776  0.1560
  959loPI    C214662   3.868   0.696   4.839 -0.0705 -0.0331 -0.3356
  959loPI    C314663   3.877   1.040   4.635  0.0316  0.1778  0.0155
  959loPI   PO414664   3.576   0.985   5.183 -0.1000 -0.1685  0.4317
  959loPI   GL114665   3.467   1.046   5.565  0.3315  0.1033  0.3426
  959loPI   GL214666   3.277   0.751   5.611  0.1164 -0.2984 -0.2078
  959loPI   C1A14667   3.677   0.946   5.866 -0.1643 -0.0297 -0.0700
  959loPI   C2A14668   3.761   0.994   6.208  0.0998  0.1421 -0.0159
  959loPI   C3A14669   3.932   0.715   6.542  0.0732 -0.1645  0.1369
  959loPI   C4A14670   4.251   0.577   6.792  0.1652 -0.2529 -0.2615
  959loPI   C5A14671   4.202   0.328   7.119  0.1203 -0.1351  0.0466
  959loPI   C6A14672   4.450   0.114   7.354  0.0708  0.1136  0.0110
  959loPI   C1B14673   3.229   0.533   5.999 -0.1802 -0.2367 -0.1752
  959loPI   C2B14674   3.351   0.486   6.496 -0.2808 -0.5111  0.2583
  959loPI   C3B14675   3.503   0.410   6.956  0.0215  0.2193 -0.0741
  959loPI   C4B14676   3.510   0.461   7.369 -0.2566 -0.1507  0.3586
  960loPI    C114677   4.410  15.220   4.494 -0.0207 -0.1090  0.1792
  960loPI    C214678   4.720  15.000   4.372 -0.1077 -0.1109 -0.0432
  960loPI    C314679   4.612  15.324   4.165 -0.2274 -0.0859  0.0577
  960loPI   PO414680   4.528  15.193   4.781  0.0056 -0.3644 -0.4796
  960loPI   GL114681   4.373  15.131   5.224 -0.1347 -0.2351 -0.3937
  960loPI   GL214682   4.658  15.083   5.366  0.2459 -0.0587 -0.0742
  960loPI   C1A14683   4.282  15.014   5.635 -0.0295 -0.0132 -0.1134
  960loPI   C2A14684   4.435  14.795   6.011 -0.0422 -0.1192 -0.0675
  960loPI   C3A14685   4.430  14.849   6.488  0.0118 -0.1245  0.3210
  960loPI   C4A14686   4.447  14.872   6.937  0.1710 -0.2881  0.0756
  960loPI   C5A14687   4.620  14.952   7.345  0.0335  0.2665 -0.2333
  960loPI   C6A14688   4.616  15.063   7.826  0.3548 -0.1119  0.1233
  960loPI   C1B14689   4.821  15.067   5.781  0.0840  0.0874  0.2530
  960loPI   C2B14690   4.829  15.065   6.228 -0.0154  0.1381 -0.0370
  960loPI   C3B14691   4.822  15.140   6.626 -0.3098 -0.1275 -0.1360
  960loPI   C4B14692   4.750  15.233   7.004 -0.4424  0.0473  0.1224
  961loPI    C114693   4.728  12.313   5.146  0.0951  0.2030  0.0322
  961loPI    C214694   4.963  12.044   5.327  0.2835  0.2499 -0.1392
  961loPI    C314695   5.080  12.214   4.984  0.0732  0.3988 -0.1394
  961loPI   PO414696   4.455  12.188   5.129  0.1146 -0.3457 -0.3678
  961loPI   GL114697   4.145  12.268   5.463 -0.0685 -0.1101 -0.1854
  961loPI   GL214698   4.429  12.437   5.520  0.1135 -0.2223  0.1794
  961loPI   C1A14699   4.120  12.519   5.876  0.0166 -0.1378 -0.4261
  961loPI   C2A14700   4.070  12.599   6.212 -0.1112 -0.0869 -0.3389
  961loPI   C3A14701   4.030  12.706   6.671 -0.0333 -0.2552  0.0123
  961loPI   C4A14702   4.127  12.626   7.071 -0.0441  0.0024  0.2093
  961loPI   C5A14703   4.476  12.472   7.163  0.0064  0.1589 -0.2058
  961loPI   C6A14704   4.723  12.010   7.285 -0.1824 -0.2896  0.2974
  961loPI   C1B14705   4.522  12.165   5.858 -0.1211  0.4764  0.0491
  961loPI   C2B14706   4.488  11.722   5.989  0.1421 -0.1211  0.3276
  961loPI   C3B14707   4.687  11.412   6.193 -0.2307  0.2045  0.0480
  961loPI   C4B14708   4.546  11.320   6.645  0.1548 -0.1792 -0.2106
  962loPI    C114709  18.853   9.287   5.100  0.0796 -0.1053  0.1364
  962loPI    C214710  18.885   9.643   4.921  0.1467 -0.1402  0.0781
  962loPI    C314711  18.863   9.310   4.700 -0.3774 -0.1406  0.1173
  962loPI   PO414712  18.939   9.487   5.444  0.1472  0.1661 -0.0124
  962loPI   GL114713  18.638   9.510   5.802 -0.1758 -0.0843  0.0808
  962loPI   GL214714  18.977   9.728   5.858  0.2259  0.0465 -0.0621
  962loPI   C1A14715  18.617   9.452   6.279 -0.3233  0.1458  0.2163
  962loPI   C2A14716  18.706   9.661   6.513 -0.0668 -0.0858 -0.1618
  962loPI   C3A14717  18.780   9.886   6.919 -0.0481 -0.2411  0.2303
  962loPI   C4A14718  18.819  10.141   7.300 -0.4618 -0.1636 -0.1116
  962loPI   C5A14719  19.064  10.333   7.540  0.0332  0.0015 -0.2908
  962loPI   C6A14720  18.930  10.644   7.820  0.0593 -0.0003  0.0633
  962loPI   C1B14721  19.107   9.864   6.284  0.0595  0.1035 -0.3433
  962loPI   C2B14722  19.255   9.745   6.732 -0.0051  0.1419  0.0906
  962loPI   C3B14723  19.372   9.545   6.985  0.1665  0.2083  0.1002
  962loPI   C4B14724  19.266   9.407   7.329 -0.2377 -0.1978 -0.0860
  963loPI    C114725   1.336  17.173   4.630  0.2567  0.1146 -0.1116
  963loPI    C214726   1.228  16.790   4.585  0.3236  0.0861 -0.0321
  963loPI    C314727   1.260  17.027   4.265 -0.1278  0.1386 -0.0450
  963loPI   PO414728   1.141  17.362   4.848  0.1548 -0.0083 -0.1810
  963loPI   GL114729   0.974  17.640   5.061  0.1439  0.0566 -0.1775
  963loPI   GL214730   0.748  17.941   5.165 -0.2246 -0.0612  0.0179
  963loPI   C1A14731   0.898  17.592   5.538  0.3105  0.0458  0.1249
  963loPI   C2A14732   0.950  17.742   5.967 -0.3688  0.1884 -0.1579
  963loPI   C3A14733   0.887  17.658   6.395 -0.2148  0.0673  0.0041
  963loPI   C4A14734   1.005  17.942   6.756  0.3181 -0.0315 -0.0475
  963loPI   C5A14735   1.034  18.133   7.170 -0.2814  0.1527  0.2960
  963loPI   C6A14736   1.261  18.087   7.531  0.0638 -0.2901  0.2796
  963loPI   C1B14737   0.583  17.975   5.593 -0.1857  0.0524 -0.0263
  963loPI   C2B14738   0.434  18.106   5.948  0.2779 -0.0629  0.1049
  963loPI   C3B14739   0.678  18.107   6.382  0.3546  0.1837 -0.0437
  963loPI   C4B14740   0.722  18.464   6.774  0.2696  0.0602 -0.1412
  964loPI    C114741  18.690  17.677   4.830  0.0836 -0.1578 -0.0944
  964loPI    C214742  18.834  17.632   5.201 -0.0545  0.0006 -0.0203
  964loPI    C314743  18.805  17.316   4.958  0.1534 -0.0819  0.0604
  964loPI   PO414744  18.542  17.870   4.825 -0.2314  0.1498  0.1191
  964loPI   GL114745  18.334  18.086   5.103 -0.0177 -0.1038 -0.3764
  964loPI   GL214746  18.204  18.369   5.308  0.3356 -0.0985  0.1195
  964loPI   C1A14747  18.529  17.974   5.449  0.2779  0.1746 -0.5132
  964loPI   C2A14748  18.579  17.956   5.840  0.0304  0.3288 -0.3029
  964loPI   C3A14749  18.642  17.976   6.245  0.0281 -0.1265  0.1260
  964loPI   C4A14750  18.617  18.103   6.658 -0.0783  0.0338  0.2751
  964loPI   C5A14751  18.602  17.917   6.982 -0.1025  0.0136 -0.1635
  964loPI   C6A14752  18.768  17.892   7.516  0.0179  0.0447  0.0792
  964loPI   C1B14753  18.425  18.474   5.674 -0.0174  0.2151 -0.1409
  964loPI   C2B14754  18.542  18.505   6.095 -0.2825 -0.3967  0.0338
  964loPI   C3B14755  18.575  18.591   6.652 -0.1870 -0.0543 -0.1760
  964loPI   C4B14756  18.638  18.401   7.157 -0.2902  0.2643  0.0444
  965loPI    C114757   9.243  12.433   4.934 -0.0253 -0.0038  0.0792
  965loPI    C214758   9.000  12.491   4.621 -0.0710  0.2469  0.1584
  965loPI    C314759   9.395  12.540   4.580 -0.0510  0.0307  0.0786
  965loPI   PO414760   9.084  12.462   5.148 -0.2452  0.0006  0.0777
  965loPI   GL114761   9.004  12.270   5.474  0.2719  0.0316 -0.1785
  965loPI   GL214762   8.654  12.297   5.464 -0.1838  0.2026  0.1484
  965loPI   C1A14763   9.216  12.264   5.876  0.0890 -0.2512  0.0041
  965loPI   C2A14764   9.211  12.408   6.243 -0.0932 -0.1041 -0.3641
  965loPI   C3A14765   9.347  12.309   6.761 -0.0482 -0.0115  0.0841
  965loPI   C4A14766   9.238  12.218   7.090  0.4305  0.0235  0.0235
  965loPI   C5A14767   8.934  12.496   7.332  0.2400 -0.0465  0.1064
  965loPI   C6A14768   8.571  12.783   7.494 -0.2682  0.1539  0.1768
  965loPI   C1B14769   8.735  12.136   5.901 -0.0090  0.2855  0.2439
  965loPI   C2B14770   8.733  12.184   6.298 -0.2091  0.0294 -0.1319
  965loPI   C3B14771   8.856  12.081   6.697 -0.0256 -0.0678 -0.2776
  965loPI   C4B14772   8.843  11.849   7.011 -0.1121 -0.1631 -0.0666
  966loPI    C114773   2.218  15.926   5.002  0.0725  0.0838 -0.0579
  966loPI    C214774   1.983  15.987   4.683  0.0844 -0.0885 -0.1007
  966loPI    C314775   2.313  15.764   4.649  0.2060  0.0766 -0.0189
  966loPI   PO414776   2.409  16.168   5.197  0.0381  0.0672 -0.1744
  966loPI   GL114777   2.180  16.329   5.587 -0.1215 -0.1547  0.0742
  966loPI   GL214778   2.037  16.008   5.454 -0.2703  0.1783  0.3287
  966loPI   C1A14779   2.301  16.143   5.884  0.1416  0.0222 -0.1293
  966loPI   C2A14780   2.287  15.960   6.353  0.1495 -0.2373  0.1036
  966loPI   C3A14781   2.126  15.794   6.710 -0.1511  0.0972  0.2905
  966loPI   C4A14782   1.981  15.958   7.058 -0.0230  0.3255 -0.0286
  966loPI   C5A14783   1.984  16.167   7.501  0.1644  0.1700  0.0882
  966loPI   C6A14784   2.083  16.117   8.033 -0.0750  0.6356  0.1436
  966loPI   C1B14785   1.870  16.057   5.922 -0.0048  0.1196  0.1648
  966loPI   C2B14786   1.953  16.325   6.241  0.1647 -0.1279 -0.4098
  966loPI   C3B14787   1.920  16.292   6.713 -0.0387 -0.0586  0.0811
  966loPI   C4B14788   2.188  16.409   7.140  0.0691 -0.1258  0.1695
  967loPI    C114789   5.416  11.862   4.816  0.1229  0.1974 -0.0292
  967loPI    C214790   5.054  11.692   4.843  0.2885 -0.1757 -0.0874
  967loPI    C314791   5.116  11.992   4.585 -0.0681  0.1414  0.1834
  967loPI   PO414792   5.459  11.900   5.106 -0.1142 -0.2775 -0.0042
  967loPI   GL114793   5.517  11.980   5.432  0.5391 -0.2079  0.1053
  967loPI   GL214794   5.734  12.200   5.428 -0.2794 -0.1592 -0.3156
  967loPI   C1A14795   5.499  11.770   5.827  0.0663  0.0416 -0.1115
  967loPI   C2A14796   5.367  11.434   6.068  0.0075  0.0806 -0.1049
  967loPI   C3A14797   5.245  11.265   6.423  0.0048  0.0400 -0.3585
  967loPI   C4A14798   5.119  11.097   6.785  0.1042  0.0810  0.3088
  967loPI   C5A14799   5.245  11.185   7.280  0.1512  0.0571 -0.2708
  967loPI   C6A14800   5.546  11.430   7.325 -0.1733 -0.2331  0.1314
  967loPI   C1B14801   5.584  12.257   5.866 -0.0667 -0.1777 -0.0819
  967loPI   C2B14802   5.466  12.332   6.330 -0.1365  0.4959  0.2612
  967loPI   C3B14803   5.380  12.334   6.751  0.0482 -0.1547  0.1357
  967loPI   C4B14804   5.343  11.961   7.013 -0.4097 -0.3607 -0.1188
  968loPI    C114805  17.228  11.563   4.850  0.0379 -0.0737 -0.0584
  968loPI    C214806  17.599  11.647   4.974  0.0707 -0.0967 -0.1404
  968loPI    C314807  17.524  11.299   4.793 -0.0273 -0.1673  0.0340
  968loPI   PO414808  17.104  11.714   5.116 -0.0069 -0.0678 -0.1971
  968loPI   GL114809  16.948  11.732   5.469 -0.1049 -0.1887 -0.1393
  968loPI   GL214810  16.686  11.937   5.383 -0.3075 -0.1954 -0.2738
  968loPI   C1A14811  17.010  11.642   5.884 -0.1241  0.0054 -0.0028
  968loPI   C2A14812  16.953  11.803   6.180  0.0432 -0.1164 -0.1112
  968loPI   C3A14813  16.827  11.977   6.611  0.1443 -0.1682  0.1571
  968loPI   C4A14814  16.690  12.167   7.065  0.0287  0.3759  0.0006
  968loPI   C5A14815  16.499  12.148   7.466  0.0348 -0.0802 -0.0193
  968loPI   C6A14816  16.332  12.103   7.898 -0.2701 -0.1451 -0.0896
  968loPI   C1B14817  16.756  12.105   5.769  0.0276 -0.1077 -0.0921
  968loPI   C2B14818  16.900  12.270   6.120 -0.0108 -0.2052 -0.5287
  968loPI   C3B14819  17.069  12.651   6.338 -0.1591 -0.1862 -0.0180
  968loPI   C4B14820  17.315  12.841   6.748 -0.2507  0.0408  0.1541
  969loPI    C114821   6.130   5.219   4.829 -0.2742  0.4382  0.1263
  969loPI    C214822   6.044   5.327   4.454 -0.1775  0.0665 -0.0074
  969loPI    C314823   5.770   5.136   4.675 -0.0340 -0.2535 -0.1003
  969loPI   PO414824   6.260   5.463   4.945  0.0340 -0.0880 -0.1646
  969loPI   GL114825   6.367   5.563   5.304  0.0080  0.3713 -0.3042
  969loPI   GL214826   6.635   5.624   5.379 -0.0677  0.0027  0.0363
  969loPI   C1A14827   6.331   5.444   5.750  0.0078 -0.0690 -0.2194
  969loPI   C2A14828   6.526   5.520   6.198  0.1038  0.1388 -0.0515
  969loPI   C3A14829   6.870   5.515   6.605  0.2982  0.0095  0.2285
  969loPI   C4A14830   7.140   5.503   6.858  0.1406 -0.1991  0.3040
  969loPI   C5A14831   7.366   5.608   7.273 -0.2276 -0.0512  0.2461
  969loPI   C6A14832   7.478   5.951   7.516 -0.1349  0.0273 -0.2609
  969loPI   C1B14833   6.813   5.310   5.616  0.2555  0.0771 -0.2023
  969loPI   C2B14834   6.572   5.050   6.054  0.1266  0.0653 -0.1083
  969loPI   C3B14835   6.317   5.100   6.406  0.0720  0.0309 -0.1167
  969loPI   C4B14836   6.373   5.412   6.638  0.0584 -0.0343 -0.1374
  970loPI    C114837   2.296  17.157   4.775  0.0388  0.2502  0.0375
  970loPI    C214838   2.413  17.338   4.438  0.2275  0.0544 -0.0045
  970loPI    C314839   2.354  16.942   4.442  0.4196  0.0261  0.2418
  970loPI   PO414840   2.524  17.382   4.977 -0.1566 -0.1027  0.5731
  970loPI   GL114841   2.516  17.535   5.334 -0.0885  0.4242 -0.0529
  970loPI   GL214842   2.559  17.897   5.171  0.1534 -0.2669  0.0389
  970loPI   C1A14843   2.354  17.648   5.673 -0.1556 -0.1945  0.4663
  970loPI   C2A14844   2.355  17.627   6.131 -0.1803 -0.0420  0.0536
  970loPI   C3A14845   2.303  17.413   6.532  0.4420 -0.1615  0.3614
  970loPI   C4A14846   2.203  17.345   7.011  0.0962 -0.1257  0.0010
  970loPI   C5A14847   1.943  17.251   7.371 -0.1773  0.0356 -0.1080
  970loPI   C6A14848   1.788  17.119   7.740 -0.0887 -0.1629  0.2591
  970loPI   C1B14849   2.661  18.068   5.534  0.2639  0.1512  0.1532
  970loPI   C2B14850   2.531  18.083   6.069 -0.1256  0.0488  0.0384
  970loPI   C3B14851   2.519  18.033   6.492  0.0126  0.1406  0.3174
  970loPI   C4B14852   2.517  17.725   6.840  0.1994  0.0335 -0.4511
  971loPI    C114853  18.091   2.667   4.627  0.0732  0.1760  0.0207
  971loPI    C214854  17.768   2.681   4.863  0.0143  0.2184 -0.0620
  971loPI    C314855  17.814   2.950   4.571  0.0147  0.0781 -0.1926
  971loPI   PO414856  18.336   2.675   4.770 -0.1194 -0.1043 -0.1624
  971loPI   GL114857  18.563   2.604   5.095  0.1263 -0.0262  0.1363
  971loPI   GL214858  18.874   2.639   5.204 -0.2125 -0.0219  0.0354
  971loPI   C1A14859  18.506   2.880   5.468  0.2035  0.0330 -0.3587
  971loPI   C2A14860  18.346   2.911   5.914 -0.2478 -0.1104 -0.3029
  971loPI   C3A14861  18.605   2.877   6.212  0.1457 -0.2069  0.0014
  971loPI   C4A14862  18.528   3.056   6.612  0.3507 -0.0614 -0.3822
  971loPI   C5A14863  18.457   3.259   6.912 -0.1102  0.1354  0.2339
  971loPI   C6A14864  18.192   3.406   7.273  0.0862  0.2279 -0.0480
  971loPI   C1B14865  19.001   2.694   5.714 -0.1356 -0.1408 -0.2564
  971loPI   C2B14866  19.089   2.899   6.112 -0.1062 -0.1011  0.1210
  971loPI   C3B14867  19.065   3.029   6.556 -0.1580 -0.0193  0.0113
  971loPI   C4B14868  19.031   2.875   6.933 -0.4501 -0.0362 -0.0348
  972loPI    C114869  18.826   7.334   5.238 -0.1020  0.1033  0.1901
  972loPI    C214870  18.461   7.247   5.099  0.0427  0.0144 -0.1431
  972loPI    C314871  18.776   7.028   4.986  0.2202  0.1712  0.0385
  972loPI   PO414872  18.740   7.373   5.507 -0.1426 -0.0889 -0.1405
  972loPI   GL114873  18.909   7.476   5.816 -0.2388 -0.1613 -0.0687
  972loPI   GL214874  19.215   7.282   5.920 -0.2344 -0.1504  0.1753
  972loPI   C1A14875  18.868   7.411   6.277  0.1073  0.0783 -0.3061
  972loPI   C2A14876  18.849   7.417   6.781  0.1638  0.0988 -0.0996
  972loPI   C3A14877  19.054   7.353   7.171 -0.2385  0.0675 -0.0991
  972loPI   C4A14878  19.265   7.033   7.343 -0.0613 -0.0878 -0.2272
  972loPI   C5A14879  19.609   7.006   7.576  0.0398  0.1519 -0.1224
  972loPI   C6A14880  19.978   7.120   7.546 -0.2094 -0.0390  0.1859
  972loPI   C1B14881  19.269   7.002   6.285 -0.3462  0.1006 -0.1633
  972loPI   C2B14882  18.825   6.990   6.490 -0.1094 -0.1571 -0.2950
  972loPI   C3B14883  18.731   6.952   6.977 -0.1807 -0.1236 -0.1139
  972loPI   C4B14884  18.403   6.704   7.229 -0.1497 -0.2842  0.1214
  973loPI    C114885  10.785  17.390   4.444  0.1577 -0.0334  0.1173
  973loPI    C214886  10.860  17.012   4.550  0.1437 -0.0732 -0.0144
  973loPI    C314887  10.832  17.110   4.163  0.0185  0.0374  0.0220
  973loPI   PO414888  11.062  17.444   4.730  0.5531 -0.0088  0.0082
  973loPI   GL114889  11.226  17.435   5.105 -0.0658  0.1409 -0.2809
  973loPI   GL214890  11.312  17.192   5.277 -0.0662 -0.1843  0.1560
  973loPI   C1A14891  11.016  17.735   5.396  0.1675  0.0279  0.4398
  973loPI   C2A14892  10.965  17.818   5.657 -0.1271 -0.0023  0.2908
  973loPI   C3A14893  10.907  17.833   6.042  0.0669  0.0505 -0.1370
  973loPI   C4A14894  10.952  17.871   6.510 -0.0645 -0.0607  0.2800
  973loPI   C5A14895  11.018  17.944   6.904 -0.2381 -0.0578  0.0770
  973loPI   C6A14896  11.164  18.189   7.303  0.1534  0.0081 -0.1951
  973loPI   C1B14897  11.051  17.306   5.628 -0.1770  0.0917  0.1036
  973loPI   C2B14898  10.757  17.285   5.964  0.0244  0.2176  0.0941
  973loPI   C3B14899  10.517  17.493   6.163 -0.0933 -0.0122 -0.0812
  973loPI   C4B14900  10.425  17.681   6.538 -0.0659  0.0437 -0.1819
  974loPI    C114901   6.695  16.029   4.529  0.1299  0.2531  0.0826
  974loPI    C214902   7.054  16.010   4.353  0.0291  0.0165 -0.1040
  974loPI    C314903   6.728  16.086   4.134 -0.0453  0.1587  0.0534
  974loPI   PO414904   6.692  15.851   4.657  0.2153  0.3555 -0.3102
  974loPI   GL114905   6.684  15.761   5.056 -0.0278 -0.1771  0.0090
  974loPI   GL214906   6.455  15.975   5.061  0.1562  0.0645  0.1938
  974loPI   C1A14907   6.768  15.706   5.437  0.2089 -0.0846  0.2063
  974loPI   C2A14908   6.656  15.632   5.857  0.0593  0.0516  0.0583
  974loPI   C3A14909   6.588  15.690   6.241  0.0893 -0.0049  0.1544
  974loPI   C4A14910   6.522  15.640   6.666 -0.0661 -0.3068 -0.0218
  974loPI   C5A14911   6.669  15.779   7.117 -0.2663  0.0275 -0.2619
  974loPI   C6A14912   6.765  16.197   7.264 -0.0668  0.1389  0.5092
  974loPI   C1B14913   6.533  16.185   5.397  0.0660  0.0918 -0.0422
  974loPI   C2B14914   6.635  16.220   5.828 -0.0837  0.0951  0.1266
  974loPI   C3B14915   6.856  16.406   6.222  0.3225 -0.1095 -0.1149
  974loPI   C4B14916   6.848  16.537   6.642  0.4716  0.3126  0.3336
  975loPI    C114917   3.397  17.811   4.845 -0.0045 -0.0844  0.0916
  975loPI    C214918   3.529  18.012   4.525 -0.1718  0.0891  0.1292
  975loPI    C314919   3.159  17.860   4.527 -0.0535 -0.2057  0.1092
  975loPI   PO414920   3.629  17.700   4.928 -0.1576 -0.2592  0.3062
  975loPI   GL114921   3.636  17.539   5.319 -0.0700 -0.2608  0.0548
  975loPI   GL214922   3.325  17.620   5.336 -0.2969  0.3796 -0.1361
  975loPI   C1A14923   3.586  17.633   5.786  0.0906 -0.0552 -0.1668
  975loPI   C2A14924   3.330  17.804   6.097  0.1629 -0.3616 -0.1103
  975loPI   C3A14925   3.259  17.771   6.479 -0.3606  0.0273 -0.2505
  975loPI   C4A14926   3.328  17.847   6.903 -0.0082  0.1428  0.2742
  975loPI   C5A14927   3.170  18.115   7.293  0.2879 -0.3683 -0.0023
  975loPI   C6A14928   3.226  18.503   7.490 -0.1869 -0.0112  0.0195
  975loPI   C1B14929   2.937  17.589   5.567 -0.0408 -0.2762 -0.2085
  975loPI   C2B14930   2.810  17.700   5.940  0.0118 -0.2159  0.3461
  975loPI   C3B14931   2.814  17.576   6.436 -0.3734 -0.0207  0.2103
  975loPI   C4B14932   2.942  17.507   6.767 -0.1202 -0.0528 -0.0491
  976loPI    C114933  15.607  14.825   4.641  0.1287 -0.1117 -0.2041
  976loPI    C214934  15.606  14.681   4.267  0.0812 -0.2386 -0.1556
  976loPI    C314935  15.821  14.498   4.552  0.2048 -0.0783 -0.1445
  976loPI   PO414936  15.377  14.772   4.744  0.2149 -0.1048  0.1576
  976loPI   GL114937  15.272  14.809   5.176  0.0671 -0.5290  0.1196
  976loPI   GL214938  15.458  15.028   5.301  0.0177  0.2640  0.2998
  976loPI   C1A14939  15.009  14.564   5.337  0.1782 -0.0654 -0.4333
  976loPI   C2A14940  14.881  14.249   5.573  0.0016  0.2664  0.0823
  976loPI   C3A14941  14.883  13.859   5.880 -0.1390  0.0966 -0.1367
  976loPI   C4A14942  14.880  13.473   5.648 -0.3914 -0.4383 -0.0122
  976loPI   C5A14943  14.632  13.160   5.635  0.2539 -0.0800  0.0528
  976loPI   C6A14944  14.505  12.862   6.011 -0.2712 -0.2162  0.1054
  976loPI   C1B14945  15.538  15.108   5.690  0.3797  0.0987  0.3155
  976loPI   C2B14946  15.397  14.928   6.036  0.0513  0.0900  0.0121
  976loPI   C3B14947  15.470  14.848   6.418  0.0421 -0.1662  0.2012
  976loPI   C4B14948  15.373  14.771   6.885 -0.4888  0.3275 -0.0545
  977loPI    C114949  13.974  13.250   4.538 -0.0130  0.3343 -0.0385
  977loPI    C214950  13.900  12.880   4.407  0.0964  0.2156  0.2265
  977loPI    C314951  14.092  13.141   4.172 -0.3022  0.2243 -0.1014
  977loPI   PO414952  13.982  13.203   4.866 -0.2010  0.1192 -0.0758
  977loPI   GL114953  14.157  13.385   5.297 -0.0824  0.2483 -0.1791
  977loPI   GL214954  14.097  13.106   5.443 -0.2206 -0.0326  0.2180
  977loPI   C1A14955  13.911  13.602   5.629 -0.0651  0.1234 -0.4033
  977loPI   C2A14956  13.891  13.497   6.134 -0.0348  0.0217 -0.2687
  977loPI   C3A14957  13.695  13.333   6.497 -0.0395  0.0254 -0.0835
  977loPI   C4A14958  13.559  13.312   6.956  0.1999  0.1772 -0.2169
  977loPI   C5A14959  13.312  13.270   7.308  0.0311 -0.1654  0.0846
  977loPI   C6A14960  12.964  13.366   7.504 -0.1891  0.0783 -0.1181
  977loPI   C1B14961  14.063  13.082   5.875 -0.1968  0.1007  0.0117
  977loPI   C2B14962  14.171  13.076   6.304 -0.2566  0.1094  0.2562
  977loPI   C3B14963  14.132  13.278   6.850 -0.2417 -0.1125 -0.0332
  977loPI   C4B14964  14.121  13.669   6.993 -0.0162 -0.2304 -0.3750
  978loPI    C114965   0.466  10.573   5.095 -0.1317 -0.0968  0.1991
  978loPI    C214966   0.637  10.270   4.898 -0.2001  0.0520 -0.0944
  978loPI    C314967   0.465  10.569   4.695 -0.3019  0.1926  0.1937
  978loPI   PO414968   0.603  10.578   5.277  0.1798  0.0583  0.1912
  978loPI   GL114969   0.599  10.565   5.677  0.0460  0.1727 -0.3373
  978loPI   GL214970   0.384  10.743   5.697  0.2126 -0.2990 -0.1953
  978loPI   C1A14971   0.863  10.776   5.945 -0.1234  0.1732 -0.1386
  978loPI   C2A14972   1.091  10.910   6.177  0.0310  0.1934  0.3862
  978loPI   C3A14973   1.315  11.038   6.514 -0.1191 -0.5157  0.1746
  978loPI   C4A14974   1.176  11.274   6.864  0.0040 -0.0661 -0.0354
  978loPI   C5A14975   1.024  11.303   7.326 -0.3410 -0.0988 -0.2521
  978loPI   C6A14976   1.068  11.232   7.762  0.3174  0.0578  0.0793
  978loPI   C1B14977   0.255  10.672   6.119  0.2564  0.2512  0.3666
  978loPI   C2B14978   0.581  10.771   6.344 -0.2743 -0.0220 -0.0228
  978loPI   C3B14979   0.880  10.732   6.656  0.1739  0.3688 -0.2141
  978loPI   C4B14980   0.918  10.899   7.058 -0.2119 -0.0289 -0.2426
  979loPI    C114981   1.375   9.812   4.930 -0.0561 -0.0040  0.0616
  979loPI    C214982   1.169  10.154   4.920 -0.0365  0.0042 -0.0891
  979loPI    C314983   1.061   9.848   4.686  0.1404  0.0195 -0.1929
  979loPI   PO414984   1.380   9.797   5.256 -0.0042 -0.2532 -0.6215
  979loPI   GL114985   1.244   9.856   5.602 -0.1161  0.2173 -0.0557
  979loPI   GL214986   1.139   9.551   5.596  0.1430  0.0107  0.1306
  979loPI   C1A14987   1.569   9.599   5.912  0.2978 -0.0603  0.0535
  979loPI   C2A14988   1.823   9.759   6.123  0.1626 -0.2952  0.0509
  979loPI   C3A14989   2.009  10.078   6.206 -0.0035  0.2340  0.1067
  979loPI   C4A14990   1.847  10.395   6.435  0.0002  0.2167 -0.0390
  979loPI   C5A14991   1.907  10.523   6.926 -0.0777 -0.2549 -0.1372
  979loPI   C6A14992   2.162  10.467   7.336  0.1352  0.1026  0.1005
  979loPI   C1B14993   1.169   9.220   5.858  0.4102  0.0194  0.0115
  979loPI   C2B14994   1.286   9.099   6.224  0.1123  0.1480  0.1268
  979loPI   C3B14995   1.360   9.089   6.598 -0.1419  0.3157 -0.0296
  979loPI   C4B14996   1.388   9.343   6.940  0.1224 -0.0620  0.2652
  980loPI    C114997  12.497  13.612   4.867  0.3312 -0.0852 -0.2711
  980loPI    C214998  12.347  13.247   4.928 -0.0184  0.0642 -0.2106
  980loPI    C314999  12.568  13.320   4.603 -0.0153 -0.1789 -0.2656
  980loPI   PO415000  12.517  13.720   5.011 -0.0237  0.2289 -0.1661
  980loPI   GL115001  12.356  13.741   5.437  0.2307  0.2105  0.1655
  980loPI   GL215002  12.460  13.421   5.397  0.1301 -0.0644 -0.3452
  980loPI   C1A15003  12.291  13.918   5.857  0.1083 -0.1347 -0.2307
  980loPI   C2A15004  12.235  13.842   6.339 -0.0032  0.1138  0.0630
  980loPI   C3A15005  12.363  13.499   6.654  0.0809 -0.3442 -0.4755
  980loPI   C4A15006  12.507  13.153   6.879  0.1256  0.0646 -0.2197
  980loPI   C5A15007  12.258  12.795   7.009  0.3185 -0.2512 -0.0698
  980loPI   C6A15008  11.968  12.556   7.236 -0.2720 -0.1591  0.0891
  980loPI   C1B15009  12.471  13.358   5.792  0.0270 -0.2121 -0.3079
  980loPI   C2B15010  12.553  13.346   6.211  0.2232  0.1703  0.1101
  980loPI   C3B15011  12.915  13.386   6.573 -0.1181 -0.3090 -0.2042
  980loPI   C4B15012  13.038  13.254   6.894  0.2407 -0.3816 -0.1389
  981loPI    C115013   0.812   3.765   4.917 -0.1187 -0.1793 -0.1405
  981loPI    C215014   0.922   3.740   4.534 -0.0468  0.0081 -0.1331
  981loPI    C315015   0.717   4.058   4.662 -0.1971 -0.1223 -0.0466
  981loPI   PO415016   0.995   3.690   5.071 -0.0451 -0.0764 -0.2324
  981loPI   GL115017   1.042   3.399   5.416 -0.2820  0.3720  0.0748
  981loPI   GL215018   1.325   3.427   5.412 -0.2178 -0.0167  0.0498
  981loPI   C1A15019   1.190   3.444   5.848  0.0144 -0.1765  0.0797
  981loPI   C2A15020   1.292   3.378   6.382 -0.0526 -0.0648  0.0198
  981loPI   C3A15021   1.339   3.366   6.802  0.0099 -0.0330  0.0221
  981loPI   C4A15022   1.393   3.297   7.226  0.0454 -0.0432 -0.1709
  981loPI   C5A15023   1.512   2.845   7.466 -0.2616  0.0178 -0.0647
  981loPI   C6A15024   1.681   2.712   7.833 -0.1387 -0.0703 -0.0293
  981loPI   C1B15025   1.620   3.343   5.688  0.1554  0.2314 -0.2092
  981loPI   C2B15026   1.668   3.247   6.120 -0.0584  0.0766  0.1132
  981loPI   C3B15027   1.725   3.008   6.507 -0.1497 -0.2553  0.0982
  981loPI   C4B15028   1.581   2.910   6.866 -0.1817  0.1787  0.0645
  982loPI    C115029   8.481  17.311   5.095 -0.3388 -0.1003 -0.0432
  982loPI    C215030   8.762  17.026   5.096 -0.0259  0.2015 -0.1579
  982loPI    C315031   8.456  17.004   4.840 -0.2390 -0.2497  0.1247
  982loPI   PO415032   8.430  17.415   5.277  0.0343 -0.2808 -0.0262
  982loPI   GL115033   8.579  17.345   5.663  0.1876  0.0039 -0.2095
  982loPI   GL215034   8.557  17.681   5.683  0.1710 -0.0808  0.4075
  982loPI   C1A15035   8.814  17.405   6.047  0.0680 -0.2417  0.0931
  982loPI   C2A15036   8.978  17.677   6.230 -0.0726  0.0509 -0.0535
  982loPI   C3A15037   8.865  17.917   6.419 -0.1018  0.2361 -0.1499
  982loPI   C4A15038   9.020  17.955   6.865 -0.0528 -0.1653 -0.0077
  982loPI   C5A15039   9.063  17.907   7.207  0.0875  0.1832  0.1425
  982loPI   C6A15040   9.038  18.200   7.475  0.4070  0.0456 -0.0458
  982loPI   C1B15041   8.497  17.872   6.051 -0.0579 -0.0014  0.0594
  982loPI   C2B15042   8.436  18.178   6.464 -0.1762  0.0318 -0.0692
  982loPI   C3B15043   8.492  18.075   6.898 -0.2691  0.0538  0.3045
  982loPI   C4B15044   8.431  17.802   7.295  0.3931  0.2288  0.2341
  983loPI    C115045   4.596   0.683   4.748 -0.0075 -0.0431 -0.1037
  983loPI    C215046   4.270   0.712   4.518 -0.1517 -0.0535  0.0966
  983loPI    C315047   4.620   0.858   4.389 -0.2132 -0.1274 -0.1596
  983loPI   PO415048   4.383   0.678   5.022 -0.1050 -0.0483 -0.3094
  983loPI   GL115049   4.432   0.865   5.360 -0.2012 -0.0772 -0.0002
  983loPI   GL215050   4.681   1.040   5.585 -0.2000 -0.1231  0.1590
  983loPI   C1A15051   4.254   0.587   5.729  0.2423  0.0335 -0.2013
  983loPI   C2A15052   4.075   0.174   5.716  0.0479  0.0619  0.3932
  983loPI   C3A15053   3.983  -0.080   5.920  0.3641  0.6334 -0.1482
  983loPI   C4A15054   3.790  -0.454   6.116 -0.0152  0.1152 -0.2872
  983loPI   C5A15055   3.883  -0.771   6.421 -0.1361  0.1999 -0.2627
  983loPI   C6A15056   3.760  -1.089   6.677 -0.0693  0.0336  0.1394
  983loPI   C1B15057   4.687   0.933   5.921  0.0183 -0.1511  0.0461
  983loPI   C2B15058   4.736   0.580   6.151  0.1399  0.0601  0.1569
  983loPI   C3B15059   4.760   0.537   6.646  0.0769 -0.1243  0.2114
  983loPI   C4B15060   4.723   0.311   6.975  0.0517  0.1016 -0.1509
  984loPI    C115061  12.123  10.838   4.931 -0.1026  0.1575 -0.1278
  984loPI    C215062  12.295  11.186   5.028 -0.2852  0.1026  0.4270
  984loPI    C315063  12.020  11.173   4.738  0.1752  0.2995 -0.0357
  984loPI   PO415064  12.051  10.763   5.167 -0.4181  0.1309  0.2000
  984loPI   GL115065  12.070  10.863   5.554  0.5056 -0.0595  0.0494
  984loPI   GL215066  12.304  10.842   5.837 -0.0799  0.1330 -0.0145
  984loPI   C1A15067  11.852  10.823   5.959  0.0723  0.0857  0.5008
  984loPI   C2A15068  11.781  10.845   6.431  0.2108 -0.0653  0.2388
  984loPI   C3A15069  11.784  10.934   6.847  0.0970  0.1593  0.2562
  984loPI   C4A15070  11.902  10.945   7.368 -0.0170  0.3159  0.4777
  984loPI   C5A15071  12.028  11.056   7.799  0.1231  0.0161 -0.0666
  984loPI   C6A15072  11.806  11.178   8.128 -0.3356  0.1884  0.1065
  984loPI   C1B15073  12.283  10.827   6.264  0.0284  0.3405  0.0614
  984loPI   C2B15074  12.261  10.831   6.677 -0.0316 -0.2929 -0.1314
  984loPI   C3B15075  12.404  10.788   7.159 -0.0800 -0.1887  0.5784
  984loPI   C4B15076  12.606  11.083   7.325 -0.0153  0.1417 -0.1053
  985loPI    C115077  15.804  13.809   4.647  0.1596 -0.2730  0.0976
  985loPI    C215078  16.191  13.751   4.727  0.2687 -0.0073 -0.2124
  985loPI    C315079  16.018  13.556   4.424  0.1536 -0.1347 -0.0670
  985loPI   PO415080  15.725  13.923   4.986 -0.1117  0.0389  0.0898
  985loPI   GL115081  15.850  14.058   5.419 -0.1071  0.0563  0.4509
  985loPI   GL215082  16.192  14.131   5.382 -0.2258  0.1515  0.0101
  985loPI   C1A15083  15.698  13.970   5.864  0.0692 -0.1135 -0.0563
  985loPI   C2A15084  15.619  14.139   6.321  0.0355 -0.0907 -0.3560
  985loPI   C3A15085  15.417  14.243   6.811 -0.0773 -0.0681  0.2507
  985loPI   C4A15086  15.000  14.488   7.013  0.0971 -0.0476  0.1489
  985loPI   C5A15087  14.999  14.842   7.306 -0.2726 -0.1287  0.1700
  985loPI   C6A15088  14.955  15.215   7.634 -0.0042 -0.0533 -0.0557
  985loPI   C1B15089  16.162  14.339   5.826  0.1466  0.1021  0.0436
  985loPI   C2B15090  16.194  14.195   6.163  0.0157  0.2506  0.0945
  985loPI   C3B15091  16.252  13.956   6.581 -0.2534 -0.0363 -0.1649
  985loPI   C4B15092  16.412  13.958   7.071 -0.0964 -0.0316 -0.1086
  986loPI    C115093  13.062   4.126   4.592 -0.1548  0.1148 -0.0905
  986loPI    C215094  13.223   4.411   4.363 -0.1351  0.1194 -0.0709
  986loPI    C315095  13.282   4.026   4.274 -0.3101  0.1215 -0.2013
  986loPI   PO415096  13.087   4.136   4.927  0.0914  0.1476 -0.2020
  986loPI   GL115097  13.232   4.162   5.245  0.0449 -0.2909  0.2135
  986loPI   GL215098  13.377   4.489   5.452 -0.3879 -0.4910 -0.2091
  986loPI   C1A15099  13.439   3.917   5.644  0.0892  0.0234  0.4203
  986loPI   C2A15100  13.648   3.831   6.016  0.0640  0.2508 -0.0723
  986loPI   C3A15101  13.817   3.844   6.482  0.0205 -0.1386 -0.1640
  986loPI   C4A15102  13.869   3.783   6.953  0.2153  0.0608 -0.0199
  986loPI   C5A15103  14.290   3.921   7.279 -0.0254  0.0907  0.4250
  986loPI   C6A15104  14.471   3.802   7.746 -0.0455  0.1020 -0.1198
  986loPI   C1B15105  13.422   4.309   5.932 -0.2529  0.3455 -0.0816
  986loPI   C2B15106  13.391   4.190   6.442  0.2187 -0.1319  0.0345
  986loPI   C3B15107  13.255   3.985   6.740  0.1799  0.4442 -0.0423
  986loPI   C4B15108  13.318   3.775   7.179 -0.0710  0.2609  0.3380
  987loPI    C115109  13.004  13.479   4.732  0.0862 -0.1139  0.0073
  987loPI    C215110  13.111  13.679   4.403  0.1083  0.0124  0.0907
  987loPI    C315111  13.097  13.280   4.398  0.0435  0.0158 -0.0828
  987loPI   PO415112  13.148  13.565   4.876 -0.1924  0.0312 -0.1566
  987loPI   GL115113  13.107  13.896   5.171  0.0385  0.0262 -0.0825
  987loPI   GL215114  12.929  13.635   5.423  0.1929  0.1659 -0.1598
  987loPI   C1A15115  13.388  13.680   5.554  0.1358  0.0564 -0.0075
  987loPI   C2A15116  13.410  13.613   5.954  0.1832 -0.2721 -0.1401
  987loPI   C3A15117  13.398  13.792   6.309  0.2696 -0.2203  0.0467
  987loPI   C4A15118  13.330  13.820   6.724  0.1538 -0.1025  0.1147
  987loPI   C5A15119  13.074  13.762   7.092 -0.1410 -0.3846 -0.0231
  987loPI   C6A15120  12.652  13.637   7.187 -0.2375 -0.1856  0.0219
  987loPI   C1B15121  12.771  13.719   5.941  0.0690 -0.4342 -0.1108
  987loPI   C2B15122  12.801  13.792   6.372 -0.1319  0.2451 -0.2526
  987loPI   C3B15123  12.703  13.829   6.714 -0.0559  0.1837  0.0162
  987loPI   C4B15124  12.267  13.893   6.921 -0.0701 -0.3846 -0.5233
  988loPI    C115125  12.643  12.511   5.155 -0.0787  0.0430  0.0957
  988loPI    C215126  12.383  12.420   4.864 -0.1458 -0.1782  0.2228
  988loPI    C315127  12.567  12.775   4.864 -0.0132 -0.2423 -0.1863
  988loPI   PO415128  12.486  12.475   5.370 -0.0784  0.1739  0.0820
  988loPI   GL115129  12.394  12.143   5.703  0.1384  0.1874  0.0310
  988loPI   GL215130  12.556  11.933   5.903  0.0255  0.1836 -0.2755
  988loPI   C1A15131  12.191  12.257   6.099 -0.1268 -0.0799 -0.0915
  988loPI   C2A15132  11.855  12.120   6.368  0.1967  0.0529 -0.2358
  988loPI   C3A15133  11.854  11.693   6.614 -0.0884  0.0043  0.4118
  988loPI   C4A15134  11.963  11.425   6.902  0.0159  0.3187 -0.0962
  988loPI   C5A15135  12.330  11.301   6.982  0.7936  0.0551  0.5245
  988loPI   C6A15136  12.757  11.383   6.913 -0.2559  0.0817 -0.0878
  988loPI   C1B15137  12.681  12.035   6.395 -0.1024 -0.2732  0.0678
  988loPI   C2B15138  12.938  11.956   6.649 -0.2565 -0.3120  0.1936
  988loPI   C3B15139  12.990  11.776   7.121 -0.2020 -0.1609 -0.0299
  988loPI   C4B15140  13.284  11.514   7.364 -0.0252  0.1488  0.2842
  989loPI    C115141  14.656  18.330   4.656 -0.0384 -0.0957  0.1218
  989loPI    C215142  14.442  18.594   4.445 -0.0316 -0.2510 -0.0824
  989loPI    C315143  14.811  18.495   4.327 -0.0054 -0.2962  0.0355
  989loPI   PO415144  14.634  18.466   4.952  0.2867  0.1562 -0.0241
  989loPI   GL115145  14.415  18.498   5.372 -0.0810  0.1760 -0.3038
  989loPI   GL215146  14.386  18.783   5.374  0.0449  0.1309  0.0151
  989loPI   C1A15147  14.403  18.412   5.835  0.0600  0.0301 -0.1011
  989loPI   C2A15148  14.506  18.452   6.286  0.3450  0.2877  0.1091
  989loPI   C3A15149  14.571  18.314   6.628 -0.0156  0.1369 -0.0150
  989loPI   C4A15150  14.741  18.032   6.981  0.2508 -0.2078  0.0885
  989loPI   C5A15151  14.884  17.955   7.337 -0.0551 -0.1030 -0.2754
  989loPI   C6A15152  15.066  18.276   7.688 -0.0795 -0.2806 -0.0651
  989loPI   C1B15153  14.518  18.908   5.818  0.1568 -0.2672 -0.2882
  989loPI   C2B15154  14.471  18.926   6.196  0.4772  0.2394 -0.3883
  989loPI   C3B15155  14.457  19.264   6.610 -0.0573  0.1376 -0.0819
  989loPI   C4B15156  14.424  19.637   6.832  0.1251  0.3296  0.1630
  990loPI    C115157  16.900  15.498   4.732 -0.0558 -0.0774  0.1733
  990loPI    C215158  16.644  15.611   4.445 -0.0087  0.1316  0.2118
  990loPI    C315159  16.965  15.392   4.352 -0.0678  0.0813  0.1260
  990loPI   PO415160  16.813  15.612   4.955 -0.0871 -0.3853 -0.1770
  990loPI   GL115161  16.564  15.630   5.310 -0.0867 -0.0337  0.0045
  990loPI   GL215162  16.513  15.843   5.492 -0.2025 -0.1735 -0.0543
  990loPI   C1A15163  16.582  15.326   5.673 -0.0148 -0.1435  0.3824
  990loPI   C2A15164  16.478  15.254   6.114  0.2534 -0.1243 -0.1127
  990loPI   C3A15165  16.609  15.412   6.472  0.0824 -0.0879  0.4586
  990loPI   C4A15166  16.726  15.445   6.909  0.1637 -0.0752 -0.2778
  990loPI   C5A15167  16.545  15.715   7.234 -0.1420  0.0010 -0.0513
  990loPI   C6A15168  16.441  15.335   7.467  0.4158  0.0002  0.2186
  990loPI   C1B15169  16.249  15.705   5.749  0.1239  0.2529 -0.0505
  990loPI   C2B15170  16.090  15.559   6.213  0.1450 -0.2866 -0.1785
  990loPI   C3B15171  16.139  15.457   6.663  0.2696 -0.0764 -0.0882
  990loPI   C4B15172  16.236  15.256   6.981  0.0917  0.0395  0.1660
  991loPI    C115173  11.116   8.968   5.186 -0.0926  0.1257 -0.0022
  991loPI    C215174  10.971   9.219   4.910 -0.0046  0.1939  0.0132
  991loPI    C315175  11.193   8.906   4.799  0.0781  0.2536  0.0106
  991loPI   PO415176  10.927   9.033   5.394 -0.0561 -0.0186 -0.1432
  991loPI   GL115177  10.784   9.108   5.719  0.1122 -0.2684  0.0049
  991loPI   GL215178  10.565   8.862   5.722 -0.2057 -0.1252  0.1331
  991loPI   C1A15179  10.650   9.199   6.119  0.2778  0.0201 -0.1682
  991loPI   C2A15180  10.283   8.989   6.327  0.1241 -0.3295  0.0577
  991loPI   C3A15181  10.239   8.781   6.724 -0.3099 -0.1374  0.1119
  991loPI   C4A15182  10.303   8.917   7.211  0.1209  0.0769 -0.0055
  991loPI   C5A15183  10.714   8.954   7.430  0.6473 -0.2274  0.1024
  991loPI   C6A15184  10.628   8.914   7.839 -0.1668  0.1782 -0.0103
  991loPI   C1B15185  10.422   8.579   6.051 -0.1251 -0.0851  0.0775
  991loPI   C2B15186  10.411   8.409   6.429  0.0503  0.1497  0.2792
  991loPI   C3B15187  10.252   8.259   6.781  0.1692 -0.0930  0.2885
  991loPI   C4B15188  10.438   8.144   7.126 -0.1540 -0.0596  0.2428
  992loPI    C115189   8.193  15.385   4.721  0.0671 -0.0323 -0.2572
  992loPI    C215190   8.508  15.148   4.655  0.0662 -0.0956 -0.0414
  992loPI    C315191   8.551  15.484   4.867  0.0263 -0.0045 -0.1761
  992loPI   PO415192   8.007  15.134   4.861 -0.0834 -0.0730 -0.2718
  992loPI   GL115193   8.032  15.140   5.189  0.3502 -0.0537 -0.0336
  992loPI   GL215194   8.129  15.491   5.264  0.1237  0.1821 -0.2670
  992loPI   C1A15195   8.175  15.081   5.612 -0.1980 -0.1229  0.0705
  992loPI   C2A15196   8.282  15.266   6.018 -0.0674 -0.2234  0.0575
  992loPI   C3A15197   8.160  15.230   6.461  0.2216  0.1370  0.1441
  992loPI   C4A15198   7.720  15.218   6.735  0.0019 -0.1791 -0.2498
  992loPI   C5A15199   7.254  15.108   6.675 -0.2358 -0.1039  0.0669
  992loPI   C6A15200   6.861  15.362   6.457 -0.1042  0.1791  0.1251
  992loPI   C1B15201   8.397  15.610   5.665  0.1599  0.0565 -0.2883
  992loPI   C2B15202   8.282  15.873   6.016  0.1995 -0.0480  0.0620
  992loPI   C3B15203   8.314  15.972   6.487  0.2937 -0.3249  0.0893
  992loPI   C4B15204   8.223  16.179   6.952  0.0931  0.2964 -0.0439
  993loPI    C115205   2.860  18.180   4.752  0.1554 -0.2155  0.0240
  993loPI    C215206   2.604  18.233   4.450  0.0066 -0.3500  0.1246
  993loPI    C315207   2.986  18.346   4.411 -0.0798 -0.0939 -0.0054
  993loPI   PO415208   2.686  18.315   4.931  0.0673 -0.1617 -0.2218
  993loPI   GL115209   2.340  18.317   5.204  0.0511 -0.3314  0.2524
  993loPI   GL215210   2.317  18.531   5.429  0.1135  0.0986  0.0070
  993loPI   C1A15211   2.167  18.088   5.541 -0.2062  0.0686 -0.0915
  993loPI   C2A15212   2.027  18.010   5.923 -0.1114  0.2323  0.2041
  993loPI   C3A15213   2.008  17.927   6.397  0.1201 -0.0779 -0.3251
  993loPI   C4A15214   1.901  17.665   6.664 -0.1828 -0.1893 -0.0882
  993loPI   C5A15215   1.898  17.708   7.140 -0.1937 -0.1316  0.0118
  993loPI   C6A15216   2.149  17.701   7.518  0.0414 -0.0254 -0.1712
  993loPI   C1B15217   2.146  18.508   5.821  0.2413 -0.2416  0.0115
  993loPI   C2B15218   2.125  18.381   6.224  0.0348  0.0605 -0.0926
  993loPI   C3B15219   2.151  18.438   6.644 -0.1990  0.1420  0.1752
  993loPI   C4B15220   2.222  18.610   7.105 -0.0290 -0.3390  0.1911
  994loPI    C115221  18.889  10.118   4.974  0.1391  0.3125  0.2738
  994loPI    C215222  19.279  10.206   4.972  0.1767  0.1586 -0.0866
  994loPI    C315223  19.084  10.155   4.627 -0.0999 -0.0443  0.0947
  994loPI   PO415224  18.845  10.308   5.196  0.0562  0.1485 -0.3448
  994loPI   GL115225  18.732  10.325   5.588 -0.0741  0.0742 -0.2899
  994loPI   GL215226  18.447  10.402   5.720 -0.0364 -0.0340  0.1133
  994loPI   C1A15227  18.974  10.218   5.996  0.0009 -0.4052  0.0520
  994loPI   C2A15228  19.082  10.366   6.419  0.0525  0.0534  0.1309
  994loPI   C3A15229  19.086  10.290   6.805  0.5016 -0.2066  0.1574
  994loPI   C4A15230  19.199  10.057   7.079 -0.0648  0.1552  0.1418
  994loPI   C5A15231  19.223   9.904   7.479 -0.0864 -0.0379  0.0794
  994loPI   C6A15232  19.064   9.802   7.901  0.2336  0.1159  0.0737
  994loPI   C1B15233  18.177  10.341   5.980  0.0884 -0.2710  0.2002
  994loPI   C2B15234  18.180  10.471   6.405 -0.1011 -0.1003 -0.2521
  994loPI   C3B15235  18.202  10.557   6.929 -0.1595 -0.1306 -0.1271
  994loPI   C4B15236  18.249  10.818   7.174 -0.2366 -0.0319 -0.5246
  995loPI    C115237  16.854  18.614   4.502 -0.1003 -0.0935  0.0205
  995loPI    C215238  16.629  18.900   4.335  0.0280  0.0792  0.1390
  995loPI    C315239  17.023  18.891   4.268  0.0162 -0.1077  0.0869
  995loPI   PO415240  16.770  18.607   4.754  0.1306  0.1079 -0.0037
  995loPI   GL115241  16.778  18.771   5.153  0.1532  0.0236  0.3589
  995loPI   GL215242  17.195  18.807   5.195  0.4203  0.2099 -0.2758
  995loPI   C1A15243  16.945  18.814   5.579 -0.3937  0.1491 -0.0213
  995loPI   C2A15244  17.023  18.959   5.938 -0.0465  0.2109  0.0955
  995loPI   C3A15245  17.112  18.698   6.267 -0.1109  0.1449 -0.1215
  995loPI   C4A15246  17.049  18.693   6.648 -0.0882 -0.0683 -0.1139
  995loPI   C5A15247  16.872  18.844   6.977 -0.0435 -0.0730  0.0811
  995loPI   C6A15248  16.697  18.491   7.206  0.0171  0.2380  0.0074
  995loPI   C1B15249  17.456  18.731   5.595 -0.2239  0.0664 -0.0139
  995loPI   C2B15250  17.479  18.845   5.989 -0.3525  0.2566 -0.1646
  995loPI   C3B15251  17.614  18.705   6.417 -0.1515 -0.3456  0.1123
  995loPI   C4B15252  17.712  18.359   6.505  0.2012 -0.3566  0.2185
  996loPI    C115253   3.045   7.364   4.940  0.3409  0.0743 -0.0214
  996loPI    C215254   3.169   7.566   4.618  0.1322 -0.0408 -0.1768
  996loPI    C315255   2.888   7.723   4.856  0.2781  0.0391 -0.0548
  996loPI   PO415256   3.023   7.102   4.907 -0.2760 -0.0726  0.0646
  996loPI   GL115257   3.144   6.868   5.221 -0.2705  0.0943  0.0022
  996loPI   GL215258   3.537   6.673   5.170 -0.0644 -0.0744  0.0116
  996loPI   C1A15259   3.058   6.891   5.661  0.1838  0.0956 -0.2817
  996loPI   C2A15260   3.060   6.946   5.995 -0.2907 -0.0437 -0.1245
  996loPI   C3A15261   3.172   7.188   6.372 -0.0768  0.1509 -0.2123
  996loPI   C4A15262   3.451   7.447   6.623 -0.2781 -0.0542  0.0018
  996loPI   C5A15263   3.767   7.483   6.968 -0.0745  0.2405 -0.1488
  996loPI   C6A15264   4.090   7.452   7.156  0.0833 -0.2240  0.0958
  996loPI   C1B15265   3.524   6.777   5.565  0.0159 -0.2393  0.0908
  996loPI   C2B15266   3.577   7.016   5.918 -0.1172 -0.1417  0.2575
  996loPI   C3B15267   3.833   7.101   6.371 -0.1502  0.5354  0.1686
  996loPI   C4B15268   3.907   7.043   6.780 -0.2262 -0.0751 -0.1368
  997loPI    C115269   4.940  19.143   4.906 -0.0137 -0.0571 -0.1109
  997loPI    C215270   4.755  19.045   4.565 -0.0638 -0.0380 -0.0892
  997loPI    C315271   4.623  19.354   4.783  0.0492  0.0327 -0.1205
  997loPI   PO415272   5.021  18.845   4.981 -0.0145  0.0631  0.1438
  997loPI   GL115273   4.870  18.672   5.321  0.1258  0.0484 -0.1572
  997loPI   GL215274   4.797  18.879   5.638 -0.1193  0.1534 -0.1160
  997loPI   C1A15275   5.248  18.671   5.588  0.1867 -0.2108 -0.0403
  997loPI   C2A15276   5.292  18.644   6.115  0.5201 -0.0561  0.1080
  997loPI   C3A15277   5.589  18.361   6.359  0.0763 -0.1093 -0.2127
  997loPI   C4A15278   5.669  17.908   6.621 -0.1731 -0.2288  0.0563
  997loPI   C5A15279   5.361  17.805   6.919  0.4095 -0.1549  0.4346
  997loPI   C6A15280   5.000  17.827   7.181 -0.3094 -0.0036  0.2122
  997loPI   C1B15281   4.830  18.576   5.933  0.1027  0.1232 -0.0055
  997loPI   C2B15282   4.947  18.282   6.383 -0.0421 -0.1562 -0.1781
  997loPI   C3B15283   5.182  18.226   6.770 -0.1931  0.2305  0.0181
  997loPI   C4B15284   5.590  18.298   6.982 -0.0619 -0.3258  0.1627
  998loPI    C115285   6.684   3.492   4.827  0.1932  0.0340  0.0933
  998loPI    C215286   6.614   3.841   4.645 -0.1874 -0.1560 -0.1372
  998loPI    C315287   6.828   3.558   4.460  0.0853 -0.0653  0.0326
  998loPI   PO415288   6.746   3.568   5.029 -0.1641  0.1905 -0.0908
  998loPI   GL115289   6.837   3.459   5.424  0.2318  0.0016  0.1047
  998loPI   GL215290   6.800   3.170   5.402  0.1905 -0.1960 -0.0432
  998loPI   C1A15291   6.814   3.487   5.896  0.0898  0.1598  0.1135
  998loPI   C2A15292   6.882   3.311   6.371  0.0418  0.0782  0.0988
  998loPI   C3A15293   7.069   3.241   6.742 -0.4512 -0.1856  0.0664
  998loPI   C4A15294   6.760   3.110   7.127  0.1735  0.2390 -0.1187
  998loPI   C5A15295   6.489   2.833   7.253 -0.4308  0.2407 -0.3261
  998loPI   C6A15296   6.325   2.459   7.138 -0.1206  0.0219  0.0234
  998loPI   C1B15297   6.757   2.898   5.783 -0.2489  0.1204 -0.0206
  998loPI   C2B15298   6.808   2.858   6.199  0.1914  0.1189 -0.1475
  998loPI   C3B15299   6.690   2.690   6.555 -0.2707  0.1140 -0.0150
  998loPI   C4B15300   6.746   2.489   6.880 -0.3471  0.2311 -0.4329
  999loPI    C115301   3.348  16.483   4.867  0.0440  0.1361  0.1832
  999loPI    C215302   3.002  16.507   4.668 -0.1219  0.0025  0.4513
  999loPI    C315303   3.347  16.486   4.467 -0.2847 -0.1082  0.1784
  999loPI   PO415304   3.240  16.677   5.092  0.2418 -0.0902  0.1275
  999loPI   GL115305   3.131  16.705   5.498  0.0571  0.1893  0.0608
  999loPI   GL215306   3.237  16.361   5.543  0.0216  0.1463  0.6009
  999loPI   C1A15307   2.934  16.820   5.863  0.0160  0.0606  0.0221
  999loPI   C2A15308   2.956  16.804   6.285  0.0574 -0.0322  0.1409
  999loPI   C3A15309   2.867  16.528   6.550  0.1771 -0.0454 -0.1292
  999loPI   C4A15310   2.797  16.500   6.965 -0.3168 -0.2899 -0.0207
  999loPI   C5A15311   2.693  16.347   7.283 -0.0866  0.0841 -0.1012
  999loPI   C6A15312   2.429  16.343   7.586 -0.1733  0.3005  0.3138
  999loPI   C1B15313   3.438  16.578   5.967 -0.2399  0.3494  0.1835
  999loPI   C2B15314   3.452  16.678   6.404 -0.2200 -0.0218  0.0235
  999loPI   C3B15315   3.313  16.553   6.816  0.0236 -0.0655  0.0699
  999loPI   C4B15316   3.195  16.832   7.187  0.0736 -0.1633  0.1598
 1000loPI    C115317  17.653  13.970   4.875 -0.0638 -0.1496  0.0028
 1000loPI    C215318  17.820  13.705   4.627  0.1650  0.0754 -0.0884
 1000loPI    C315319  17.495  13.908   4.513  0.1231 -0.0012 -0.1058
 1000loPI   PO415320  17.683  13.863   5.101  0.2598  0.3544 -0.0916
 1000loPI   GL115321  17.921  13.730   5.470 -0.0592  0.1801  0.1102
 1000loPI   GL215322  17.659  13.882   5.635  0.1496  0.1645 -0.1248
 1000loPI   C1A15323  17.995  13.615   5.889  0.1339  0.0353  0.5074
 1000loPI   C2A15324  18.103  13.467   6.275 -0.0314  0.0882 -0.2582
 1000loPI   C3A15325  18.321  13.485   6.648 -0.0039  0.0467  0.1645
 1000loPI   C4A15326  18.372  13.600   7.091 -0.0561  0.2617 -0.1531
 1000loPI   C5A15327  18.285  13.953   7.377  0.0523  0.0054 -0.1156
 1000loPI   C6A15328  18.142  14.399   7.599  0.0046 -0.0228 -0.0318
 1000loPI   C1B15329  17.530  13.916   5.992 -0.4545 -0.0714 -0.0919
 1000loPI   C2B15330  17.687  13.701   6.381  0.1176  0.4177  0.1037
 1000loPI   C3B15331  17.882  13.631   6.856 -0.1783  0.2954 -0.0736
 1000loPI   C4B15332  17.868  13.752   7.202 -0.0582  0.1461 -0.0026
 1001loPI    C115333   0.943   8.242   5.063 -0.0471 -0.1536  0.0519
 1001loPI    C215334   0.822   8.538   4.823  0.0303 -0.0800  0.1029
 1001loPI    C315335   1.132   8.308   4.716  0.1855  0.0731  0.2174
 1001loPI   PO415336   0.887   8.330   5.281 -0.1195  0.0438  0.1252
 1001loPI   GL115337   0.893   8.052   5.702 -0.2397 -0.1346  0.1573
 1001loPI   GL215338   1.018   8.344   5.791  0.1885  0.0310  0.0073
 1001loPI   C1A15339   0.697   7.885   6.089  0.2955 -0.2109 -0.1073
 1001loPI   C2A15340   0.624   7.850   6.513  0.0326 -0.0333  0.0220
 1001loPI   C3A15341   0.622   7.775   6.964 -0.1409  0.0797 -0.0770
 1001loPI   C4A15342   0.745   7.723   7.406  0.0955 -0.0636 -0.2223
 1001loPI   C5A15343   0.913   7.881   7.690 -0.0698 -0.2024 -0.1842
 1001loPI   C6A15344   1.258   7.648   8.013  0.2763 -0.0275  0.1037
 1001loPI   C1B15345   0.873   8.338   6.305  0.1374  0.3257  0.1860
 1001loPI   C2B15346   0.927   8.336   6.766 -0.0905  0.0063 -0.4085
 1001loPI   C3B15347   1.205   8.416   7.072 -0.0408 -0.1646  0.0467
 1001loPI   C4B15348   1.241   8.671   7.475 -0.0945 -0.1244  0.1094
 1002loPI    C115349   9.362  14.348   4.631 -0.0984  0.2898  0.0892
 1002loPI    C215350   9.054  14.212   4.847 -0.0533  0.0719  0.0192
 1002loPI    C315351   9.095  14.101   4.465  0.1905 -0.0168  0.0689
 1002loPI   PO415352   9.520  14.278   4.798  0.3576  0.0341 -0.0582
 1002loPI   GL115353   9.844  14.306   5.055 -0.0553 -0.0808  0.0845
 1002loPI   GL215354  10.209  14.405   5.132 -0.0691  0.0235 -0.1741
 1002loPI   C1A15355  10.022  13.990   5.401  0.3071 -0.1095  0.0450
 1002loPI   C2A15356  10.047  14.085   5.845  0.1956  0.0334 -0.4646
 1002loPI   C3A15357  10.147  14.230   6.205 -0.3475 -0.1013  0.0157
 1002loPI   C4A15358  10.102  14.336   6.731  0.4064  0.3156  0.0411
 1002loPI   C5A15359   9.950  13.983   6.896 -0.2076 -0.2642 -0.1852
 1002loPI   C6A15360   9.717  13.769   7.278 -0.0104 -0.1168  0.3694
 1002loPI   C1B15361  10.507  14.248   5.574 -0.1935  0.0416 -0.0423
 1002loPI   C2B15362  10.676  14.256   6.064 -0.0256 -0.2318  0.1552
 1002loPI   C3B15363  10.582  14.328   6.476  0.2191  0.2064 -0.0745
 1002loPI   C4B15364  10.569  14.482   6.945 -0.2649  0.0845 -0.2258
 1003loPI    C115365   8.096   9.156   5.144  0.0862  0.2590 -0.1275
 1003loPI    C215366   7.746   9.035   4.993  0.0598  0.1730  0.0016
 1003loPI    C315367   8.058   9.097   4.750  0.0301 -0.0070 -0.0842
 1003loPI   PO415368   8.088   9.074   5.341 -0.0874  0.1245 -0.0630
 1003loPI   GL115369   7.997   8.992   5.748 -0.0191 -0.1147  0.0276
 1003loPI   GL215370   7.957   8.739   5.986  0.1172 -0.2756  0.4658
 1003loPI   C1A15371   8.012   9.258   6.044  0.0377  0.1726 -0.1452
 1003loPI   C2A15372   8.267   9.570   6.325  0.1625 -0.1020 -0.2244
 1003loPI   C3A15373   8.404   9.844   6.548 -0.0228  0.0455 -0.0803
 1003loPI   C4A15374   8.489  10.028   6.908  0.4246 -0.0081  0.0687
 1003loPI   C5A15375   8.659  10.073   7.239  0.1323 -0.3115 -0.1373
 1003loPI   C6A15376   9.109  10.057   7.481 -0.0519 -0.0224  0.1900
 1003loPI   C1B15377   7.965   8.903   6.410 -0.1346  0.2639 -0.1558
 1003loPI   C2B15378   8.114   8.788   6.833 -0.0409 -0.0001 -0.4400
 1003loPI   C3B15379   7.897   9.011   7.139  0.0800  0.0042 -0.0195
 1003loPI   C4B15380   7.475   8.996   7.313 -0.1483 -0.0490 -0.1169
 1004loPI    C115381   5.106  10.514   4.944 -0.1524 -0.0238 -0.0685
 1004loPI    C215382   5.234  10.844   4.758  0.1228 -0.1387 -0.0883
 1004loPI    C315383   5.442  10.504   4.728 -0.0922 -0.2838  0.0328
 1004loPI   PO415384   5.011  10.595   5.227  0.1144 -0.2223  0.1763
 1004loPI   GL115385   5.141  10.522   5.657  0.0651 -0.0577 -0.1365
 1004loPI   GL215386   5.448  10.269   5.642  0.0499 -0.0493  0.0109
 1004loPI   C1A15387   5.366  10.438   6.075  0.0029  0.1505  0.1217
 1004loPI   C2A15388   5.351  10.488   6.462  0.0287 -0.0060 -0.0044
 1004loPI   C3A15389   5.407  10.602   6.843  0.1381  0.0578 -0.0311
 1004loPI   C4A15390   5.260  10.675   7.139 -0.0372  0.1250 -0.0619
 1004loPI   C5A15391   4.936  10.744   7.354  0.0237 -0.1464  0.3095
 1004loPI   C6A15392   4.813  10.802   7.763  0.0014  0.1619 -0.2751
 1004loPI   C1B15393   5.395   9.964   5.858 -0.0322  0.1026 -0.2369
 1004loPI   C2B15394   5.325   9.943   6.204 -0.2182  0.2684 -0.3324
 1004loPI   C3B15395   5.506   9.952   6.568 -0.0530  0.0919 -0.1392
 1004loPI   C4B15396   5.742  10.233   6.751  0.3134 -0.4224  0.0556
 1005loPI    C115397   7.545   4.126   4.800 -0.2415 -0.0165 -0.2395
 1005loPI    C215398   7.801   3.931   4.562 -0.0239  0.2508 -0.2291
 1005loPI    C315399   7.622   4.264   4.432 -0.1641  0.2114 -0.1395
 1005loPI   PO415400   7.466   4.049   5.048  0.0832 -0.0513 -0.0502
 1005loPI   GL115401   7.098   3.877   5.256  0.1080 -0.0868  0.0755
 1005loPI   GL215402   6.804   3.935   5.323 -0.2090 -0.4103 -0.2862
 1005loPI   C1A15403   7.202   3.736   5.595  0.0619  0.1714 -0.0538
 1005loPI   C2A15404   7.335   3.542   6.069 -0.0130 -0.0363  0.1854
 1005loPI   C3A15405   7.456   3.530   6.493  0.0649 -0.2194 -0.0866
 1005loPI   C4A15406   7.384   3.538   7.038  0.2629 -0.1392 -0.0885
 1005loPI   C5A15407   7.195   3.217   7.308 -0.0931 -0.0532  0.2565
 1005loPI   C6A15408   6.958   3.020   7.646 -0.0252 -0.0034  0.3703
 1005loPI   C1B15409   6.505   3.833   5.720 -0.0005  0.1234 -0.0539
 1005loPI   C2B15410   6.379   3.767   6.275  0.0224  0.3386 -0.2423
 1005loPI   C3B15411   6.498   3.639   6.596  0.1318 -0.6098  0.1935
 1005loPI   C4B15412   6.406   3.489   7.093 -0.0032 -0.1322  0.1470
 1006loPI    C115413  17.466   4.155   4.963 -0.2614  0.0438 -0.1167
 1006loPI    C215414  17.171   3.910   4.850 -0.0370 -0.2321 -0.1167
 1006loPI    C315415  17.541   3.855   4.709  0.0986 -0.1397  0.1953
 1006loPI   PO415416  17.538   4.151   5.291  0.0349 -0.0614 -0.3091
 1006loPI   GL115417  17.133   3.993   5.574  0.2519 -0.5389 -0.0234
 1006loPI   GL215418  17.039   3.701   5.787 -0.1842 -0.2560 -0.2257
 1006loPI   C1A15419  17.499   4.084   5.886 -0.2671 -0.2747 -0.0414
 1006loPI   C2A15420  17.449   3.957   6.373 -0.1262  0.1932 -0.1529
 1006loPI   C3A15421  17.179   3.897   6.757 -0.1995 -0.2582  0.2153
 1006loPI   C4A15422  17.108   4.002   7.162  0.1220  0.0825 -0.4303
 1006loPI   C5A15423  17.292   3.839   7.513 -0.3024 -0.1391 -0.2855
 1006loPI   C6A15424  17.273   3.689   7.976  0.3353 -0.1347  0.2963
 1006loPI   C1B15425  17.068   3.669   6.228  0.0978  0.1788  0.2088
 1006loPI   C2B15426  16.739   3.698   6.611  0.4335  0.1389  0.1729
 1006loPI   C3B15427  16.370   3.779   6.779 -0.0180  0.0568 -0.1415
 1006loPI   C4B15428  16.098   3.698   7.206  0.0949 -0.1441  0.0269
 1007loPI    C115429   4.602   1.178   4.972 -0.1783 -0.2361  0.0900
 1007loPI    C215430   4.710   1.419   4.672  0.0435 -0.2083  0.1906
 1007loPI    C315431   4.362   1.223   4.655 -0.1218  0.0876  0.0896
 1007loPI   PO415432   4.561   1.352   5.186 -0.2223 -0.3797 -0.1502
 1007loPI   GL115433   4.301   1.517   5.537  0.0554 -0.2524  0.4027
 1007loPI   GL215434   4.324   1.799   5.663 -0.1261  0.2313 -0.2186
 1007loPI   C1A15435   4.194   1.079   5.785 -0.0018 -0.3674  0.2537
 1007loPI   C2A15436   4.265   0.784   6.191 -0.1526 -0.0349  0.2160
 1007loPI   C3A15437   4.506   1.016   6.635 -0.1576 -0.1411  0.1912
 1007loPI   C4A15438   4.638   1.035   6.951 -0.3106 -0.2269  0.0154
 1007loPI   C5A15439   4.968   0.829   7.132 -0.1056 -0.0356 -0.2082
 1007loPI   C6A15440   5.136   0.369   7.228  0.3195 -0.0023  0.2951
 1007loPI   C1B15441   4.057   1.530   5.950 -0.1962  0.2284  0.2056
 1007loPI   C2B15442   4.030   1.518   6.290 -0.4132  0.1202 -0.2237
 1007loPI   C3B15443   4.095   1.248   6.563  0.3955  0.1884  0.1687
 1007loPI   C4B15444   4.154   1.210   6.982 -0.1053 -0.1043 -0.4596
 1008loPI    C115445   6.249  12.382   4.782  0.2427 -0.0776  0.0722
 1008loPI    C215446   6.408  12.749   4.796  0.0628  0.0109 -0.1479
 1008loPI    C315447   6.359  12.565   4.444  0.2677 -0.2776 -0.0297
 1008loPI   PO415448   6.132  12.223   5.060  0.2819  0.1853  0.1197
 1008loPI   GL115449   6.252  11.993   5.410  0.0980 -0.1654  0.1283
 1008loPI   GL215450   6.095  11.945   5.644  0.0260 -0.1434  0.0332
 1008loPI   C1A15451   6.427  12.252   5.746  0.3573 -0.2227 -0.3284
 1008loPI   C2A15452   6.446  12.355   6.171  0.0628  0.0413  0.1504
 1008loPI   C3A15453   6.335  12.401   6.666  0.2298 -0.0757 -0.3436
 1008loPI   C4A15454   6.419  12.194   6.967  0.0156 -0.1152 -0.2076
 1008loPI   C5A15455   6.246  12.284   7.374 -0.0569 -0.0347 -0.1799
 1008loPI   C6A15456   6.320  12.409   7.731  0.5433  0.2324  0.0282
 1008loPI   C1B15457   6.035  12.041   6.041 -0.1315  0.1717 -0.0989
 1008loPI   C2B15458   5.932  12.073   6.448 -0.1308  0.2247  0.0371
 1008loPI   C3B15459   5.766  11.820   6.733  0.0299 -0.1088 -0.0642
 1008loPI   C4B15460   5.477  11.526   6.806  0.0730 -0.0606 -0.2511
 1009loPI    C115461   3.142  18.600   4.869  0.0094 -0.0627 -0.0883
 1009loPI    C215462   3.402  18.313   4.970  0.2834  0.1736 -0.1082
 1009loPI    C315463   3.446  18.511   4.625  0.0822  0.2238 -0.1064
 1009loPI   PO415464   3.107  18.690   5.059  0.1909 -0.1081  0.1496
 1009loPI   GL115465   2.996  18.477   5.421  0.0001 -0.2599  0.0257
 1009loPI   GL215466   3.360  18.474   5.421  0.3117  0.2507  0.0599
 1009loPI   C1A15467   2.641  18.529   5.821  0.2131 -0.0694 -0.2715
 1009loPI   C2A15468   2.577  18.548   6.329 -0.1386  0.3059 -0.1928
 1009loPI   C3A15469   2.611  18.454   6.765 -0.1214  0.2736 -0.1719
 1009loPI   C4A15470   2.680  18.386   7.221  0.2326 -0.1229  0.0612
 1009loPI   C5A15471   2.519  18.141   7.453 -0.3175 -0.1338  0.2338
 1009loPI   C6A15472   2.247  18.248   7.853 -0.1000  0.1696  0.1207
 1009loPI   C1B15473   3.351  18.657   5.782 -0.2907  0.3877 -0.0922
 1009loPI   C2B15474   3.278  18.741   6.198  0.0379 -0.1154  0.2492
 1009loPI   C3B15475   3.052  18.702   6.558 -0.2987  0.0708 -0.1326
 1009loPI   C4B15476   3.106  18.543   7.035  0.0538  0.2237  0.0031
 1010loPI    C115477   5.973   1.709   4.576  0.0470  0.0044  0.0403
 1010loPI    C215478   6.308   1.527   4.454 -0.0955 -0.2188 -0.0242
 1010loPI    C315479   5.956   1.428   4.291 -0.1937  0.0161  0.0410
 1010loPI   PO415480   5.977   1.756   4.809 -0.0218 -0.2248 -0.1786
 1010loPI   GL115481   5.921   1.644   5.183 -0.3051  0.3582 -0.0982
 1010loPI   GL215482   5.804   1.427   5.267  0.1150  0.1165 -0.1662
 1010loPI   C1A15483   6.191   1.733   5.570 -0.0868 -0.2119  0.1370
 1010loPI   C2A15484   6.028   1.563   5.923 -0.1500 -0.0633  0.3364
 1010loPI   C3A15485   6.009   1.341   6.279 -0.1348 -0.4031 -0.1164
 1010loPI   C4A15486   6.123   1.566   6.756 -0.1597 -0.0946 -0.1617
 1010loPI   C5A15487   6.516   1.691   6.976 -0.2798  0.0178  0.0241
 1010loPI   C6A15488   6.864   1.957   7.129 -0.1852 -0.0807  0.1179
 1010loPI   C1B15489   5.616   1.397   5.743 -0.1916  0.4972  0.1163
 1010loPI   C2B15490   5.423   1.266   6.157 -0.1380  0.2859 -0.0959
 1010loPI   C3B15491   5.061   1.075   6.289 -0.1025 -0.2076  0.1366
 1010loPI   C4B15492   5.036   1.004   6.654  0.0787  0.1309  0.0409
 1011loPI    C115493   6.927  12.979   5.093  0.1998 -0.2085 -0.1252
 1011loPI    C215494   6.976  13.351   4.954 -0.1174 -0.1164  0.0012
 1011loPI    C315495   6.699  13.111   4.792  0.1649 -0.3415 -0.1577
 1011loPI   PO415496   6.873  12.870   5.338  0.0555  0.1178  0.3108
 1011loPI   GL115497   6.655  12.941   5.609 -0.1065 -0.2938  0.0108
 1011loPI   GL215498   6.503  12.694   5.644  0.2451  0.0017  0.2486
 1011loPI   C1A15499   6.586  12.875   6.087 -0.0325 -0.1107  0.3106
 1011loPI   C2A15500   6.281  12.848   6.395 -0.0405 -0.0731 -0.0009
 1011loPI   C3A15501   6.433  13.173   6.643 -0.0199 -0.1875 -0.0346
 1011loPI   C4A15502   6.711  13.191   7.040 -0.1541 -0.2992 -0.0945
 1011loPI   C5A15503   6.411  13.346   7.534 -0.0705  0.1820  0.2507
 1011loPI   C6A15504   6.529  13.370   8.037  0.2924  0.0486  0.2976
 1011loPI   C1B15505   6.064  12.605   5.791 -0.1833 -0.1468  0.0436
 1011loPI   C2B15506   5.918  12.533   6.199 -0.2124 -0.0803 -0.2826
 1011loPI   C3B15507   5.851  12.591   6.645  0.0453 -0.0585  0.0352
 1011loPI   C4B15508   5.929  12.220   6.963  0.0272  0.0275  0.1589
 1012loPI    C115509   5.385   9.045   4.828  0.0766 -0.0522  0.0714
 1012loPI    C215510   5.244   9.376   4.654  0.1036  0.0433  0.2292
 1012loPI    C315511   5.463   9.117   4.442 -0.3560 -0.1394 -0.0369
 1012loPI   PO415512   5.583   9.103   5.061 -0.0217 -0.2277  0.1913
 1012loPI   GL115513   5.677   9.256   5.408 -0.2412  0.0183  0.2124
 1012loPI   GL215514   5.446   9.248   5.555  0.3647 -0.1727  0.0060
 1012loPI   C1A15515   5.854   9.162   5.882 -0.3187 -0.0550 -0.0882
 1012loPI   C2A15516   6.000   9.142   6.244 -0.0694 -0.2317 -0.0963
 1012loPI   C3A15517   6.245   9.338   6.617 -0.3291  0.2269 -0.2648
 1012loPI   C4A15518   6.267   9.474   7.007  0.0589  0.0828 -0.0315
 1012loPI   C5A15519   6.057   9.546   7.468  0.0033 -0.2052 -0.2228
 1012loPI   C6A15520   5.725   9.490   7.809 -0.0876 -0.1444  0.2112
 1012loPI   C1B15521   5.322   9.405   5.877  0.2192  0.1192 -0.0072
 1012loPI   C2B15522   5.560   9.511   6.251  0.0484 -0.2430  0.4279
 1012loPI   C3B15523   5.588   9.427   6.658  0.0431 -0.0626  0.1265
 1012loPI   C4B15524   5.699   9.292   7.158 -0.0523  0.0289 -0.0319
 1013loPI    C115525   4.234  14.136   4.800  0.2826  0.1752 -0.0962
 1013loPI    C215526   4.412  14.068   4.449 -0.1976 -0.1630 -0.2851
 1013loPI    C315527   4.228  13.769   4.641 -0.0380  0.0434  0.2055
 1013loPI   PO415528   4.344  14.324   4.971 -0.1250  0.2278 -0.2018
 1013loPI   GL115529   4.271  14.585   5.234 -0.3048  0.1908 -0.3958
 1013loPI   GL215530   4.524  14.595   5.408  0.1873 -0.1175 -0.2479
 1013loPI   C1A15531   4.052  14.494   5.654 -0.0838  0.5416  0.1808
 1013loPI   C2A15532   3.853  14.215   6.026 -0.1080 -0.3549 -0.0598
 1013loPI   C3A15533   3.664  14.023   6.510  0.0635  0.1547 -0.0373
 1013loPI   C4A15534   3.657  14.026   6.982  0.1046  0.1130  0.2390
 1013loPI   C5A15535   3.486  14.081   7.318  0.1466 -0.0075  0.0751
 1013loPI   C6A15536   3.340  14.162   7.728 -0.0412  0.4264  0.3410
 1013loPI   C1B15537   4.672  14.380   5.764 -0.2347  0.1791 -0.0760
 1013loPI   C2B15538   4.330  14.249   5.969 -0.0980  0.2159 -0.0072
 1013loPI   C3B15539   4.043  14.635   6.232 -0.0726 -0.5068 -0.4062
 1013loPI   C4B15540   3.958  15.055   6.138  0.1952 -0.2182  0.1600
 1014loPI    C115541  18.233   5.767   5.139 -0.1737 -0.0927  0.3527
 1014loPI    C215542  18.208   5.429   5.352 -0.0748 -0.3430 -0.0233
 1014loPI    C315543  18.241   5.413   4.954  0.1854  0.1059 -0.0270
 1014loPI   PO415544  18.351   5.896   5.356 -0.2330 -0.2187 -0.0351
 1014loPI   GL115545  18.200   5.946   5.704  0.0507  0.0301 -0.0794
 1014loPI   GL215546  18.336   6.024   5.893  0.0844 -0.2397  0.0175
 1014loPI   C1A15547  17.838   5.948   5.988  0.2437 -0.0520 -0.0107
 1014loPI   C2A15548  17.462   6.126   6.205  0.1329  0.0808  0.2679
 1014loPI   C3A15549  17.231   6.327   6.468  0.1074 -0.0335  0.0068
 1014loPI   C4A15550  17.180   6.373   6.803  0.1138  0.2032  0.0447
 1014loPI   C5A15551  17.177   6.397   7.309  0.0862 -0.1290  0.0287
 1014loPI   C6A15552  17.141   6.496   7.680 -0.1586 -0.2927 -0.0804
 1014loPI   C1B15553  18.528   5.975   6.337  0.0405  0.0363 -0.3071
 1014loPI   C2B15554  18.503   5.826   6.803 -0.2283 -0.0538  0.1438
 1014loPI   C3B15555  18.437   5.547   7.096 -0.2545  0.0088 -0.2891
 1014loPI   C4B15556  18.251   5.215   7.069 -0.1522 -0.0918  0.1431
 1015loPI    C115557   4.677  18.349   4.478 -0.0329  0.1302  0.0937
 1015loPI    C215558   4.394  18.293   4.202 -0.0850  0.0566  0.1617
 1015loPI    C315559   4.523  18.662   4.283 -0.3386  0.1169  0.3048
 1015loPI   PO415560   4.558  18.181   4.675  0.0346  0.0236 -0.1216
 1015loPI   GL115561   4.328  18.150   4.950 -0.0195  0.3258 -0.1589
 1015loPI   GL215562   4.284  18.468   5.181  0.1801 -0.3042  0.0897
 1015loPI   C1A15563   4.500  17.926   5.329  0.1421 -0.1161  0.1621
 1015loPI   C2A15564   4.671  17.843   5.662  0.2370  0.0489 -0.1540
 1015loPI   C3A15565   4.753  17.851   6.108  0.2250 -0.2447 -0.1563
 1015loPI   C4A15566   4.729  17.880   6.544 -0.2392  0.2517 -0.2028
 1015loPI   C5A15567   4.645  18.127   6.892 -0.0264 -0.0417 -0.2026
 1015loPI   C6A15568   4.584  18.380   7.234  0.1516  0.1273  0.0424
 1015loPI   C1B15569   4.488  18.450   5.561 -0.2939  0.1564 -0.1492
 1015loPI   C2B15570   4.370  18.372   6.076 -0.0557  0.0142 -0.2891
 1015loPI   C3B15571   4.446  18.451   6.455  0.0116 -0.0692 -0.0794
 1015loPI   C4B15572   4.733  18.617   6.865  0.3005 -0.1256  0.1399
 1016loPI    C115573   3.418   8.558   4.860 -0.1022  0.0178 -0.2079
 1016loPI    C215574   3.210   8.652   4.532 -0.1491  0.2909 -0.1031
 1016loPI    C315575   3.609   8.681   4.531 -0.1479  0.2728 -0.1419
 1016loPI   PO415576   3.334   8.642   5.072 -0.0386  0.0673 -0.3328
 1016loPI   GL115577   3.581   8.496   5.425 -0.0683  0.1603 -0.1570
 1016loPI   GL215578   3.620   8.884   5.388 -0.0796 -0.0390 -0.2100
 1016loPI   C1A15579   3.615   8.365   5.848 -0.0137 -0.5094  0.0304
 1016loPI   C2A15580   3.547   8.445   6.236 -0.0373  0.0971 -0.4472
 1016loPI   C3A15581   3.362   8.474   6.675 -0.0677 -0.0038 -0.0248
 1016loPI   C4A15582   3.517   8.298   7.044  0.0404 -0.0658 -0.2859
 1016loPI   C5A15583   3.409   8.155   7.478 -0.0744 -0.4932 -0.4202
 1016loPI   C6A15584   3.327   8.157   7.920 -0.3012 -0.0738  0.3319
 1016loPI   C1B15585   3.683   8.867   5.748 -0.0554 -0.2319 -0.1060
 1016loPI   C2B15586   3.661   8.899   6.182 -0.2757 -0.1500  0.0165
 1016loPI   C3B15587   3.646   8.921   6.620  0.1916  0.0602 -0.1053
 1016loPI   C4B15588   3.742   9.332   6.917  0.0181 -0.2440  0.0090
 1017loPI    C115589   2.479   0.200   5.049  0.0523  0.0093  0.0719
 1017loPI    C215590   2.636   0.561   4.978 -0.2147  0.0952 -0.0948
 1017loPI    C315591   2.617   0.290   4.685 -0.0937 -0.0256  0.0075
 1017loPI   PO415592   2.529   0.071   5.212  0.0229  0.1254  0.1406
 1017loPI   GL115593   2.605   0.090   5.664  0.1208  0.0286  0.2070
 1017loPI   GL215594   2.786   0.345   5.745 -0.0221 -0.3078 -0.0806
 1017loPI   C1A15595   2.394   0.311   6.028 -0.1392 -0.1656  0.2008
 1017loPI   C2A15596   2.205   0.306   6.395  0.0515 -0.0017 -0.0020
 1017loPI   C3A15597   1.882   0.123   6.715  0.1140  0.0642  0.0199
 1017loPI   C4A15598   1.607   0.082   7.061  0.1839  0.1641  0.1431
 1017loPI   C5A15599   1.458  -0.157   7.367 -0.0109  0.0617 -0.2693
 1017loPI   C6A15600   0.973  -0.136   7.519  0.2121  0.1137 -0.0877
 1017loPI   C1B15601   3.150   0.078   5.902 -0.0188  0.0894 -0.2661
 1017loPI   C2B15602   3.529   0.106   6.070 -0.5504 -0.1375  0.0311
 1017loPI   C3B15603   3.649  -0.098   6.463 -0.1006  0.0397 -0.2015
 1017loPI   C4B15604   3.590  -0.396   6.720  0.0813 -0.1784  0.0261
 1018loPI    C115605   5.076   1.851   4.682 -0.0747 -0.2918  0.0793
 1018loPI    C215606   4.898   1.770   4.333 -0.0971  0.1261 -0.0114
 1018loPI    C315607   5.259   1.944   4.338  0.0741 -0.2246  0.1754
 1018loPI   PO415608   4.946   1.939   4.934  0.1532  0.0121  0.0267
 1018loPI   GL115609   4.715   1.858   5.325  0.0419 -0.1831 -0.2987
 1018loPI   GL215610   4.858   1.494   5.568 -0.0817 -0.0433 -0.1892
 1018loPI   C1A15611   4.760   2.025   5.660 -0.3515 -0.1662 -0.0206
 1018loPI   C2A15612   4.691   1.954   6.088 -0.0174 -0.0466  0.1828
 1018loPI   C3A15613   4.799   2.019   6.556 -0.0027  0.0408  0.2472
 1018loPI   C4A15614   4.853   1.980   6.933 -0.0940  0.0845 -0.0228
 1018loPI   C5A15615   5.088   1.891   7.244  0.0626  0.0623 -0.1438
 1018loPI   C6A15616   5.335   1.660   7.604 -0.0600  0.2025  0.2830
 1018loPI   C1B15617   4.575   1.436   5.902  0.0273 -0.1078 -0.2891
 1018loPI   C2B15618   4.511   1.547   6.363 -0.2043  0.0284 -0.1262
 1018loPI   C3B15619   4.533   1.578   6.794  0.0276  0.1135 -0.1754
 1018loPI   C4B15620   4.348   1.623   7.236  0.2565  0.0856 -0.1998
 1019loPI    C115621   5.644  16.532   4.773 -0.0281 -0.2272  0.0159
 1019loPI    C215622   5.551  16.564   4.386  0.0658 -0.1367  0.0005
 1019loPI    C315623   5.926  16.633   4.508  0.1112 -0.4781  0.0647
 1019loPI   PO415624   5.524  16.290   4.815 -0.3589  0.3857 -0.0155
 1019loPI   GL115625   5.503  16.045   5.142 -0.0812  0.0796 -0.1905
 1019loPI   GL215626   5.764  15.994   5.226  0.0191 -0.0020  0.1200
 1019loPI   C1A15627   5.346  15.809   5.514  0.0589 -0.1111 -0.0183
 1019loPI   C2A15628   5.072  15.910   5.861  0.3256 -0.0587 -0.0053
 1019loPI   C3A15629   4.799  16.087   6.256 -0.1112 -0.2420 -0.3979
 1019loPI   C4A15630   4.659  15.858   6.727  0.2104  0.0612  0.1089
 1019loPI   C5A15631   4.693  15.674   7.117  0.0627  0.0265 -0.2174
 1019loPI   C6A15632   4.961  15.313   7.421  0.0378  0.0637 -0.0933
 1019loPI   C1B15633   5.745  16.123   5.629  0.4126  0.0243 -0.1482
 1019loPI   C2B15634   5.720  16.104   6.058 -0.1376 -0.0065 -0.1658
 1019loPI   C3B15635   5.671  16.139   6.461  0.0614 -0.0491  0.0977
 1019loPI   C4B15636   5.892  16.285   6.813 -0.0659  0.0176 -0.1298
 1020loPI    C115637   9.526   5.125   4.846 -0.2041  0.1409  0.0373
 1020loPI    C215638   9.671   4.797   4.669 -0.0305  0.0586  0.3259
 1020loPI    C315639   9.320   4.948   4.552 -0.1119 -0.2282  0.1889
 1020loPI   PO415640   9.579   5.099   5.136 -0.1414 -0.1053  0.0890
 1020loPI   GL115641   9.800   5.201   5.543 -0.0978  0.0305  0.2621
 1020loPI   GL215642  10.146   5.241   5.487  0.1219 -0.1583  0.0315
 1020loPI   C1A15643   9.756   5.166   5.885 -0.1016 -0.1489  0.1177
 1020loPI   C2A15644   9.757   5.121   6.295  0.2925 -0.1047 -0.2252
 1020loPI   C3A15645   9.780   5.140   6.722  0.0306 -0.0660  0.3560
 1020loPI   C4A15646   9.658   5.370   7.159 -0.2811 -0.2322  0.0908
 1020loPI   C5A15647   9.518   5.545   7.430 -0.2321 -0.2515  0.0840
 1020loPI   C6A15648   9.497   5.870   7.599  0.1238 -0.1371 -0.0198
 1020loPI   C1B15649  10.259   5.115   5.932  0.1317 -0.0294  0.1453
 1020loPI   C2B15650  10.274   5.042   6.401 -0.0379 -0.0803  0.0329
 1020loPI   C3B15651  10.371   4.951   6.792 -0.2502  0.0521 -0.2474
 1020loPI   C4B15652  10.671   4.922   7.125 -0.1533 -0.1234  0.2927
 1021loPI    C115653  15.942   0.963   5.338  0.1864  0.1968 -0.0703
 1021loPI    C215654  16.122   1.039   4.989  0.1948 -0.0639 -0.1245
 1021loPI    C315655  16.279   0.771   5.241  0.1188  0.0287  0.0231
 1021loPI   PO415656  15.816   1.283   5.331  0.3729 -0.4015 -0.2168
 1021loPI   GL115657  15.713   1.533   5.649 -0.0812 -0.3397 -0.0597
 1021loPI   GL215658  16.117   1.632   5.660  0.1258  0.0627  0.0011
 1021loPI   C1A15659  15.899   1.626   6.165 -0.1132 -0.1001 -0.1909
 1021loPI   C2A15660  15.928   1.388   6.593 -0.4354 -0.2677  0.0336
 1021loPI   C3A15661  15.717   1.301   7.017  0.1223 -0.1852 -0.2183
 1021loPI   C4A15662  15.686   0.868   7.224 -0.0016 -0.1017 -0.3190
 1021loPI   C5A15663  15.890   0.431   7.291  0.2966  0.3383 -0.0297
 1021loPI   C6A15664  16.102   0.067   7.285 -0.1333  0.1521 -0.0899
 1021loPI   C1B15665  16.444   1.540   5.983 -0.1893 -0.0815 -0.1750
 1021loPI   C2B15666  16.385   1.472   6.457  0.1750  0.0902 -0.0115
 1021loPI   C3B15667  16.449   1.498   6.848 -0.1071 -0.2723  0.1171
 1021loPI   C4B15668  16.447   1.480   7.302 -0.0855  0.1015 -0.1764
 1022loPI    C115669  11.435  15.963   4.616 -0.0086  0.2261 -0.1452
 1022loPI    C215670  11.282  16.278   4.423 -0.2658  0.2218  0.0463
 1022loPI    C315671  11.098  15.924   4.405  0.0482  0.0659 -0.2079
 1022loPI   PO415672  11.561  16.081   4.899 -0.0813  0.0562 -0.3029
 1022loPI   GL115673  11.812  16.240   5.139 -0.0743  0.1242 -0.3182
 1022loPI   GL215674  12.044  16.326   5.038  0.0238 -0.1477 -0.3149
 1022loPI   C1A15675  11.579  16.212   5.520 -0.1704 -0.1216 -0.0773
 1022loPI   C2A15676  11.320  16.380   5.798  0.1491 -0.3010 -0.1498
 1022loPI   C3A15677  10.858  16.380   5.938  0.0520  0.0514  0.1365
 1022loPI   C4A15678  10.675  16.649   6.206 -0.0726 -0.0409  0.1921
 1022loPI   C5A15679  10.650  16.568   6.581 -0.1308 -0.1252  0.0207
 1022loPI   C6A15680  10.377  16.819   6.852 -0.0736  0.0532 -0.4213
 1022loPI   C1B15681  11.992  16.550   5.482 -0.0819  0.0433 -0.2897
 1022loPI   C2B15682  11.745  16.629   5.749 -0.2250 -0.0438  0.0072
 1022loPI   C3B15683  11.526  16.693   6.089  0.0879  0.2223 -0.3446
 1022loPI   C4B15684  11.134  16.454   6.349 -0.3582  0.3315 -0.1438
 1023loPI    C115685  10.213  10.930   4.931 -0.2781 -0.0838 -0.1118
 1023loPI    C215686  10.510  10.734   4.748  0.0935  0.1396  0.2348
 1023loPI    C315687  10.306  11.017   4.552  0.1526  0.0332  0.0158
 1023loPI   PO415688  10.347  11.002   5.208 -0.2334 -0.1811 -0.0296
 1023loPI   GL115689  10.303  10.789   5.565  0.1190  0.0795 -0.1048
 1023loPI   GL215690  10.550  10.989   5.697  0.0635  0.0833 -0.1443
 1023loPI   C1A15691  10.209  10.449   5.790 -0.1950 -0.0320  0.2507
 1023loPI   C2A15692  10.250  10.624   6.207  0.5061 -0.0046 -0.2932
 1023loPI   C3A15693  10.531  10.632   6.529  0.1771  0.3554  0.2913
 1023loPI   C4A15694  10.806  10.856   6.808  0.0937  0.3737 -0.2473
 1023loPI   C5A15695  10.877  10.816   7.214 -0.0149  0.0183 -0.1823
 1023loPI   C6A15696  10.993  11.014   7.587  0.1631 -0.0381  0.2651
 1023loPI   C1B15697  10.488  11.088   6.162 -0.2616 -0.0347  0.0877
 1023loPI   C2B15698  10.507  11.092   6.519  0.1768 -0.1341 -0.0052
 1023loPI   C3B15699  10.522  11.328   6.760 -0.0943 -0.2246 -0.0236
 1023loPI   C4B15700  10.726  11.538   7.133 -0.0739 -0.2526  0.0756
 1024loPI    C115701   0.761  16.400   4.933 -0.2747 -0.0417 -0.2039
 1024loPI    C215702   1.071  16.305   4.698  0.0295  0.1513  0.1100
 1024loPI    C315703   0.765  16.515   4.550  0.0676 -0.0004 -0.1911
 1024loPI   PO415704   0.890  16.510   5.130  0.1749 -0.0416 -0.0261
 1024loPI   GL115705   1.193  16.544   5.435 -0.0435  0.0185  0.2824
 1024loPI   GL215706   1.052  16.289   5.649  0.0925 -0.1292  0.0580
 1024loPI   C1A15707   1.149  16.830   5.851 -0.0154  0.0848 -0.0950
 1024loPI   C2A15708   0.890  16.809   6.226  0.1793  0.0595  0.1823
 1024loPI   C3A15709   0.670  16.759   6.665  0.0664 -0.1477 -0.1987
 1024loPI   C4A15710   0.617  16.639   7.122 -0.2237 -0.2089  0.0776
 1024loPI   C5A15711   0.570  16.755   7.607  0.0829  0.4746  0.0580
 1024loPI   C6A15712   0.537  17.066   7.963 -0.2242  0.3618 -0.3289
 1024loPI   C1B15713   0.935  16.368   6.092  0.1160 -0.1262  0.2278
 1024loPI   C2B15714   0.934  16.305   6.531 -0.3316 -0.1396  0.3865
 1024loPI   C3B15715   1.039  16.454   6.867 -0.0434 -0.0108  0.0700
 1024loPI   C4B15716   1.068  16.876   6.960 -0.2909  0.0918 -0.0543
 1025loPI    C115717   0.393   0.056   4.511  0.0075  0.1397  0.1408
 1025loPI    C215718   0.629   0.256   4.257 -0.2572 -0.0214 -0.2421
 1025loPI    C315719   0.535  -0.126   4.184 -0.1413 -0.1470  0.2326
 1025loPI   PO415720   0.434   0.074   4.727  0.2934  0.1715 -0.1112
 1025loPI   GL115721   0.433  -0.024   5.092  0.2073  0.0652 -0.2913
 1025loPI   GL215722   0.523  -0.328   5.097 -0.1591 -0.2935  0.0946
 1025loPI   C1A15723   0.388   0.220   5.472  0.2840  0.2459  0.0792
 1025loPI   C2A15724   0.271   0.585   5.711 -0.1885 -0.0570  0.1048
 1025loPI   C3A15725   0.043   0.933   5.805 -0.3335  0.0620  0.2217
 1025loPI   C4A15726  -0.289   1.045   5.998  0.1565 -0.2131 -0.0417
 1025loPI   C5A15727  -0.365   1.154   6.430  0.0276  0.3113  0.1425
 1025loPI   C6A15728  -0.538   1.039   6.899  0.0384  0.1999 -0.1115
 1025loPI   C1B15729   0.760  -0.721   5.357  0.2566  0.0978 -0.0663
 1025loPI   C2B15730   1.014  -0.868   5.659  0.1414  0.0972 -0.1598
 1025loPI   C3B15731   1.152  -0.886   6.068  0.2618  0.1731 -0.2335
 1025loPI   C4B15732   1.203  -0.811   6.485 -0.0063  0.0526 -0.0358
 1026loPI    C115733  12.632   0.774   4.814 -0.4143 -0.0962  0.0966
 1026loPI    C215734  12.546   1.143   4.684  0.0870 -0.0210 -0.0424
 1026loPI    C315735  12.584   0.843   4.423 -0.0572 -0.1179  0.0463
 1026loPI   PO415736  12.899   0.824   4.964 -0.0794  0.1201  0.3213
 1026loPI   GL115737  13.077   1.051   5.242  0.2168  0.1909  0.2022
 1026loPI   GL215738  13.367   1.215   5.374 -0.1461 -0.0107  0.2297
 1026loPI   C1A15739  13.101   0.676   5.662  0.0692  0.3956  0.0886
 1026loPI   C2A15740  13.274   0.400   5.995 -0.1855  0.0099 -0.1079
 1026loPI   C3A15741  13.469   0.392   6.464 -0.0176 -0.0153 -0.0652
 1026loPI   C4A15742  13.569   0.107   6.913  0.0936 -0.4348 -0.1678
 1026loPI   C5A15743  13.331  -0.207   7.132 -0.2245  0.0604  0.0980
 1026loPI   C6A15744  13.072  -0.462   7.398 -0.1475  0.4014 -0.0654
 1026loPI   C1B15745  13.258   1.215   5.821 -0.0244  0.1663  0.0682
 1026loPI   C2B15746  13.352   1.289   6.243  0.2124  0.0238  0.1184
 1026loPI   C3B15747  13.306   1.188   6.676 -0.0452 -0.0333 -0.0860
 1026loPI   C4B15748  13.400   1.039   7.056 -0.0726 -0.1249 -0.0696
 1027loPI    C115749   0.782   7.032   5.073 -0.1062 -0.0662  0.0359
 1027loPI    C215750   0.520   7.333   5.100 -0.0057  0.0059  0.2242
 1027loPI    C315751   0.468   7.047   4.826 -0.2727  0.0279  0.2498
 1027loPI   PO415752   0.841   6.952   5.382  0.1530 -0.1487  0.0947
 1027loPI   GL115753   0.988   6.579   5.664  0.3071 -0.0316 -0.2766
 1027loPI   GL215754   1.252   6.778   5.765  0.2211  0.0028 -0.0210
 1027loPI   C1A15755   0.715   6.340   6.055 -0.1687 -0.3126 -0.2171
 1027loPI   C2A15756   0.802   6.232   6.434  0.3192  0.1407  0.2140
 1027loPI   C3A15757   1.160   6.167   6.650 -0.0373 -0.1671  0.2499
 1027loPI   C4A15758   1.562   6.216   6.967 -0.3769 -0.0096 -0.2133
 1027loPI   C5A15759   1.677   6.136   7.340  0.1857 -0.1273  0.2924
 1027loPI   C6A15760   1.862   6.268   7.726 -0.1852  0.0550 -0.0549
 1027loPI   C1B15761   1.174   6.456   6.098 -0.2346  0.0930  0.1941
 1027loPI   C2B15762   1.486   6.430   6.353  0.0005  0.0241 -0.1929
 1027loPI   C3B15763   1.889   6.429   6.644  0.2602 -0.1756  0.1730
 1027loPI   C4B15764   2.000   6.553   7.178 -0.0858 -0.0177 -0.0192
 1028loPI    C115765  11.399  10.328   4.711 -0.0533 -0.0348  0.1494
 1028loPI    C215766  11.239  10.520   4.399 -0.0071 -0.1359  0.0626
 1028loPI    C315767  11.166  10.131   4.453 -0.0784 -0.1013  0.2225
 1028loPI   PO415768  11.297  10.403   4.956 -0.0893 -0.1488  0.2864
 1028loPI   GL115769  11.160  10.602   5.421 -0.1649 -0.2095 -0.2140
 1028loPI   GL215770  10.801  10.701   5.365  0.1027  0.0416  0.0511
 1028loPI   C1A15771  11.387  10.523   5.840 -0.5012 -0.1719  0.2052
 1028loPI   C2A15772  11.418  10.482   6.242 -0.1215  0.0267  0.0812
 1028loPI   C3A15773  11.433  10.274   6.644  0.1456 -0.0321 -0.1613
 1028loPI   C4A15774  11.530  10.407   7.123 -0.0049 -0.2671  0.1225
 1028loPI   C5A15775  11.608  10.333   7.485 -0.0512  0.2526 -0.2118
 1028loPI   C6A15776  11.940  10.545   7.652 -0.3054  0.1020  0.4093
 1028loPI   C1B15777  11.018  10.988   5.688 -0.1296  0.1305 -0.1455
 1028loPI   C2B15778  10.946  11.241   5.988  0.0872 -0.2073  0.0182
 1028loPI   C3B15779  10.981  11.281   6.402 -0.1469  0.0474 -0.1120
 1028loPI   C4B15780  11.044  11.256   6.827  0.0537 -0.2973 -0.2426
 1029loPI    C115781   7.797   2.551   4.975 -0.2876  0.0675 -0.0303
 1029loPI    C215782   7.718   2.181   4.847 -0.1513  0.0693 -0.1222
 1029loPI    C315783   7.557   2.496   4.659 -0.1828  0.0609 -0.1094
 1029loPI   PO415784   7.798   2.633   5.176  0.3490 -0.0718  0.0828
 1029loPI   GL115785   7.724   2.859   5.430 -0.0782 -0.2372  0.0701
 1029loPI   GL215786   7.809   3.157   5.386 -0.5147 -0.0769 -0.1338
 1029loPI   C1A15787   7.697   2.712   5.896  0.1508  0.1967 -0.3130
 1029loPI   C2A15788   7.716   2.610   6.282  0.0102  0.0784 -0.0048
 1029loPI   C3A15789   7.729   2.598   6.722  0.0101 -0.2215  0.0449
 1029loPI   C4A15790   7.917   2.742   7.161  0.0702  0.1256  0.0410
 1029loPI   C5A15791   8.209   2.832   7.415  0.1984 -0.1571 -0.4057
 1029loPI   C6A15792   8.534   2.789   7.676  0.1939  0.0880 -0.2287
 1029loPI   C1B15793   7.725   3.147   5.829 -0.1878 -0.1869  0.1043
 1029loPI   C2B15794   7.836   3.250   6.219  0.0959 -0.0625 -0.1062
 1029loPI   C3B15795   7.828   3.130   6.565 -0.2749  0.0045  0.0501
 1029loPI   C4B15796   7.985   3.180   6.993 -0.3875  0.5098  0.1111
 1030loPI    C115797   4.532   6.025   4.861 -0.0281  0.0687 -0.1029
 1030loPI    C215798   4.255   6.110   4.585 -0.0151  0.0258 -0.1294
 1030loPI    C315799   4.643   6.120   4.489  0.0024  0.2833 -0.0402
 1030loPI   PO415800   4.427   6.123   5.133  0.0402 -0.0557 -0.1054
 1030loPI   GL115801   4.174   6.129   5.450 -0.2082  0.1580 -0.0381
 1030loPI   GL215802   3.870   6.346   5.426  0.0152  0.3073  0.0641
 1030loPI   C1A15803   4.210   6.211   5.867  0.0379 -0.0102 -0.2484
 1030loPI   C2A15804   4.291   6.133   6.343 -0.1225 -0.2427 -0.1582
 1030loPI   C3A15805   4.289   6.141   6.804 -0.0432  0.2450 -0.2885
 1030loPI   C4A15806   4.157   6.125   7.260 -0.0692  0.0697 -0.0983
 1030loPI   C5A15807   3.829   6.113   7.535  0.1268  0.2461  0.3515
 1030loPI   C6A15808   3.771   6.235   7.976 -0.2502  0.1550 -0.2303
 1030loPI   C1B15809   3.982   6.623   5.670  0.2601 -0.1914 -0.1655
 1030loPI   C2B15810   4.011   6.673   6.096 -0.0499  0.2863 -0.0631
 1030loPI   C3B15811   3.932   6.508   6.532  0.0316  0.0320  0.4616
 1030loPI   C4B15812   4.006   6.540   6.954  0.0443  0.1385  0.0327
 1031loPI    C115813   4.037  17.418   4.809 -0.1682  0.0418 -0.0573
 1031loPI    C215814   4.072  17.186   4.485  0.0576  0.1458 -0.1090
 1031loPI    C315815   3.893  17.542   4.457  0.1465  0.1885 -0.1372
 1031loPI   PO415816   3.969  17.307   5.044  0.4119  0.1833  0.2473
 1031loPI   GL115817   4.351  17.416   5.290  0.0616 -0.1985 -0.1952
 1031loPI   GL215818   4.669  17.536   5.150  0.1219 -0.1523  0.2094
 1031loPI   C1A15819   4.070  17.379   5.680 -0.3929 -0.2224 -0.0574
 1031loPI   C2A15820   3.946  17.432   6.035  0.3213  0.3457 -0.0949
 1031loPI   C3A15821   3.765  17.612   6.334  0.0382  0.4214  0.1989
 1031loPI   C4A15822   3.621  17.475   6.766  0.0854 -0.0910 -0.0641
 1031loPI   C5A15823   3.297  17.365   7.027 -0.0697  0.1268 -0.0195
 1031loPI   C6A15824   2.926  17.248   7.232 -0.0633  0.0208  0.3021
 1031loPI   C1B15825   4.886  17.301   5.501 -0.0658  0.1523  0.2786
 1031loPI   C2B15826   5.021  17.006   5.874  0.3576  0.2444  0.1265
 1031loPI   C3B15827   4.813  16.781   6.256  0.1676 -0.1985  0.1384
 1031loPI   C4B15828   4.875  16.432   6.603  0.0774 -0.2588 -0.1351
 1032loPI    C115829   5.581  17.407   4.723  0.0848  0.2102 -0.0800
 1032loPI    C215830   5.765  17.091   4.886  0.0944  0.2074 -0.0963
 1032loPI    C315831   5.741  17.126   4.488 -0.0599  0.1381 -0.0935
 1032loPI   PO415832   5.364  17.439   4.836 -0.0417  0.3659 -0.0086
 1032loPI   GL115833   5.180  17.720   5.222 -0.1271  0.1686  0.0570
 1032loPI   GL215834   4.959  18.035   5.283 -0.1844 -0.0637 -0.1446
 1032loPI   C1A15835   5.174  17.724   5.631 -0.1497 -0.1817  0.0962
 1032loPI   C2A15836   5.041  17.483   5.951 -0.3056 -0.4176  0.4497
 1032loPI   C3A15837   4.961  17.405   6.386  0.0323 -0.2556 -0.4235
 1032loPI   C4A15838   5.020  17.428   6.839 -0.2533  0.2615 -0.1462
 1032loPI   C5A15839   4.898  17.374   7.187 -0.2542 -0.2518  0.0794
 1032loPI   C6A15840   4.625  17.440   7.603 -0.2279  0.0180 -0.2010
 1032loPI   C1B15841   5.076  18.197   5.598 -0.0812 -0.1406 -0.2888
 1032loPI   C2B15842   5.346  18.132   6.036 -0.2260 -0.2215  0.1149
 1032loPI   C3B15843   5.321  17.815   6.302 -0.0528  0.0693  0.0618
 1032loPI   C4B15844   5.502  17.404   6.487 -0.2982 -0.0709  0.0817
 1033loPI    C115845   1.023  10.664   4.980 -0.1222  0.1741 -0.1362
 1033loPI    C215846   1.150  10.960   4.743  0.0288  0.2355  0.0192
 1033loPI    C315847   0.763  10.934   4.839  0.0056  0.3493 -0.0414
 1033loPI   PO415848   1.176  10.669   5.230 -0.0436 -0.1361  0.1485
 1033loPI   GL115849   1.167  10.614   5.562 -0.4679 -0.0781 -0.4697
 1033loPI   GL215850   1.083  10.349   5.787  0.0523 -0.0542  0.1444
 1033loPI   C1A15851   1.483  10.669   5.859  0.2182  0.0576  0.0328
 1033loPI   C2A15852   1.477  10.607   6.221 -0.1079  0.4386 -0.1822
 1033loPI   C3A15853   1.427  10.584   6.582  0.0090  0.0733 -0.1942
 1033loPI   C4A15854   1.333  10.606   6.938 -0.3678 -0.2150 -0.2677
 1033loPI   C5A15855   1.488  10.326   7.264  0.0952  0.0591  0.1308
 1033loPI   C6A15856   1.682  10.279   7.662 -0.3033 -0.1772 -0.3771
 1033loPI   C1B15857   1.034  10.395   6.197 -0.0016 -0.0384  0.0477
 1033loPI   C2B15858   1.012  10.229   6.551 -0.1116  0.1410  0.1160
 1033loPI   C3B15859   1.303  10.076   6.893 -0.1434  0.1096  0.0526
 1033loPI   C4B15860   1.540   9.776   7.095 -0.1852  0.3503  0.0106
 1034loPI    C115861   4.001   2.907   4.804 -0.0884 -0.1041  0.0988
 1034loPI    C215862   3.842   3.176   4.554  0.0697 -0.1163 -0.0165
 1034loPI    C315863   3.857   2.790   4.449  0.3186 -0.0922 -0.0758
 1034loPI   PO415864   3.909   2.932   5.022  0.0116 -0.1060  0.2734
 1034loPI   GL115865   4.162   3.012   5.343  0.1560 -0.0463 -0.2067
 1034loPI   GL215866   4.401   3.355   5.300  0.0247  0.1621 -0.1529
 1034loPI   C1A15867   4.028   3.234   5.816  0.0377  0.1006 -0.1062
 1034loPI   C2A15868   3.992   3.214   6.293  0.1049  0.1172 -0.2990
 1034loPI   C3A15869   4.149   3.333   6.672 -0.1986 -0.1766 -0.3346
 1034loPI   C4A15870   4.368   3.482   6.976  0.1059  0.1548 -0.0811
 1034loPI   C5A15871   4.476   3.706   7.409  0.2559  0.0443  0.0539
 1034loPI   C6A15872   4.602   3.691   7.898  0.1107  0.1556 -0.0900
 1034loPI   C1B15873   4.464   3.585   5.785 -0.1769 -0.1027  0.2993
 1034loPI   C2B15874   4.503   3.763   6.201  0.0471  0.0487 -0.4020
 1034loPI   C3B15875   4.513   3.750   6.627 -0.2144  0.0997  0.0079
 1034loPI   C4B15876   4.934   3.626   6.739  0.1150  0.2753  0.2734
 1035loPI    C115877   7.209  15.639   4.735  0.1493 -0.0662  0.0409
 1035loPI    C215878   7.234  15.799   5.100 -0.0105  0.1509 -0.0415
 1035loPI    C315879   7.380  15.997   4.785  0.1949 -0.0695 -0.0873
 1035loPI   PO415880   7.332  15.394   4.826 -0.1456 -0.0639  0.1363
 1035loPI   GL115881   7.541  15.255   5.237  0.2031  0.0300 -0.0188
 1035loPI   GL215882   7.417  15.082   5.247  0.0102 -0.2928  0.1939
 1035loPI   C1A15883   7.759  15.420   5.553 -0.0637  0.1226 -0.1276
 1035loPI   C2A15884   7.928  15.580   5.808  0.0721 -0.0107 -0.0445
 1035loPI   C3A15885   7.965  15.585   6.199  0.1181  0.2151 -0.1695
 1035loPI   C4A15886   7.994  15.677   6.641  0.2666  0.4163 -0.2938
 1035loPI   C5A15887   7.794  15.679   7.043 -0.1158  0.0718 -0.1253
 1035loPI   C6A15888   7.322  15.771   7.229  0.4011 -0.1181 -0.3145
 1035loPI   C1B15889   7.402  15.089   5.702 -0.0993  0.0219 -0.0414
 1035loPI   C2B15890   7.726  15.075   5.889 -0.1140  0.1413  0.0172
 1035loPI   C3B15891   7.769  14.924   6.261 -0.0777 -0.1295  0.1478
 1035loPI   C4B15892   7.537  14.732   6.614  0.2059 -0.1069 -0.2736
 1036loPI    C115893   7.007   1.995   4.837  0.0173 -0.0676  0.0071
 1036loPI    C215894   7.122   1.662   4.648  0.1486  0.0558 -0.1335
 1036loPI    C315895   6.745   1.699   4.775  0.2148 -0.2826  0.1805
 1036loPI   PO415896   7.175   2.093   4.871  0.2292 -0.0761  0.0843
 1036loPI   GL115897   7.273   2.101   5.273 -0.0610 -0.2186 -0.0157
 1036loPI   GL215898   7.419   2.360   5.402 -0.1631 -0.0725 -0.0023
 1036loPI   C1A15899   7.201   1.646   5.455 -0.2769  0.3562  0.3720
 1036loPI   C2A15900   7.086   1.529   5.922  0.1008  0.0470 -0.2449
 1036loPI   C3A15901   6.959   1.691   6.275  0.4364 -0.0508  0.2448
 1036loPI   C4A15902   6.705   1.465   6.549  0.2645  0.1058  0.1923
 1036loPI   C5A15903   6.367   1.119   6.712  0.0874  0.0588 -0.3333
 1036loPI   C6A15904   6.090   1.041   7.114  0.1632 -0.0744  0.2749
 1036loPI   C1B15905   7.570   1.961   5.725  0.0954 -0.2634 -0.0536
 1036loPI   C2B15906   7.698   2.179   6.038  0.3383  0.0020  0.0469
 1036loPI   C3B15907   7.737   2.033   6.528  0.1500  0.0902  0.1144
 1036loPI   C4B15908   7.627   2.140   6.914 -0.1005  0.0913 -0.2052
 1037loPI    C115909  17.487  16.525   4.746 -0.1027 -0.3535  0.2162
 1037loPI    C215910  17.551  16.636   4.368  0.1012 -0.0444  0.3374
 1037loPI    C315911  17.335  16.309   4.446  0.0077 -0.0785 -0.0426
 1037loPI   PO415912  17.444  16.825   4.821  0.1911  0.1433  0.0518
 1037loPI   GL115913  17.461  16.975   5.207  0.0191  0.1073 -0.0476
 1037loPI   GL215914  17.597  16.707   5.323  0.2519 -0.0266  0.1680
 1037loPI   C1A15915  17.371  17.313   5.541  0.0970 -0.2639 -0.0713
 1037loPI   C2A15916  17.427  17.406   5.952 -0.0178  0.1210 -0.0164
 1037loPI   C3A15917  17.321  17.376   6.386 -0.2451  0.2989  0.1000
 1037loPI   C4A15918  17.286  17.286   6.730 -0.0449 -0.2215 -0.2427
 1037loPI   C5A15919  17.569  17.131   6.991  0.3260 -0.1186 -0.1577
 1037loPI   C6A15920  17.649  17.000   7.317 -0.0872 -0.0267 -0.1988
 1037loPI   C1B15921  17.548  16.790   5.708 -0.2139  0.4797  0.2141
 1037loPI   C2B15922  17.615  16.900   6.157  0.0640 -0.1274  0.1411
 1037loPI   C3B15923  17.688  16.956   6.538  0.0651  0.1618 -0.0549
 1037loPI   C4B15924  18.022  16.801   6.937  0.3601  0.1039 -0.0899
 1038loPI    C115925   0.613   7.877   5.320  0.1105  0.0842 -0.0458
 1038loPI    C215926   0.300   7.816   5.078  0.0559 -0.2310  0.0987
 1038loPI    C315927   0.672   7.791   4.934  0.0198  0.2246 -0.0919
 1038loPI   PO415928   0.463   7.821   5.537 -0.2207  0.3334  0.1055
 1038loPI   GL115929   0.141   7.807   5.865  0.2260  0.0943 -0.2093
 1038loPI   GL215930   0.185   8.142   6.002  0.3096  0.4127  0.0506
 1038loPI   C1A15931   0.162   7.680   6.325  0.1142  0.0254  0.1864
 1038loPI   C2A15932   0.162   7.360   6.593  0.2053 -0.2335 -0.2578
 1038loPI   C3A15933   0.135   7.060   6.801 -0.0746  0.1225 -0.0975
 1038loPI   C4A15934   0.072   6.659   6.740  0.3202 -0.0714  0.2657
 1038loPI   C5A15935  -0.001   6.120   6.989  0.0410  0.0124 -0.0725
 1038loPI   C6A15936   0.067   5.982   7.405 -0.1982  0.0901  0.4194
 1038loPI   C1B15937   0.324   8.344   6.283 -0.1618 -0.0721  0.1114
 1038loPI   C2B15938   0.389   8.311   6.712  0.2064  0.0695  0.2080
 1038loPI   C3B15939   0.476   8.427   7.141 -0.0448 -0.1040 -0.1795
 1038loPI   C4B15940   0.760   8.740   7.295  0.0994 -0.0046  0.1757
 1039loPI    C115941  12.903  10.585   5.018 -0.1376  0.1540  0.4488
 1039loPI    C215942  12.779  10.424   4.673  0.4643  0.1162  0.2388
 1039loPI    C315943  12.586  10.738   4.828  0.2045  0.1531 -0.1474
 1039loPI   PO415944  12.915  10.361   5.253 -0.3620  0.2185 -0.1950
 1039loPI   GL115945  12.709  10.217   5.660 -0.0146  0.1886 -0.0297
 1039loPI   GL215946  12.491  10.028   5.572  0.0192  0.2232  0.3495
 1039loPI   C1A15947  13.011  10.158   5.919  0.1368  0.1777 -0.2027
 1039loPI   C2A15948  13.060  10.251   6.374 -0.0444 -0.0939  0.3874
 1039loPI   C3A15949  13.011  10.333   6.835  0.1058  0.3057  0.2308
 1039loPI   C4A15950  13.028  10.351   7.211 -0.3065  0.1629  0.0489
 1039loPI   C5A15951  13.219  10.395   7.576  0.0582  0.1502  0.2627
 1039loPI   C6A15952  13.568  10.418   7.817 -0.2612  0.1590 -0.0580
 1039loPI   C1B15953  12.534   9.929   6.061 -0.0232  0.0171  0.2779
 1039loPI   C2B15954  12.695   9.939   6.497 -0.3146 -0.1794  0.0606
 1039loPI   C3B15955  12.729   9.890   6.875  0.1382 -0.2175 -0.2726
 1039loPI   C4B15956  12.950   9.883   7.228 -0.3788 -0.1116  0.0852
 1040loPI    C115957  11.973   0.327   5.068  0.1316  0.1316 -0.2912
 1040loPI    C215958  12.122   0.002   4.890  0.4008  0.1462 -0.0981
 1040loPI    C315959  11.827   0.208   4.715 -0.1333 -0.4885  0.0120
 1040loPI   PO415960  12.247   0.413   5.158  0.1030 -0.0169  0.4068
 1040loPI   GL115961  12.276   0.357   5.589  0.1994 -0.1519 -0.2966
 1040loPI   GL215962  12.027   0.666   5.654 -0.1003  0.1553  0.3250
 1040loPI   C1A15963  12.581   0.202   5.735  0.5061  0.0631  0.0871
 1040loPI   C2A15964  12.742   0.395   6.141 -0.1639  0.2762  0.1037
 1040loPI   C3A15965  12.722   0.553   6.625 -0.3428 -0.1950  0.0831
 1040loPI   C4A15966  12.655   0.550   7.025 -0.0018 -0.0533  0.1495
 1040loPI   C5A15967  12.529   0.235   7.307 -0.0199 -0.1424 -0.0169
 1040loPI   C6A15968  12.387  -0.344   7.111  0.1286  0.0490 -0.0174
 1040loPI   C1B15969  11.724   0.915   5.849 -0.0219 -0.1973  0.0912
 1040loPI   C2B15970  11.549   1.243   6.067 -0.1089  0.0097 -0.1121
 1040loPI   C3B15971  11.496   1.296   6.478  0.0302  0.3363  0.0114
 1040loPI   C4B15972  11.264   1.449   7.000  0.0543  0.1742  0.0241
 1041loPI    C115973   7.164   7.881   4.831 -0.0929 -0.3506 -0.0361
 1041loPI    C215974   6.834   8.058   4.690  0.0049 -0.0864  0.0597
 1041loPI    C315975   7.006   7.762   4.483 -0.0502  0.0612 -0.2020
 1041loPI   PO415976   7.092   7.915   5.065  0.0312  0.0647 -0.2871
 1041loPI   GL115977   6.905   8.061   5.531  0.1149 -0.0213  0.2095
 1041loPI   GL215978   6.850   7.757   5.746  0.0263 -0.4235  0.1045
 1041loPI   C1A15979   6.612   8.231   5.780 -0.0300 -0.1774  0.0803
 1041loPI   C2A15980   6.639   8.469   6.274 -0.1487 -0.1797 -0.2372
 1041loPI   C3A15981   6.548   8.540   6.662  0.3139 -0.0634  0.0337
 1041loPI   C4A15982   6.553   8.584   7.118  0.2166  0.1717  0.0908
 1041loPI   C5A15983   6.939   8.521   7.446 -0.1643  0.2655  0.3143
 1041loPI   C6A15984   7.303   8.580   7.675 -0.0619 -0.2803  0.0896
 1041loPI   C1B15985   7.199   7.678   6.049  0.3172 -0.3388 -0.1899
 1041loPI   C2B15986   7.313   7.670   6.406  0.0191  0.1171  0.1277
 1041loPI   C3B15987   7.301   7.723   6.775  0.0909 -0.3279  0.0182
 1041loPI   C4B15988   7.138   7.644   7.175 -0.2302 -0.1547 -0.0632
 1042loPI    C115989   3.190   5.097   4.713  0.1122 -0.2791  0.0120
 1042loPI    C215990   2.828   5.018   4.560  0.1364 -0.1552 -0.1113
 1042loPI    C315991   3.151   5.014   4.323  0.1257  0.4133 -0.1496
 1042loPI   PO415992   3.192   5.255   4.882  0.0047  0.0948 -0.0368
 1042loPI   GL115993   3.164   5.218   5.385  0.1086  0.1551  0.2025
 1042loPI   GL215994   3.439   5.259   5.366  0.0200 -0.2267 -0.2608
 1042loPI   C1A15995   3.210   5.141   5.828  0.0197 -0.0013  0.1250
 1042loPI   C2A15996   3.212   5.106   6.254  0.0109 -0.4427  0.0078
 1042loPI   C3A15997   3.039   5.328   6.612  0.1349  0.2104 -0.2123
 1042loPI   C4A15998   2.804   5.300   6.987 -0.2809  0.2327 -0.2530
 1042loPI   C5A15999   2.618   5.502   7.315 -0.0161 -0.0064 -0.0835
 1042loPI   C6A16000   2.447   5.587   7.671  0.0215  0.1096 -0.0324
 1042loPI   C1B16001   3.708   5.274   5.704  0.1963  0.0839 -0.0971
 1042loPI   C2B16002   3.763   5.412   6.109 -0.0191  0.0009 -0.2687
 1042loPI   C3B16003   3.639   5.378   6.572 -0.4396  0.0149 -0.0072
 1042loPI   C4B16004   3.378   5.360   6.959  0.1018  0.0395 -0.3744
 1043loPI    C116005   9.881   0.877   4.550 -0.2847 -0.0874 -0.1108
 1043loPI    C216006  10.196   0.997   4.335 -0.1148 -0.0188  0.1718
 1043loPI    C316007   9.825   1.064   4.201 -0.0122  0.0579 -0.0788
 1043loPI   PO416008   9.959   0.962   4.794  0.0288 -0.1404  0.0130
 1043loPI   GL116009   9.690   0.893   5.201  0.0156 -0.1115  0.0857
 1043loPI   GL216010   9.983   1.057   5.341 -0.0013 -0.0005 -0.1148
 1043loPI   C1A16011   9.597   0.800   5.590  0.1129 -0.1645  0.1424
 1043loPI   C2A16012   9.598   0.694   6.018 -0.0565 -0.0133 -0.1054
 1043loPI   C3A16013   9.833   0.521   6.303 -0.1961 -0.4690  0.0992
 1043loPI   C4A16014  10.058   0.296   6.627  0.0025 -0.5623  0.3556
 1043loPI   C5A16015  10.420   0.424   7.015 -0.0079 -0.0021 -0.1302
 1043loPI   C6A16016  10.715   0.354   7.333  0.0879  0.1032  0.1089
 1043loPI   C1B16017   9.954   1.108   5.764 -0.1843  0.0251  0.0734
 1043loPI   C2B16018   9.873   1.064   6.233  0.2290  0.1777  0.2491
 1043loPI   C3B16019   9.882   0.837   6.623  0.1491  0.0567 -0.0050
 1043loPI   C4B16020  10.044   0.829   6.982 -0.0232  0.0375 -0.0386
 1044loPI    C116021   1.853  12.938   5.208  0.0756  0.3444 -0.1028
 1044loPI    C216022   1.562  12.894   5.479  0.1661  0.0426 -0.0512
 1044loPI    C316023   1.508  13.135   5.164 -0.0905  0.0871  0.0247
 1044loPI   PO416024   2.066  12.795   5.379  0.0191 -0.1037 -0.4691
 1044loPI   GL116025   2.113  12.667   5.799 -0.3246  0.0202  0.3447
 1044loPI   GL216026   2.001  12.970   5.890  0.1927  0.2476  0.1057
 1044loPI   C1A16027   2.106  12.216   6.021  0.2788  0.2822 -0.1243
 1044loPI   C2A16028   2.029  12.214   6.484 -0.2704  0.1440 -0.1469
 1044loPI   C3A16029   2.202  12.138   7.002  0.3462  0.0395 -0.1382
 1044loPI   C4A16030   2.155  11.992   7.386  0.1160  0.1986 -0.0702
 1044loPI   C5A16031   1.804  11.751   7.439  0.0724 -0.1750  0.1074
 1044loPI   C6A16032   1.440  11.662   7.593  0.1118 -0.0499 -0.2413
 1044loPI   C1B16033   1.896  13.342   6.104 -0.1234 -0.0366  0.1482
 1044loPI   C2B16034   1.803  13.555   6.467  0.2118  0.1962 -0.0497
 1044loPI   C3B16035   1.650  13.502   6.911  0.0022 -0.3059  0.2624
 1044loPI   C4B16036   1.422  13.561   7.300  0.0035  0.1629  0.1039
 1045loPI    C116037   6.588  10.384   4.923  0.1043 -0.2569 -0.1765
 1045loPI    C216038   6.924  10.504   4.742  0.1160  0.0269  0.0278
 1045loPI    C316039   6.634  10.768   4.822 -0.0112 -0.1506  0.1602
 1045loPI   PO416040   6.541  10.118   4.979  0.2664  0.0503 -0.0622
 1045loPI   GL116041   6.669   9.983   5.469 -0.1978 -0.1195  0.2437
 1045loPI   GL216042   6.762   9.608   5.619 -0.0191  0.0541 -0.0303
 1045loPI   C1A16043   6.718  10.196   5.929  0.0645  0.2218 -0.2150
 1045loPI   C2A16044   6.763  10.091   6.371 -0.0498  0.0115 -0.0830
 1045loPI   C3A16045   6.739  10.300   6.775  0.0631  0.2765 -0.2968
 1045loPI   C4A16046   6.796  10.417   7.104 -0.1041  0.1118  0.2060
 1045loPI   C5A16047   6.822  10.318   7.484 -0.3056  0.4746 -0.2526
 1045loPI   C6A16048   7.097  10.223   7.827 -0.2162  0.1299 -0.1866
 1045loPI   C1B16049   6.927   9.454   5.814  0.3847 -0.1567  0.0525
 1045loPI   C2B16050   7.065   9.564   6.243  0.1303  0.0621  0.1741
 1045loPI   C3B16051   7.295   9.719   6.643 -0.0725 -0.0052 -0.2423
 1045loPI   C4B16052   7.532   9.920   6.936 -0.2155  0.0223  0.2477
 1046loPI    C116053  15.838  12.146   5.043 -0.1463  0.3292  0.1071
 1046loPI    C216054  15.440  12.114   5.069 -0.1191 -0.0502  0.1140
 1046loPI    C316055  15.604  12.330   4.775 -0.3294  0.1637  0.1508
 1046loPI   PO416056  15.897  12.211   5.278  0.2498 -0.2760 -0.0119
 1046loPI   GL116057  15.733  12.152   5.658 -0.0666 -0.0930 -0.2569
 1046loPI   GL216058  15.481  12.031   5.714  0.0444  0.0004  0.0454
 1046loPI   C1A16059  15.824  12.461   6.003  0.1288 -0.0598 -0.0399
 1046loPI   C2A16060  16.021  12.419   6.435  0.0572 -0.2628  0.2755
 1046loPI   C3A16061  16.232  12.582   6.855 -0.2327 -0.1724 -0.0778
 1046loPI   C4A16062  16.430  13.051   6.913 -0.0089  0.2118 -0.0178
 1046loPI   C5A16063  16.085  13.474   6.883 -0.1858  0.1662  0.2184
 1046loPI   C6A16064  15.809  13.825   6.683  0.0734  0.0393  0.0299
 1046loPI   C1B16065  15.340  12.369   6.025 -0.1107 -0.2270  0.4336
 1046loPI   C2B16066  15.210  12.422   6.427  0.3203 -0.3737 -0.0091
 1046loPI   C3B16067  15.037  12.547   6.860  0.2335  0.0297 -0.0379
 1046loPI   C4B16068  15.118  12.437   7.396 -0.0640 -0.1959  0.1504
 1047loPI    C116069   8.126   7.852   5.086 -0.0910  0.0193  0.0353
 1047loPI    C216070   7.990   8.009   4.744  0.0665 -0.0683 -0.0690
 1047loPI    C316071   8.284   8.192   4.945  0.1097 -0.1211 -0.0839
 1047loPI   PO416072   7.948   7.810   5.363 -0.0871  0.0969  0.0841
 1047loPI   GL116073   7.809   8.101   5.660 -0.1734  0.0100  0.1250
 1047loPI   GL216074   8.030   8.195   5.845  0.0328  0.4224  0.1509
 1047loPI   C1A16075   7.700   7.738   5.994  0.0770  0.0245 -0.0458
 1047loPI   C2A16076   7.930   7.592   6.351 -0.2569  0.0652 -0.3866
 1047loPI   C3A16077   7.885   7.572   6.756 -0.0621 -0.3519 -0.3404
 1047loPI   C4A16078   8.029   7.719   7.194  0.0423  0.0675 -0.1618
 1047loPI   C5A16079   8.118   8.073   7.479  0.2816  0.0168 -0.0075
 1047loPI   C6A16080   8.217   8.435   7.760  0.3890 -0.0456  0.1012
 1047loPI   C1B16081   7.960   8.314   6.246  0.2066  0.0438  0.1333
 1047loPI   C2B16082   7.700   8.474   6.544 -0.0268 -0.1979  0.0444
 1047loPI   C3B16083   7.387   8.388   6.819  0.0828  0.3115  0.0693
 1047loPI   C4B16084   7.403   8.296   7.263  0.0959  0.0209  0.0895
 1048loPI    C116085  10.139  18.624   4.726 -0.0436 -0.1190  0.0645
 1048loPI    C216086  10.291  18.682   4.360 -0.0859 -0.1791  0.0374
 1048loPI    C316087  10.050  18.370   4.430  0.0384 -0.2505  0.1519
 1048loPI   PO416088  10.301  18.643   4.844  0.2356 -0.0017  0.2034
 1048loPI   GL116089  10.353  18.587   5.280 -0.1511  0.4270  0.1926
 1048loPI   GL216090  10.201  18.814   5.411  0.2925 -0.0960  0.0986
 1048loPI   C1A16091  10.717  18.761   5.567  0.0366  0.3247  0.1040
 1048loPI   C2A16092  10.910  18.828   5.970  0.2805 -0.2062 -0.1565
 1048loPI   C3A16093  11.095  18.806   6.385 -0.1227 -0.0057  0.0589
 1048loPI   C4A16094  11.397  18.753   6.725  0.0123 -0.0323  0.0533
 1048loPI   C5A16095  11.515  18.417   7.013  0.1658 -0.4176 -0.0357
 1048loPI   C6A16096  11.742  18.137   7.253  0.0823 -0.1398 -0.1586
 1048loPI   C1B16097  10.377  18.559   5.832  0.1669 -0.4380 -0.1715
 1048loPI   C2B16098  10.234  18.565   6.330 -0.2705  0.5789  0.3302
 1048loPI   C3B16099  10.272  18.603   6.761 -0.3232 -0.3148 -0.1294
 1048loPI   C4B16100  10.553  18.490   7.186  0.1782 -0.2638 -0.1829
 1049loPI    C116101  13.562   5.637   4.691 -0.2153 -0.0754 -0.1796
 1049loPI    C216102  13.785   5.962   4.621 -0.0202 -0.0912  0.3221
 1049loPI    C316103  13.887   5.611   4.459 -0.0972  0.0443 -0.0300
 1049loPI   PO416104  13.514   5.685   5.054  0.3886  0.3564 -0.2038
 1049loPI   GL116105  13.262   5.926   5.314 -0.1314  0.3783  0.0380
 1049loPI   GL216106  12.993   6.128   5.428  0.1817 -0.0987 -0.0735
 1049loPI   C1A16107  13.176   5.686   5.700  0.0729 -0.0530 -0.2581
 1049loPI   C2A16108  12.853   5.554   6.123  0.1003  0.1938 -0.3007
 1049loPI   C3A16109  12.666   5.347   6.451 -0.0641 -0.1078  0.0893
 1049loPI   C4A16110  12.466   5.458   6.814  0.4843  0.1612 -0.0332
 1049loPI   C5A16111  12.328   5.745   7.122 -0.0869 -0.0269  0.3613
 1049loPI   C6A16112  12.537   6.147   7.304  0.0205  0.0277  0.0095
 1049loPI   C1B16113  12.744   6.001   5.749 -0.1951 -0.0234  0.1226
 1049loPI   C2B16114  12.746   6.326   6.086  0.1282  0.0411  0.0691
 1049loPI   C3B16115  12.809   6.423   6.494  0.0010  0.1410  0.0547
 1049loPI   C4B16116  12.777   6.505   6.936  0.0784  0.0227 -0.1046
 1050loPI    C116117   1.873   3.664   4.467  0.0220 -0.0529  0.3063
 1050loPI    C216118   1.660   3.330   4.521 -0.0704 -0.0209  0.1476
 1050loPI    C316119   2.052   3.307   4.445 -0.1236 -0.1059 -0.1104
 1050loPI   PO416120   1.863   3.787   4.717 -0.0593  0.1120  0.4640
 1050loPI   GL116121   2.085   3.899   5.155 -0.2356 -0.2536  0.2718
 1050loPI   GL216122   2.083   4.152   5.132 -0.0046 -0.0674  0.3931
 1050loPI   C1A16123   2.001   3.821   5.592  0.0049  0.2578 -0.1353
 1050loPI   C2A16124   1.969   3.670   6.055  0.2217 -0.1277  0.0641
 1050loPI   C3A16125   2.108   3.730   6.504 -0.0155  0.2249  0.1008
 1050loPI   C4A16126   1.971   3.960   6.890  0.2193 -0.3302  0.1895
 1050loPI   C5A16127   1.612   3.805   7.139  0.1903 -0.0364 -0.2441
 1050loPI   C6A16128   1.397   3.788   7.476 -0.6308 -0.0981  0.0447
 1050loPI   C1B16129   2.051   4.320   5.506 -0.0107 -0.0147  0.0116
 1050loPI   C2B16130   1.857   4.209   5.971 -0.1768 -0.0131  0.0144
 1050loPI   C3B16131   1.871   4.233   6.433 -0.0396 -0.0596  0.1033
 1050loPI   C4B16132   1.776   4.417   6.736 -0.1337  0.0926 -0.0253
 1051loPI    C116133  12.073   6.539   4.787  0.0657  0.2309  0.2761
 1051loPI    C216134  12.175   6.879   4.973  0.0811  0.2337  0.2627
 1051loPI    C316135  12.220   6.847   4.576  0.1139  0.2031  0.2688
 1051loPI   PO416136  12.109   6.362   5.062 -0.2871  0.0083  0.1454
 1051loPI   GL116137  12.082   6.435   5.548  0.1474  0.1142 -0.2044
 1051loPI   GL216138  11.791   6.638   5.683  0.1844  0.0895 -0.1694
 1051loPI   C1A16139  12.209   6.303   5.866 -0.0142 -0.1070  0.1438
 1051loPI   C2A16140  12.233   6.319   6.326 -0.1228 -0.1043 -0.0387
 1051loPI   C3A16141  12.368   6.645   6.462 -0.2909  0.0913 -0.0389
 1051loPI   C4A16142  12.376   7.072   6.472 -0.0335 -0.0308 -0.2584
 1051loPI   C5A16143  12.359   7.270   6.921 -0.0594  0.1923 -0.2178
 1051loPI   C6A16144  12.260   7.083   7.376  0.1922  0.0923  0.1465
 1051loPI   C1B16145  11.527   6.769   6.068  0.0072 -0.1841 -0.0114
 1051loPI   C2B16146  11.441   6.582   6.480 -0.3544 -0.0461 -0.0086
 1051loPI   C3B16147  11.352   6.266   6.849  0.0018 -0.0229 -0.2218
 1051loPI   C4B16148  11.438   5.776   6.951 -0.2273 -0.4496 -0.1947
 1052loPI    C116149   8.539   7.514   5.255  0.0087  0.1669 -0.0510
 1052loPI    C216150   8.191   7.351   5.144  0.1003  0.0169 -0.1205
 1052loPI    C316151   8.447   7.486   4.867  0.1002  0.1221 -0.0698
 1052loPI   PO416152   8.432   7.665   5.474  0.2442  0.2339  0.0137
 1052loPI   GL116153   8.095   7.561   5.768 -0.1533 -0.0189  0.0441
 1052loPI   GL216154   8.164   7.239   5.589 -0.0415  0.0010 -0.1387
 1052loPI   C1A16155   8.383   7.466   6.071 -0.0063 -0.0633  0.1227
 1052loPI   C2A16156   8.430   7.323   6.484  0.0237 -0.2266  0.1583
 1052loPI   C3A16157   8.217   7.165   6.774 -0.4580  0.3917  0.1209
 1052loPI   C4A16158   8.094   7.209   7.151  0.1364  0.0712 -0.0112
 1052loPI   C5A16159   8.120   7.339   7.523  0.2084 -0.1375  0.3717
 1052loPI   C6A16160   7.999   7.687   7.713 -0.2321  0.4132 -0.1181
 1052loPI   C1B16161   8.207   7.003   5.938 -0.4441  0.0311  0.0647
 1052loPI   C2B16162   8.039   6.889   6.341  0.0724 -0.1449 -0.3114
 1052loPI   C3B16163   7.806   6.737   6.641  0.2927  0.2069 -0.2429
 1052loPI   C4B16164   7.461   6.558   7.009 -0.0308  0.1412 -0.0487
 1053loPI    C116165   7.153   8.420   4.829  0.0622 -0.0577  0.3172
 1053loPI    C216166   7.454   8.658   4.943  0.0452  0.0195  0.2039
 1053loPI    C316167   7.531   8.293   4.799  0.0973  0.1077  0.0045
 1053loPI   PO416168   6.928   8.387   5.143 -0.0743 -0.3368 -0.1886
 1053loPI   GL116169   6.539   8.500   5.304 -0.0928 -0.3119 -0.2948
 1053loPI   GL216170   6.718   8.642   5.518  0.2934 -0.2041  0.2442
 1053loPI   C1A16171   6.190   8.365   5.668 -0.0592  0.2592  0.2159
 1053loPI   C2A16172   6.221   8.224   6.080  0.0361 -0.4340 -0.0692
 1053loPI   C3A16173   6.307   8.135   6.485 -0.0818 -0.1458  0.1672
 1053loPI   C4A16174   6.545   7.984   6.804 -0.3306 -0.2606 -0.2311
 1053loPI   C5A16175   6.739   7.627   6.926  0.0714 -0.0431 -0.1337
 1053loPI   C6A16176   6.586   7.158   6.981  0.2095  0.3370 -0.2368
 1053loPI   C1B16177   6.869   8.715   5.854 -0.1672 -0.0353 -0.2638
 1053loPI   C2B16178   6.859   8.967   6.079  0.1513  0.0341  0.2680
 1053loPI   C3B16179   6.935   9.116   6.420  0.1788  0.0835 -0.3483
 1053loPI   C4B16180   7.140   9.223   6.777 -0.5335 -0.2934 -0.0913
 1054loPI    C116181   8.927  17.611   5.064  0.0560 -0.0931  0.0048
 1054loPI    C216182   9.083  17.398   4.764 -0.1473 -0.0618 -0.1249
 1054loPI    C316183   8.719  17.561   4.726 -0.2421 -0.1903  0.1974
 1054loPI   PO416184   8.926  17.483   5.325 -0.0752 -0.0580  0.2106
 1054loPI   GL116185   9.073  17.168   5.632  0.4758  0.1408  0.2167
 1054loPI   GL216186   9.228  17.507   5.790  0.2556  0.1378  0.1053
 1054loPI   C1A16187   9.164  17.061   6.044  0.2433 -0.1123 -0.1073
 1054loPI   C2A16188   9.064  17.172   6.491  0.2210 -0.2077 -0.0851
 1054loPI   C3A16189   9.135  17.456   6.820 -0.4544 -0.0772 -0.1380
 1054loPI   C4A16190   9.247  17.477   7.176 -0.1802  0.1313 -0.0964
 1054loPI   C5A16191   9.565  17.701   7.223 -0.2344 -0.1284  0.1351
 1054loPI   C6A16192   9.679  18.065   7.234  0.1711  0.1083 -0.2070
 1054loPI   C1B16193   8.993  17.944   5.766  0.0390  0.1547  0.0643
 1054loPI   C2B16194   8.628  18.213   5.724 -0.1754  0.2351  0.3256
 1054loPI   C3B16195   8.356  18.413   5.992 -0.0678 -0.0674 -0.3048
 1054loPI   C4B16196   8.475  18.858   6.182 -0.2227 -0.2154 -0.0125
 1055loPI    C116197   7.444   2.971   4.757  0.1186  0.0585  0.2223
 1055loPI    C216198   7.240   3.156   4.467 -0.0956 -0.4396  0.0452
 1055loPI    C316199   7.599   2.996   4.390  0.0818 -0.1215  0.1936
 1055loPI   PO416200   7.487   3.101   5.041 -0.3217 -0.0491 -0.0491
 1055loPI   GL116201   7.307   3.245   5.520 -0.1378 -0.0534 -0.1842
 1055loPI   GL216202   7.277   2.947   5.438 -0.0890  0.1140 -0.2380
 1055loPI   C1A16203   7.224   3.033   5.944 -0.3190  0.2179  0.1186
 1055loPI   C2A16204   7.361   2.970   6.326  0.0757  0.1065 -0.1190
 1055loPI   C3A16205   7.262   2.675   6.657 -0.0222  0.1785 -0.1127
 1055loPI   C4A16206   7.261   2.467   7.074  0.4225  0.1914  0.0038
 1055loPI   C5A16207   6.912   2.507   7.387 -0.0858 -0.0976  0.0650
 1055loPI   C6A16208   6.664   2.517   7.713  0.2602  0.1824 -0.0080
 1055loPI   C1B16209   7.234   2.608   5.745  0.1224 -0.1077 -0.1835
 1055loPI   C2B16210   7.168   2.494   6.172  0.2154 -0.0891  0.1309
 1055loPI   C3B16211   7.214   2.226   6.476 -0.3174 -0.2536  0.2913
 1055loPI   C4B16212   7.213   1.954   6.714 -0.1470  0.2317 -0.2546
 1056loPI    C116213   0.160  13.975   4.684  0.0543 -0.2882  0.0049
 1056loPI    C216214  -0.164  13.746   4.732 -0.1174  0.0201  0.3838
 1056loPI    C316215   0.171  13.590   4.577 -0.4164 -0.3227  0.0620
 1056loPI   PO416216   0.094  14.131   4.956  0.2272  0.2236 -0.0421
 1056loPI   GL116217   0.182  14.009   5.382  0.2811 -0.2010 -0.2840
 1056loPI   GL216218   0.156  14.340   5.622  0.0352 -0.3370  0.0525
 1056loPI   C1A16219   0.169  13.657   5.663  0.0290  0.0772  0.3179
 1056loPI   C2A16220   0.130  13.681   6.105 -0.1417 -0.1065 -0.0821
 1056loPI   C3A16221   0.266  13.568   6.474  0.0964  0.0143 -0.0082
 1056loPI   C4A16222   0.005  13.702   6.851 -0.2425  0.0391 -0.0243
 1056loPI   C5A16223   0.074  13.575   7.291 -0.2690  0.1764  0.2615
 1056loPI   C6A16224   0.370  13.545   7.508 -0.2028  0.0566  0.2598
 1056loPI   C1B16225   0.305  14.494   6.054 -0.0619 -0.0415 -0.1136
 1056loPI   C2B16226   0.349  14.617   6.547  0.1007  0.2000  0.1841
 1056loPI   C3B16227   0.770  14.587   6.673 -0.2854  0.1884 -0.0325
 1056loPI   C4B16228   1.014  14.698   7.143  0.2165  0.2145 -0.1107
 1057loPI    C116229  12.336  16.971   4.956 -0.3429  0.2168 -0.0808
 1057loPI    C216230  12.315  16.885   5.346 -0.1747  0.2287 -0.0681
 1057loPI    C316231  12.011  16.790   5.104 -0.1621 -0.0363  0.0159
 1057loPI   PO416232  12.584  16.804   4.894 -0.1136  0.1621  0.1797
 1057loPI   GL116233  12.951  17.038   4.982 -0.2166  0.1022  0.0453
 1057loPI   GL216234  13.221  17.277   5.066 -0.1442 -0.0295  0.1884
 1057loPI   C1A16235  12.808  17.244   5.342  0.1760  0.0553 -0.0868
 1057loPI   C2A16236  12.833  17.513   5.666  0.0556  0.1719  0.0373
 1057loPI   C3A16237  12.714  17.627   6.137  0.0348  0.1078  0.3492
 1057loPI   C4A16238  12.913  17.736   6.643  0.0854 -0.1155 -0.1880
 1057loPI   C5A16239  12.879  17.542   7.089 -0.0431 -0.2998 -0.2103
 1057loPI   C6A16240  12.492  17.480   7.384 -0.0189  0.0904  0.0340
 1057loPI   C1B16241  13.314  17.333   5.509  0.1190  0.1266  0.1114
 1057loPI   C2B16242  13.536  17.333   5.968  0.1898 -0.0114  0.0520
 1057loPI   C3B16243  13.760  17.100   6.297  0.1124  0.0917  0.3550
 1057loPI   C4B16244  13.943  17.026   6.622  0.2616  0.4156  0.2070
 1058loPI    C116245  15.505  15.741   4.862  0.0665  0.1733  0.1087
 1058loPI    C216246  15.564  15.744   4.466  0.0167  0.0347  0.0994
 1058loPI    C316247  15.460  16.081   4.656 -0.1509  0.0597 -0.0347
 1058loPI   PO416248  15.721  15.684   5.006  0.3601  0.1146  0.2930
 1058loPI   GL116249  15.863  15.467   5.457  0.2223 -0.1163 -0.1246
 1058loPI   GL216250  16.190  15.339   5.333 -0.1130  0.2257 -0.5053
 1058loPI   C1A16251  15.736  15.540   5.838  0.4998  0.2567  0.2613
 1058loPI   C2A16252  15.612  15.465   6.310  0.0799  0.1898  0.2446
 1058loPI   C3A16253  15.684  15.414   6.828  0.0673 -0.1841 -0.0439
 1058loPI   C4A16254  15.713  15.311   7.336  0.0698 -0.0376  0.0917
 1058loPI   C5A16255  15.606  15.118   7.655 -0.3040  0.1242 -0.0080
 1058loPI   C6A16256  15.283  14.941   7.982 -0.1990 -0.0295 -0.2620
 1058loPI   C1B16257  16.056  15.174   5.740  0.2179  0.2664  0.0958
 1058loPI   C2B16258  15.952  15.071   6.109  0.1931  0.0181  0.0167
 1058loPI   C3B16259  15.931  14.944   6.666 -0.4448 -0.2197  0.2132
 1058loPI   C4B16260  15.848  14.713   6.982 -0.3159  0.3077 -0.0303
 1059loPI    C116261  14.470   1.444   4.527  0.0679 -0.0117 -0.0253
 1059loPI    C216262  14.239   1.767   4.482  0.0165 -0.0429  0.0129
 1059loPI    C316263  14.454   1.720   4.816  0.0241 -0.0482  0.0073
 1059loPI   PO416264  14.260   1.206   4.557 -0.0717  0.1192 -0.2552
 1059loPI   GL116265  14.099   1.372   4.968  0.0064 -0.0718 -0.3869
 1059loPI   GL216266  13.883   1.361   5.157 -0.1311 -0.0623  0.1230
 1059loPI   C1A16267  14.358   1.536   5.306  0.2932 -0.3091 -0.0947
 1059loPI   C2A16268  14.331   1.443   5.730 -0.1436  0.0715  0.0717
 1059loPI   C3A16269  14.359   1.298   6.166 -0.2138 -0.2752 -0.1201
 1059loPI   C4A16270  14.408   1.384   6.706 -0.4289  0.1308 -0.0419
 1059loPI   C5A16271  14.658   1.561   7.056  0.1140  0.1899  0.2073
 1059loPI   C6A16272  14.801   1.950   7.301 -0.2405 -0.0042  0.1337
 1059loPI   C1B16273  13.813   1.284   5.600  0.1088 -0.1448 -0.2496
 1059loPI   C2B16274  13.776   1.259   6.009  0.1334  0.0467  0.0682
 1059loPI   C3B16275  13.855   1.238   6.403  0.3654 -0.2350 -0.3923
 1059loPI   C4B16276  13.886   1.216   6.891 -0.1035 -0.1038 -0.1683
 1060loPI    C116277   6.582   1.103   4.802  0.0993 -0.1465 -0.0450
 1060loPI    C216278   6.441   1.066   4.429  0.0806 -0.3087 -0.0225
 1060loPI    C316279   6.774   1.278   4.497  0.0018 -0.1550 -0.1115
 1060loPI   PO416280   6.304   0.956   4.882 -0.3373 -0.1533  0.3860
 1060loPI   GL116281   6.020   0.909   5.192 -0.3034 -0.1637 -0.0003
 1060loPI   GL216282   5.947   0.663   5.369 -0.1054 -0.0975  0.0851
 1060loPI   C1A16283   6.136   1.238   5.572  0.1667  0.1391  0.1944
 1060loPI   C2A16284   6.288   0.991   5.970 -0.0516 -0.1608  0.2242
 1060loPI   C3A16285   6.522   0.844   6.253  0.0646 -0.1367 -0.2396
 1060loPI   C4A16286   6.573   0.645   6.755  0.1161 -0.2473  0.0316
 1060loPI   C5A16287   6.467   0.707   7.172 -0.1270 -0.1371  0.1434
 1060loPI   C6A16288   6.292   0.732   7.578 -0.2264  0.0647  0.0707
 1060loPI   C1B16289   6.067   0.588   5.783  0.3734  0.1036 -0.4188
 1060loPI   C2B16290   6.130   0.471   6.179 -0.2011 -0.0413 -0.3181
 1060loPI   C3B16291   6.207   0.334   6.550 -0.1643  0.1078 -0.0600
 1060loPI   C4B16292   5.850   0.170   6.751  0.0832  0.2253 -0.0342
 1061loPI    C116293   3.810   7.202   4.551  0.0183 -0.2892  0.1896
 1061loPI    C216294   3.485   7.228   4.783 -0.1131 -0.1949 -0.0023
 1061loPI    C316295   3.446   7.202   4.386  0.1201  0.0780 -0.0461
 1061loPI   PO416296   3.973   6.942   4.794 -0.3030 -0.0237 -0.1771
 1061loPI   GL116297   3.993   6.906   5.228 -0.2165 -0.0741 -0.0899
 1061loPI   GL216298   3.761   7.136   5.204 -0.0562 -0.1849  0.0258
 1061loPI   C1A16299   4.147   7.079   5.614 -0.0018 -0.0760  0.0463
 1061loPI   C2A16300   4.302   7.102   6.118 -0.1050  0.0518  0.5016
 1061loPI   C3A16301   4.385   7.258   6.475 -0.0775  0.0063 -0.0710
 1061loPI   C4A16302   4.522   7.438   6.897 -0.1806 -0.1285 -0.1037
 1061loPI   C5A16303   4.439   7.838   7.205  0.0284 -0.1296  0.3952
 1061loPI   C6A16304   4.324   7.842   7.547  0.1842 -0.0071 -0.0945
 1061loPI   C1B16305   3.551   7.358   5.567  0.1863 -0.2347  0.1511
 1061loPI   C2B16306   3.348   7.458   5.885  0.0665 -0.0773 -0.2176
 1061loPI   C3B16307   3.138   7.650   6.220  0.2869  0.1625  0.0190
 1061loPI   C4B16308   2.921   7.569   6.571  0.0627  0.0699 -0.0331
 1062loPI    C116309  16.334   1.863   4.786 -0.1162  0.1830 -0.0629
 1062loPI    C216310  16.502   1.754   4.440  0.0037  0.0502  0.0359
 1062loPI    C316311  16.361   1.476   4.690  0.1872  0.1276  0.2290
 1062loPI   PO416312  16.464   1.969   4.917  0.2015 -0.0730  0.3254
 1062loPI   GL116313  16.315   2.029   5.413  0.0060 -0.1476 -0.3396
 1062loPI   GL216314  16.470   2.326   5.523 -0.0836  0.1273  0.4668
 1062loPI   C1A16315  16.273   2.008   5.930 -0.0318  0.1923  0.0516
 1062loPI   C2A16316  16.251   1.926   6.391  0.0762 -0.0087 -0.1762
 1062loPI   C3A16317  16.249   1.951   6.843  0.2653 -0.1349  0.3148
 1062loPI   C4A16318  16.014   1.752   7.245 -0.1810 -0.0690  0.3205
 1062loPI   C5A16319  15.698   1.574   7.453  0.0687  0.0332 -0.3316
 1062loPI   C6A16320  15.265   1.605   7.692  0.4057 -0.1011  0.0693
 1062loPI   C1B16321  16.735   2.108   5.824 -0.2288 -0.0137 -0.1785
 1062loPI   C2B16322  16.902   1.745   6.033  0.0761 -0.2846 -0.1113
 1062loPI   C3B16323  16.906   1.475   6.522 -0.1718 -0.1958  0.0982
 1062loPI   C4B16324  16.970   1.415   6.932 -0.0074  0.1012 -0.0048
 1063loPI    C116325  18.583   8.236   5.290  0.0226  0.1223  0.0795
 1063loPI    C216326  18.633   8.527   5.021 -0.0904  0.0274 -0.0456
 1063loPI    C316327  18.573   8.151   4.900  0.1285 -0.0619  0.1160
 1063loPI   PO416328  18.777   8.284   5.413  0.2156 -0.1898 -0.1518
 1063loPI   GL116329  18.853   8.312   5.861  0.3837 -0.0406  0.1931
 1063loPI   GL216330  18.565   8.649   5.803  0.0228  0.0524  0.1002
 1063loPI   C1A16331  18.957   8.192   6.287 -0.0805 -0.0734  0.2240
 1063loPI   C2A16332  19.099   8.144   6.613  0.0465 -0.5232  0.4988
 1063loPI   C3A16333  19.238   7.846   6.897  0.1816 -0.3198  0.1471
 1063loPI   C4A16334  19.407   7.903   7.254  0.1708 -0.1052 -0.1610
 1063loPI   C5A16335  19.462   7.978   7.647  0.4247  0.0368  0.0724
 1063loPI   C6A16336  19.343   8.326   7.809 -0.2278  0.0586 -0.0479
 1063loPI   C1B16337  18.557   8.471   6.210 -0.1427 -0.1324  0.3048
 1063loPI   C2B16338  18.602   8.397   6.659  0.0431 -0.0798 -0.0262
 1063loPI   C3B16339  18.400   8.291   6.980  0.0179 -0.1713 -0.4647
 1063loPI   C4B16340  18.544   8.175   7.378  0.0057  0.1957  0.0165
 1064loPI    C116341   0.130   8.607   5.234 -0.1356  0.0834  0.0856
 1064loPI    C216342   0.378   8.308   5.136 -0.2935 -0.0176 -0.0095
 1064loPI    C316343   0.525   8.672   5.216 -0.0982 -0.1250  0.1282
 1064loPI   PO416344   0.035   8.605   5.495  0.0148  0.1049  0.3804
 1064loPI   GL116345  -0.078   8.779   5.796  0.2483  0.2678  0.2205
 1064loPI   GL216346  -0.277   9.035   5.946 -0.3201  0.1990 -0.1849
 1064loPI   C1A16347  -0.005   8.685   6.253 -0.3810 -0.2990 -0.0159
 1064loPI   C2A16348  -0.042   8.606   6.667 -0.1018 -0.2064  0.1662
 1064loPI   C3A16349  -0.090   8.359   7.072  0.0230  0.2012  0.1460
 1064loPI   C4A16350  -0.096   8.488   7.490 -0.0812 -0.1607  0.1468
 1064loPI   C5A16351  -0.330   8.422   7.800  0.2769 -0.1553 -0.0624
 1064loPI   C6A16352  -0.636   8.126   7.857 -0.3398  0.0073 -0.1462
 1064loPI   C1B16353  -0.457   8.928   6.290  0.1230 -0.1178  0.1606
 1064loPI   C2B16354  -0.446   8.975   6.735  0.1233  0.3610  0.0083
 1064loPI   C3B16355  -0.342   9.415   7.007 -0.0078  0.0023 -0.0367
 1064loPI   C4B16356  -0.326   9.602   7.432  0.0180 -0.6236  0.2006
 1065loPI    C116357  10.335   6.306   4.870 -0.0458 -0.1213  0.0421
 1065loPI    C216358  10.273   6.116   4.523 -0.1711  0.0225 -0.0156
 1065loPI    C316359  10.623   6.297   4.593 -0.0653 -0.1942  0.0240
 1065loPI   PO416360  10.155   6.223   5.060 -0.3288 -0.2175 -0.0732
 1065loPI   GL116361  10.040   6.199   5.435 -0.0495  0.0404 -0.0405
 1065loPI   GL216362   9.762   6.350   5.531  0.0501 -0.1725 -0.2665
 1065loPI   C1A16363  10.192   6.074   5.830 -0.2227 -0.0180 -0.1458
 1065loPI   C2A16364  10.166   6.115   6.203 -0.0853  0.0711  0.0877
 1065loPI   C3A16365  10.309   6.028   6.576 -0.0166 -0.1027 -0.0766
 1065loPI   C4A16366  10.466   5.870   7.000 -0.2486 -0.1203  0.2384
 1065loPI   C5A16367  10.477   5.435   7.209 -0.0836 -0.3996 -0.0284
 1065loPI   C6A16368  10.402   5.059   7.530 -0.0277  0.0997 -0.3391
 1065loPI   C1B16369   9.704   6.181   5.876 -0.1147  0.2255 -0.0938
 1065loPI   C2B16370   9.657   6.076   6.278 -0.0605  0.0663  0.3237
 1065loPI   C3B16371   9.644   5.980   6.677  0.1269  0.2025  0.0552
 1065loPI   C4B16372   9.575   5.940   7.133  0.0297 -0.0404  0.0903
 1066loPI    C116373  17.958  17.145   4.470 -0.0393 -0.1134  0.0516
 1066loPI    C216374  18.120  17.396   4.204  0.2012 -0.1669  0.1445
 1066loPI    C316375  18.329  17.082   4.335 -0.0122 -0.2869  0.2033
 1066loPI   PO416376  17.733  17.319   4.670  0.2923 -0.1353 -0.1492
 1066loPI   GL116377  17.798  17.480   5.055 -0.0598  0.1136 -0.0074
 1066loPI   GL216378  17.893  17.269   5.345 -0.0027  0.0473  0.0465
 1066loPI   C1A16379  17.660  17.816   5.429  0.0886 -0.0292  0.0705
 1066loPI   C2A16380  17.873  18.160   5.585 -0.1834  0.0573 -0.3257
 1066loPI   C3A16381  18.146  18.131   5.980  0.0303 -0.0350  0.0240
 1066loPI   C4A16382  18.212  18.211   6.433  0.1292  0.0306  0.3053
 1066loPI   C5A16383  18.113  18.308   6.798  0.1484  0.0589 -0.1014
 1066loPI   C6A16384  17.983  18.488   7.021  0.1025 -0.4179  0.0641
 1066loPI   C1B16385  17.820  17.191   5.727  0.0941 -0.3242  0.0505
 1066loPI   C2B16386  17.860  17.314   6.252  0.1867  0.0810  0.1139
 1066loPI   C3B16387  17.842  17.435   6.648  0.1345  0.2756  0.0382
 1066loPI   C4B16388  18.026  17.285   7.008 -0.1444 -0.0556 -0.1232
 1067loPI    C116389  13.604   4.896   4.927  0.0499 -0.0838 -0.0144
 1067loPI    C216390  13.330   4.607   4.891  0.0215 -0.0522 -0.0522
 1067loPI    C316391  13.626   4.636   4.623 -0.0078 -0.0119 -0.0802
 1067loPI   PO416392  13.471   5.088   4.982  0.1572  0.1858 -0.0475
 1067loPI   GL116393  13.600   5.252   5.409  0.2434 -0.3197 -0.2620
 1067loPI   GL216394  13.796   5.058   5.377  0.1680  0.3194  0.1706
 1067loPI   C1A16395  13.356   5.248   5.824 -0.3119 -0.2182  0.0452
 1067loPI   C2A16396  13.198   5.278   6.286  0.0235  0.2759  0.1512
 1067loPI   C3A16397  13.020   5.115   6.702 -0.2367  0.0937  0.0820
 1067loPI   C4A16398  12.669   5.068   7.040 -0.1113 -0.1605 -0.0837
 1067loPI   C5A16399  12.425   4.795   7.435  0.1203  0.0237 -0.2125
 1067loPI   C6A16400  11.913   4.764   7.491 -0.0746 -0.0207  0.0623
 1067loPI   C1B16401  13.694   4.818   5.769  0.0324 -0.0752 -0.2088
 1067loPI   C2B16402  13.629   5.024   6.243 -0.0507 -0.1575 -0.3261
 1067loPI   C3B16403  13.646   4.884   6.676  0.1636  0.0075  0.0107
 1067loPI   C4B16404  13.588   4.731   7.065 -0.2948 -0.1830 -0.4959
 1068loPI    C116405  10.531  15.075   4.335  0.0059  0.1591  0.0433
 1068loPI    C216406  10.265  14.778   4.365  0.1829 -0.0088 -0.0287
 1068loPI    C316407  10.488  14.814   4.036 -0.0358  0.3747 -0.1416
 1068loPI   PO416408  10.583  15.094   4.631 -0.0187 -0.0038  0.1706
 1068loPI   GL116409  10.405  15.132   5.058 -0.1647 -0.2220 -0.2991
 1068loPI   GL216410  10.681  15.148   5.129 -0.4170  0.1237 -0.0777
 1068loPI   C1A16411  10.232  15.044   5.446  0.0797 -0.1494  0.0714
 1068loPI   C2A16412   9.972  15.104   5.882  0.0697 -0.0355  0.2026
 1068loPI   C3A16413   9.998  15.284   6.251  0.2888  0.2091  0.0878
 1068loPI   C4A16414  10.000  15.302   6.653  0.0627  0.0661 -0.4572
 1068loPI   C5A16415  10.218  15.513   6.964 -0.1934 -0.2487  0.0843
 1068loPI   C6A16416  10.038  15.565   7.358 -0.0041  0.1353  0.0885
 1068loPI   C1B16417  10.764  15.148   5.504  0.3568  0.0717  0.3794
 1068loPI   C2B16418  10.806  15.016   5.910  0.1444  0.0354  0.1374
 1068loPI   C3B16419  10.852  14.925   6.268  0.1191  0.1195  0.0545
 1068loPI   C4B16420  10.841  14.958   6.738  0.0650 -0.0120  0.0245
 1069loPI    C116421   4.467   7.736   4.518 -0.2341 -0.1193 -0.1288
 1069loPI    C216422   4.450   7.500   4.195  0.2922 -0.1795 -0.1206
 1069loPI    C316423   4.494   7.895   4.152  0.1893 -0.1682 -0.1236
 1069loPI   PO416424   4.567   7.498   4.716  0.0196  0.2940  0.1444
 1069loPI   GL116425   4.713   7.434   5.060 -0.1530  0.2898  0.0217
 1069loPI   GL216426   4.694   7.184   5.412 -0.0289 -0.1077 -0.0438
 1069loPI   C1A16427   5.034   7.506   5.445 -0.0754  0.0952  0.0278
 1069loPI   C2A16428   4.951   7.552   5.983  0.1699 -0.0872 -0.0945
 1069loPI   C3A16429   4.925   7.431   6.428  0.0602  0.1226 -0.2202
 1069loPI   C4A16430   4.932   7.779   6.744 -0.1012 -0.4528 -0.0628
 1069loPI   C5A16431   4.990   7.993   7.011 -0.0588 -0.2100  0.0967
 1069loPI   C6A16432   4.820   8.270   7.343  0.0875  0.0410  0.1861
 1069loPI   C1B16433   4.705   7.162   5.824  0.0118 -0.1599 -0.0319
 1069loPI   C2B16434   4.776   6.967   6.237  0.0649 -0.0355  0.1723
 1069loPI   C3B16435   4.912   6.954   6.631  0.0653  0.0100  0.0409
 1069loPI   C4B16436   5.122   6.919   7.062  0.0397 -0.0404 -0.0153
 1070loPI    C116437  19.129  15.278   4.611  0.1410 -0.1317 -0.0740
 1070loPI    C216438  18.900  14.970   4.724  0.1003 -0.0709  0.0101
 1070loPI    C316439  18.999  15.014   4.339  0.0658 -0.1618 -0.0095
 1070loPI   PO416440  19.278  15.388   4.868  0.5107 -0.1618 -0.1552
 1070loPI   GL116441  19.413  15.604   5.339  0.0722 -0.1299 -0.0600
 1070loPI   GL216442  19.082  15.696   5.272 -0.2939 -0.1848  0.1844
 1070loPI   C1A16443  19.648  15.788   5.601  0.0196 -0.0297  0.3246
 1070loPI   C2A16444  19.961  15.801   5.810  0.3093  0.1506 -0.0636
 1070loPI   C3A16445  19.939  15.427   6.191 -0.0054 -0.0564 -0.1233
 1070loPI   C4A16446  20.129  15.386   6.578 -0.1040 -0.1879 -0.1296
 1070loPI   C5A16447  20.202  15.439   7.009  0.1251  0.3306  0.0623
 1070loPI   C6A16448  19.881  15.630   7.393 -0.0049 -0.0615 -0.1772
 1070loPI   C1B16449  19.082  15.315   5.621  0.2612 -0.1048  0.0125
 1070loPI   C2B16450  19.147  15.117   6.023  0.0107  0.0818  0.2740
 1070loPI   C3B16451  19.340  15.063   6.358 -0.1208  0.1538  0.1707
 1070loPI   C4B16452  19.748  15.045   6.502 -0.0853  0.0948  0.0540
 1071loPI    C116453  17.991   6.268   5.402  0.0068  0.3404  0.1857
 1071loPI    C216454  17.647   6.326   5.206 -0.0622 -0.1019  0.1656
 1071loPI    C316455  17.957   6.154   5.020 -0.0032 -0.1791  0.3329
 1071loPI   PO416456  18.126   6.524   5.522 -0.1413 -0.0961 -0.1984
 1071loPI   GL116457  18.193   6.565   5.869 -0.1310 -0.0912  0.0022
 1071loPI   GL216458  18.345   6.791   6.058 -0.0061  0.1152  0.0102
 1071loPI   C1A16459  18.155   6.345   6.297 -0.2562 -0.1157  0.0054
 1071loPI   C2A16460  18.261   6.250   6.764 -0.0843 -0.1437 -0.0304
 1071loPI   C3A16461  18.321   6.123   7.218 -0.0605  0.3552 -0.0498
 1071loPI   C4A16462  18.221   5.957   7.690  0.1155  0.1771 -0.0941
 1071loPI   C5A16463  18.369   5.959   8.150  0.0655  0.2050 -0.1142
 1071loPI   C6A16464  18.483   5.774   8.573  0.0357 -0.0236  0.0856
 1071loPI   C1B16465  18.383   6.725   6.497  0.0551  0.0266  0.0670
 1071loPI   C2B16466  18.009   6.721   6.808  0.0720  0.2257 -0.1176
 1071loPI   C3B16467  18.030   6.995   7.158  0.1204 -0.0041 -0.1478
 1071loPI   C4B16468  18.103   6.877   7.617 -0.0523 -0.4155  0.0096
 1072loPI    C116469   2.074  11.887   5.161  0.3053 -0.5024 -0.0303
 1072loPI    C216470   1.889  11.663   4.886  0.1932 -0.1114 -0.2805
 1072loPI    C316471   2.057  12.011   4.782  0.1810  0.0267  0.1399
 1072loPI   PO416472   1.921  11.942   5.424 -0.1130 -0.0765 -0.1263
 1072loPI   GL116473   1.773  11.635   5.758 -0.1726  0.0824  0.3963
 1072loPI   GL216474   2.156  11.542   5.633 -0.1103 -0.0271  0.1703
 1072loPI   C1A16475   1.854  11.644   6.176  0.2729  0.0830 -0.0827
 1072loPI   C2A16476   1.685  11.439   6.536 -0.0149  0.2063  0.2041
 1072loPI   C3A16477   1.564  11.544   6.969 -0.1006 -0.1179 -0.0078
 1072loPI   C4A16478   1.495  11.229   7.437 -0.0517 -0.0633  0.2428
 1072loPI   C5A16479   1.626  11.297   7.844 -0.0467  0.0730  0.0029
 1072loPI   C6A16480   1.654  11.098   8.242  0.0458 -0.1345 -0.0785
 1072loPI   C1B16481   2.140  11.329   5.964 -0.0779  0.4476 -0.1520
 1072loPI   C2B16482   2.148  11.296   6.419 -0.0667 -0.4518 -0.3766
 1072loPI   C3B16483   2.154  11.114   6.774 -0.0823 -0.0390 -0.1319
 1072loPI   C4B16484   2.173  10.953   7.162 -0.1073  0.1823  0.0588
 1073loPI    C116485  10.443   9.027   5.169 -0.1450 -0.5437  0.0357
 1073loPI    C216486  10.332   9.070   4.787 -0.0009 -0.2317  0.0264
 1073loPI    C316487  10.655   8.852   4.877  0.1487 -0.0493 -0.0596
 1073loPI   PO416488  10.508   9.317   5.345 -0.2200 -0.0120  0.0124
 1073loPI   GL116489  10.410   9.520   5.663 -0.0149 -0.0557  0.0088
 1073loPI   GL216490  10.650   9.663   5.747 -0.1358 -0.3841 -0.1240
 1073loPI   C1A16491  10.157   9.565   6.109 -0.1486 -0.0405 -0.4017
 1073loPI   C2A16492  10.221   9.742   6.475 -0.0141 -0.2636  0.0163
 1073loPI   C3A16493  10.163   9.860   6.875 -0.0514  0.1380 -0.1619
 1073loPI   C4A16494  10.193   9.868   7.272  0.4376  0.0821 -0.0203
 1073loPI   C5A16495  10.466   9.739   7.629  0.2745  0.0198  0.2324
 1073loPI   C6A16496  10.480   9.338   7.676  0.0340  0.0016  0.2502
 1073loPI   C1B16497  10.700   9.676   6.260  0.2711  0.2033  0.1194
 1073loPI   C2B16498  10.641   9.880   6.674  0.0077  0.0858 -0.0816
 1073loPI   C3B16499  10.634   9.970   7.160  0.2446 -0.0495  0.1584
 1073loPI   C4B16500  10.570  10.437   7.409  0.1457 -0.0981 -0.1811
 1074loPI    C116501  10.146  12.938   4.840 -0.0636  0.0159 -0.0201
 1074loPI    C216502  10.400  13.208   4.690  0.1428 -0.1921 -0.0510
 1074loPI    C316503  10.186  12.977   4.444 -0.2156  0.1042 -0.0278
 1074loPI   PO416504  10.234  12.815   4.980 -0.2299 -0.2249 -0.2252
 1074loPI   GL116505  10.228  12.722   5.466  0.0330  0.0685  0.1655
 1074loPI   GL216506   9.973  12.863   5.397  0.1986  0.0543  0.2369
 1074loPI   C1A16507  10.533  12.746   5.840 -0.3468 -0.0292  0.1954
 1074loPI   C2A16508  10.867  12.905   6.115 -0.4730 -0.2766  0.1486
 1074loPI   C3A16509  11.037  12.763   6.465  0.4186  0.3612 -0.0861
 1074loPI   C4A16510  11.386  12.673   6.666 -0.0147  0.2000  0.2301
 1074loPI   C5A16511  11.635  12.723   6.947  0.1393  0.1330  0.1277
 1074loPI   C6A16512  11.425  12.746   7.363 -0.2623  0.0866 -0.2098
 1074loPI   C1B16513   9.968  12.990   5.804 -0.0749 -0.2795  0.3320
 1074loPI   C2B16514  10.167  12.805   6.168  0.1439 -0.1676 -0.1829
 1074loPI   C3B16515  10.415  12.940   6.521  0.0962  0.1119  0.2412
 1074loPI   C4B16516  10.547  13.160   6.840 -0.1487 -0.0527 -0.0074
 1075loPI    C116517  12.742   4.564   5.047  0.2551 -0.0132 -0.0034
 1075loPI    C216518  12.870   4.578   4.668 -0.0844  0.0623 -0.1181
 1075loPI    C316519  12.592   4.312   4.775 -0.0964  0.1392  0.0446
 1075loPI   PO416520  12.865   4.571   5.179  0.2839 -0.0383  0.4879
 1075loPI   GL116521  12.911   4.587   5.626  0.0907 -0.0209 -0.1722
 1075loPI   GL216522  12.889   4.320   5.619  0.2149 -0.0720 -0.2884
 1075loPI   C1A16523  13.200   4.785   5.979  0.0656  0.3498  0.1868
 1075loPI   C2A16524  13.293   4.690   6.275 -0.1208 -0.0820 -0.0232
 1075loPI   C3A16525  13.129   4.582   6.677  0.1529 -0.1505  0.0520
 1075loPI   C4A16526  13.079   4.696   7.102 -0.0539 -0.0554  0.1510
 1075loPI   C5A16527  13.056   4.994   7.417  0.0555  0.0935  0.1610
 1075loPI   C6A16528  13.088   5.116   7.716 -0.1978 -0.2477 -0.0637
 1075loPI   C1B16529  12.974   4.266   6.092  0.1442  0.0228 -0.2338
 1075loPI   C2B16530  12.843   4.032   6.477  0.0571  0.0254  0.0666
 1075loPI   C3B16531  12.792   4.069   6.852 -0.0453  0.1703  0.4820
 1075loPI   C4B16532  12.684   4.319   7.246 -0.1752 -0.0551 -0.1740
 1076loPI    C116533  10.093   6.753   5.063  0.0631 -0.0611 -0.1902
 1076loPI    C216534   9.753   6.922   4.939 -0.0099 -0.1327 -0.0895
 1076loPI    C316535  10.090   6.972   4.729 -0.0083  0.2204 -0.0079
 1076loPI   PO416536  10.070   6.679   5.318 -0.0146 -0.0133 -0.1095
 1076loPI   GL116537   9.834   6.792   5.753 -0.1385  0.0027 -0.0712
 1076loPI   GL216538  10.072   6.642   5.851  0.0448 -0.4236  0.1546
 1076loPI   C1A16539   9.751   7.015   6.066  0.0363 -0.2093 -0.2006
 1076loPI   C2A16540   9.787   6.941   6.516  0.2624  0.0827 -0.0707
 1076loPI   C3A16541   9.812   6.872   6.908  0.4945  0.3833 -0.2088
 1076loPI   C4A16542   9.878   7.087   7.292 -0.1038 -0.1948  0.0788
 1076loPI   C5A16543   9.641   7.225   7.675 -0.2742  0.1654  0.0107
 1076loPI   C6A16544   9.176   7.195   7.675 -0.1624 -0.0488  0.0047
 1076loPI   C1B16545   9.984   6.585   6.237 -0.1001  0.2933 -0.2563
 1076loPI   C2B16546  10.019   6.450   6.666 -0.2407  0.0874  0.1353
 1076loPI   C3B16547  10.005   6.174   6.980  0.2616  0.1053  0.3778
 1076loPI   C4B16548  10.006   5.731   7.271  0.1963 -0.1580 -0.3287
 1077loPI    C116549  15.502   1.699   4.672 -0.1526 -0.0187 -0.1086
 1077loPI    C216550  15.385   2.076   4.608  0.1290  0.0720 -0.1058
 1077loPI    C316551  15.358   1.805   4.314 -0.2555  0.0427 -0.0495
 1077loPI   PO416552  15.420   1.659   4.981  0.0197 -0.1619 -0.1178
 1077loPI   GL116553  15.240   1.386   5.300 -0.2278 -0.0271  0.2882
 1077loPI   GL216554  15.032   1.637   5.257  0.2675  0.0134  0.2508
 1077loPI   C1A16555  15.215   1.367   5.673  0.0554  0.2483 -0.0930
 1077loPI   C2A16556  14.824   1.319   5.920 -0.2779 -0.0422 -0.1593
 1077loPI   C3A16557  14.797   1.544   6.317 -0.3878  0.1865  0.1021
 1077loPI   C4A16558  14.979   1.436   6.636  0.3095  0.1856 -0.0633
 1077loPI   C5A16559  15.270   1.519   6.989 -0.2474 -0.1599  0.1240
 1077loPI   C6A16560  15.380   1.878   7.222 -0.2825 -0.1493 -0.1397
 1077loPI   C1B16561  14.723   1.717   5.632  0.1133 -0.0787  0.1912
 1077loPI   C2B16562  14.509   1.817   6.017 -0.0742  0.1917  0.1786
 1077loPI   C3B16563  14.500   2.107   6.304 -0.0958  0.1219 -0.2209
 1077loPI   C4B16564  14.216   2.483   6.496 -0.0042 -0.1361 -0.0656
 1078loPI    C116565   6.108  14.483   4.860  0.2521 -0.2042 -0.1472
 1078loPI    C216566   5.891  14.152   4.805 -0.0377 -0.0295 -0.0793
 1078loPI    C316567   5.888  14.440   4.528  0.3106 -0.1327 -0.1954
 1078loPI   PO416568   6.036  14.539   5.109  0.1931  0.0679 -0.0255
 1078loPI   GL116569   6.276  14.464   5.468  0.0172 -0.1139  0.1910
 1078loPI   GL216570   6.253  14.187   5.584 -0.3476 -0.0307 -0.2126
 1078loPI   C1A16571   6.080  14.673   5.847 -0.2832 -0.1006  0.2413
 1078loPI   C2A16572   6.012  14.699   6.236 -0.1778 -0.1508 -0.0697
 1078loPI   C3A16573   5.811  14.788   6.601 -0.1311 -0.1125 -0.2534
 1078loPI   C4A16574   5.633  14.743   7.020 -0.0275 -0.0894 -0.3887
 1078loPI   C5A16575   5.325  14.856   7.363 -0.0151  0.0900 -0.0530
 1078loPI   C6A16576   5.131  14.922   7.710 -0.0938 -0.1420 -0.3303
 1078loPI   C1B16577   6.103  14.148   6.004  0.2380 -0.2344  0.2298
 1078loPI   C2B16578   5.969  14.283   6.455 -0.2019  0.2827  0.1433
 1078loPI   C3B16579   6.270  14.109   6.749 -0.3751 -0.2321  0.0254
 1078loPI   C4B16580   6.588  14.109   7.071  0.1980  0.0366  0.0113
 1079loPI    C116581   1.312  13.538   4.985 -0.0264 -0.2851  0.0297
 1079loPI    C216582   1.222  13.631   4.606 -0.3854 -0.2147  0.1279
 1079loPI    C316583   1.318  13.255   4.703  0.1990 -0.1392 -0.1153
 1079loPI   PO416584   1.103  13.740   5.124 -0.0877  0.0606 -0.2116
 1079loPI   GL116585   0.979  13.805   5.564  0.1351 -0.0180 -0.2702
 1079loPI   GL216586   0.647  13.763   5.444 -0.0678  0.2289 -0.1525
 1079loPI   C1A16587   1.187  13.710   5.927  0.3670  0.1321 -0.0108
 1079loPI   C2A16588   1.288  13.832   6.184 -0.1155 -0.0741  0.0627
 1079loPI   C3A16589   1.320  13.637   6.556  0.0410 -0.1743 -0.0771
 1079loPI   C4A16590   1.290  13.827   6.892  0.1152 -0.2461 -0.0596
 1079loPI   C5A16591   1.651  13.980   7.051  0.1382 -0.0859  0.2627
 1079loPI   C6A16592   1.828  14.391   6.950 -0.0548  0.4374  0.0190
 1079loPI   C1B16593   0.710  13.673   6.039  0.4673 -0.1967 -0.0361
 1079loPI   C2B16594   0.812  13.645   6.422 -0.2608 -0.3218 -0.1135
 1079loPI   C3B16595   0.799  13.682   6.802 -0.1808 -0.2055  0.1846
 1079loPI   C4B16596   0.478  13.682   7.016  0.1968  0.1879  0.2258
 1080loPI    C116597  18.040   4.329   4.837 -0.4609  0.1174  0.1819
 1080loPI    C216598  18.038   4.715   4.733 -0.0799  0.1106  0.1340
 1080loPI    C316599  18.218   4.445   4.499 -0.2342 -0.0790  0.2306
 1080loPI   PO416600  18.074   4.440   5.138  0.0403  0.0737  0.0004
 1080loPI   GL116601  17.972   4.321   5.507 -0.0090 -0.1831  0.0160
 1080loPI   GL216602  17.760   4.615   5.454 -0.1380  0.1669  0.2705
 1080loPI   C1A16603  18.035   4.319   5.933 -0.3174 -0.0675  0.0660
 1080loPI   C2A16604  17.881   4.167   6.334  0.0324 -0.0257  0.6239
 1080loPI   C3A16605  17.810   3.845   6.691 -0.3008 -0.1147  0.0284
 1080loPI   C4A16606  17.940   3.422   6.841 -0.5073  0.4143  0.0346
 1080loPI   C5A16607  18.076   2.919   6.909  0.0298  0.0611 -0.1312
 1080loPI   C6A16608  17.999   2.477   7.167 -0.1765 -0.0112  0.2985
 1080loPI   C1B16609  17.600   4.554   5.933 -0.0397 -0.0693  0.0684
 1080loPI   C2B16610  17.430   4.509   6.373  0.4490 -0.2757  0.0209
 1080loPI   C3B16611  17.515   4.422   6.752  0.0723 -0.0512 -0.1182
 1080loPI   C4B16612  17.633   4.091   7.069  0.1815  0.4829  0.1273
 1081loPI    C116613  10.134   0.253   4.906 -0.2323 -0.1174  0.0234
 1081loPI    C216614   9.931   0.323   4.569  0.1036  0.1543 -0.1291
 1081loPI    C316615  10.164  -0.000   4.598  0.0487  0.1131 -0.1442
 1081loPI   PO416616  10.150   0.500   5.026  0.1436 -0.1803 -0.1639
 1081loPI   GL116617  10.143   0.554   5.536 -0.0934  0.3102  0.0364
 1081loPI   GL216618  10.253   0.197   5.442  0.0529 -0.2340  0.1696
 1081loPI   C1A16619  10.099   0.659   5.896  0.2299  0.2086  0.0749
 1081loPI   C2A16620  10.309   0.704   6.279 -0.1254  0.0118 -0.1652
 1081loPI   C3A16621  10.467   0.818   6.700 -0.0318  0.1212 -0.0021
 1081loPI   C4A16622  10.751   0.799   7.037  0.1695  0.1452  0.0983
 1081loPI   C5A16623  10.881   1.132   7.148  0.0753  0.0802  0.0240
 1081loPI   C6A16624  10.725   1.373   7.511 -0.0746 -0.0525  0.0591
 1081loPI   C1B16625   9.945   0.094   5.690 -0.0556  0.1276  0.0113
 1081loPI   C2B16626   9.640   0.120   6.046  0.0337  0.0972 -0.0554
 1081loPI   C3B16627   9.547   0.099   6.465  0.0490  0.0500  0.0523
 1081loPI   C4B16628   9.207   0.153   6.725  0.0070  0.2335 -0.0289
 1082loPI    C116629   5.602   7.317   4.672  0.0926 -0.0099  0.1066
 1082loPI    C216630   5.987   7.263   4.578 -0.0305 -0.0204 -0.4285
 1082loPI    C316631   5.800   7.599   4.467 -0.1809 -0.0193 -0.1795
 1082loPI   PO416632   5.631   7.330   5.052 -0.1534 -0.0642 -0.3995
 1082loPI   GL116633   5.610   7.124   5.396 -0.2332  0.1856  0.1124
 1082loPI   GL216634   5.665   6.797   5.387 -0.0097  0.2252  0.0213
 1082loPI   C1A16635   5.508   7.394   5.745  0.2033 -0.0715 -0.1310
 1082loPI   C2A16636   5.456   7.587   6.180 -0.3234  0.1896 -0.2995
 1082loPI   C3A16637   5.395   7.749   6.578 -0.1320 -0.0928  0.2529
 1082loPI   C4A16638   5.453   7.780   7.035 -0.0299  0.2296  0.0128
 1082loPI   C5A16639   5.833   7.610   7.328  0.3010 -0.2275  0.1753
 1082loPI   C6A16640   5.961   7.716   7.762  0.2431  0.1601 -0.0414
 1082loPI   C1B16641   5.665   6.652   5.789 -0.3753  0.2887  0.2243
 1082loPI   C2B16642   5.617   6.781   6.261 -0.2863  0.0247  0.0130
 1082loPI   C3B16643   5.704   6.802   6.731  0.1707  0.0543  0.0791
 1082loPI   C4B16644   5.901   6.761   7.087  0.2259  0.0560 -0.4149
 1083loPI    C116645  14.683   7.284   4.706 -0.0413 -0.0523  0.0556
 1083loPI    C216646  14.589   6.899   4.652  0.2034 -0.0940 -0.0860
 1083loPI    C316647  14.463   7.174   4.390  0.1650 -0.0996 -0.0734
 1083loPI   PO416648  14.661   7.342   5.010  0.1631  0.0896 -0.2303
 1083loPI   GL116649  14.700   7.340   5.386  0.0450  0.1339 -0.0967
 1083loPI   GL216650  14.851   7.507   5.620  0.1531  0.4702  0.1109
 1083loPI   C1A16651  14.471   7.188   5.678  0.0242  0.1736  0.1583
 1083loPI   C2A16652  14.619   6.751   5.956 -0.1547  0.3704 -0.0260
 1083loPI   C3A16653  14.848   6.562   6.257  0.1162  0.0486  0.0751
 1083loPI   C4A16654  14.772   6.647   6.666  0.0224 -0.2871 -0.1456
 1083loPI   C5A16655  14.623   6.593   7.020  0.2847  0.4028  0.1000
 1083loPI   C6A16656  14.857   6.759   7.431 -0.1224 -0.0415 -0.0704
 1083loPI   C1B16657  14.653   7.457   6.092  0.1911  0.0081 -0.1692
 1083loPI   C2B16658  14.431   7.570   6.481 -0.2184  0.0631  0.0892
 1083loPI   C3B16659  14.309   7.650   6.883 -0.1761 -0.0879  0.0581
 1083loPI   C4B16660  14.115   7.684   7.299 -0.2308  0.0841  0.3073
 1084loPI    C116661  13.175  14.329   4.376 -0.1239  0.1659 -0.1818
 1084loPI    C216662  12.789  14.293   4.275 -0.0906  0.1692 -0.3130
 1084loPI    C316663  13.064  14.060   4.101 -0.0490  0.0734 -0.1220
 1084loPI   PO416664  13.168  14.396   4.627  0.3279  0.0384 -0.0908
 1084loPI   GL116665  13.142  14.407   5.140  0.2305  0.0671  0.0128
 1084loPI   GL216666  12.978  14.633   5.361  0.2479  0.0408 -0.2978
 1084loPI   C1A16667  13.199  14.205   5.546  0.0320 -0.2765  0.1061
 1084loPI   C2A16668  13.285  14.077   5.908  0.3360 -0.0508 -0.1461
 1084loPI   C3A16669  13.025  14.194   6.271 -0.1093 -0.0988  0.0742
 1084loPI   C4A16670  13.030  14.354   6.706  0.0181  0.1123 -0.2075
 1084loPI   C5A16671  13.224  14.239   7.158  0.2756 -0.1484  0.2372
 1084loPI   C6A16672  13.137  13.910   7.520  0.2398 -0.1272 -0.1572
 1084loPI   C1B16673  13.023  14.614   5.693 -0.1042  0.2853  0.1963
 1084loPI   C2B16674  12.999  14.753   6.045 -0.2641  0.0035  0.0967
 1084loPI   C3B16675  13.203  14.960   6.349  0.1211 -0.2518 -0.0331
 1084loPI   C4B16676  13.349  14.756   6.771 -0.1168 -0.0450  0.3197
 1085loPI    C116677   4.016   8.052   4.762  0.0958 -0.0563 -0.2096
 1085loPI    C216678   4.235   8.251   4.493  0.0344 -0.0329 -0.2425
 1085loPI    C316679   3.973   8.448   4.722  0.1387 -0.0420 -0.1143
 1085loPI   PO416680   4.133   7.894   4.877 -0.0581  0.3596 -0.0442
 1085loPI   GL116681   4.354   7.804   5.148 -0.0742  0.1340  0.0935
 1085loPI   GL216682   4.600   7.893   5.254 -0.3928 -0.0234  0.0963
 1085loPI   C1A16683   4.453   7.566   5.631  0.3106 -0.1297  0.1377
 1085loPI   C2A16684   4.380   7.598   6.043  0.1851 -0.2155  0.0299
 1085loPI   C3A16685   4.575   7.817   6.412 -0.2437 -0.2086  0.0031
 1085loPI   C4A16686   4.464   7.984   6.768 -0.0622  0.2277 -0.0448
 1085loPI   C5A16687   4.421   8.379   7.073  0.4534  0.0670  0.2504
 1085loPI   C6A16688   4.448   8.773   7.194  0.0460 -0.1013  0.0998
 1085loPI   C1B16689   4.717   7.908   5.624 -0.1570 -0.0416  0.0269
 1085loPI   C2B16690   4.655   8.076   5.970 -0.0250 -0.0983  0.2712
 1085loPI   C3B16691   4.556   8.333   6.274  0.1164 -0.0387  0.1144
 1085loPI   C4B16692   4.397   8.462   6.559 -0.0314  0.1714 -0.2662
 1086loPI    C116693  11.607  14.910   4.462 -0.0609  0.0211  0.0722
 1086loPI    C216694  11.789  14.579   4.329  0.0882  0.1290  0.0061
 1086loPI    C316695  11.479  14.732   4.128  0.0191  0.0301  0.0366
 1086loPI   PO416696  11.599  14.902   4.820 -0.0190 -0.1818  0.0695
 1086loPI   GL116697  11.762  15.287   5.094  0.0486  0.2167 -0.0522
 1086loPI   GL216698  11.526  15.103   5.334 -0.0639 -0.3994 -0.2875
 1086loPI   C1A16699  12.019  15.386   5.396 -0.0762  0.3085  0.1339
 1086loPI   C2A16700  12.316  15.249   5.711  0.3838 -0.0928 -0.1999
 1086loPI   C3A16701  12.344  15.437   6.151 -0.0648  0.0882  0.2525
 1086loPI   C4A16702  12.351  15.694   6.492  0.0483  0.0068  0.0641
 1086loPI   C5A16703  12.412  16.065   6.799 -0.0044 -0.1013 -0.2421
 1086loPI   C6A16704  12.620  16.450   7.089  0.0736  0.1801 -0.1537
 1086loPI   C1B16705  11.739  15.259   5.767  0.1924  0.1645 -0.0027
 1086loPI   C2B16706  11.950  15.655   5.871  0.3036 -0.1166 -0.0680
 1086loPI   C3B16707  11.922  15.801   6.264  0.2877 -0.0344  0.0878
 1086loPI   C4B16708  11.916  15.876   6.753  0.1825  0.0296  0.2333
 1087loPI    C116709   9.028  15.917   4.637  0.3744 -0.1203 -0.0202
 1087loPI    C216710   8.979  16.209   4.367 -0.0143 -0.0263  0.1453
 1087loPI    C316711   9.347  16.085   4.463  0.1376  0.1119 -0.2397
 1087loPI   PO416712   8.832  15.936   4.846  0.0832 -0.3069  0.1768
 1087loPI   GL116713   8.712  16.000   5.194  0.0868 -0.2194 -0.1698
 1087loPI   GL216714   8.766  15.675   5.349  0.1395  0.0466 -0.0003
 1087loPI   C1A16715   8.946  16.248   5.508 -0.2165 -0.2426 -0.2140
 1087loPI   C2A16716   9.076  16.409   5.787 -0.2188 -0.0388  0.0645
 1087loPI   C3A16717   9.008  16.581   6.188 -0.2990  0.3356 -0.0652
 1087loPI   C4A16718   8.944  16.440   6.524 -0.0840  0.2410 -0.3603
 1087loPI   C5A16719   8.983  16.374   6.954  0.0639  0.0172 -0.3954
 1087loPI   C6A16720   9.277  16.187   7.268 -0.0678  0.2443 -0.0317
 1087loPI   C1B16721   8.860  15.804   5.755 -0.0339  0.0353  0.2881
 1087loPI   C2B16722   8.836  16.048   6.182 -0.0224 -0.1300  0.1159
 1087loPI   C3B16723   8.821  15.928   6.615  0.1738 -0.0936  0.0962
 1087loPI   C4B16724   8.745  15.983   7.013  0.2261  0.1171 -0.2397
 1088loPI    C116725  12.952   3.170   4.625 -0.0379 -0.0358  0.2278
 1088loPI    C216726  13.007   3.036   4.252 -0.3501 -0.0450  0.1832
 1088loPI    C316727  12.749   3.335   4.322 -0.1760  0.0631  0.3725
 1088loPI   PO416728  13.301   3.304   4.901 -0.0473  0.3142 -0.0103
 1088loPI   GL116729  13.086   3.517   5.320  0.2161  0.1766 -0.0506
 1088loPI   GL216730  13.017   3.765   5.381 -0.1295  0.0126  0.0542
 1088loPI   C1A16731  13.311   3.461   5.659 -0.1892  0.0308  0.0388
 1088loPI   C2A16732  13.639   3.298   6.074 -0.0270 -0.1118 -0.2148
 1088loPI   C3A16733  13.764   3.192   6.440 -0.2354 -0.2052 -0.2048
 1088loPI   C4A16734  13.530   3.038   6.835 -0.2953  0.0741 -0.2934
 1088loPI   C5A16735  13.279   2.694   7.004 -0.1865 -0.1215  0.1415
 1088loPI   C6A16736  13.021   2.476   7.325  0.0471  0.0375 -0.0649
 1088loPI   C1B16737  12.955   3.829   5.784  0.0984  0.1312  0.0235
 1088loPI   C2B16738  13.127   3.779   6.142  0.1157 -0.1964 -0.2939
 1088loPI   C3B16739  13.401   3.567   6.393  0.1290  0.0499 -0.3504
 1088loPI   C4B16740  13.497   3.523   6.802 -0.1976 -0.1896 -0.3914
 1089loPI    C116741  15.834   2.797   4.853 -0.1376 -0.0022  0.1741
 1089loPI    C216742  15.581   2.494   4.786 -0.0738  0.0066 -0.1183
 1089loPI    C316743  15.723   2.708   4.479  0.0761  0.1757  0.0662
 1089loPI   PO416744  15.751   2.914   5.157 -0.4514 -0.0347 -0.1368
 1089loPI   GL116745  15.891   2.816   5.568  0.2301  0.3068 -0.2153
 1089loPI   GL216746  15.815   3.209   5.546 -0.3111 -0.1148 -0.1385
 1089loPI   C1A16747  16.029   2.789   5.910 -0.3638 -0.0639 -0.0645
 1089loPI   C2A16748  16.112   2.998   6.310  0.1382  0.0505  0.3099
 1089loPI   C3A16749  16.191   2.729   6.645  0.0817  0.1981  0.1260
 1089loPI   C4A16750  16.006   2.313   6.602  0.1908 -0.4413 -0.2324
 1089loPI   C5A16751  15.741   1.990   6.479  0.1879  0.1652 -0.0373
 1089loPI   C6A16752  15.675   1.750   6.833 -0.0660  0.1768  0.2038
 1089loPI   C1B16753  15.672   3.632   5.727 -0.0607  0.2980  0.1868
 1089loPI   C2B16754  15.678   3.754   6.099 -0.0727 -0.4602 -0.2756
 1089loPI   C3B16755  15.577   3.624   6.484  0.0049  0.1091  0.2831
 1089loPI   C4B16756  15.607   3.535   6.878 -0.0523 -0.2755 -0.2047
 1090loPI    C116757   0.865  13.342   4.915  0.5014  0.0732 -0.1322
 1090loPI    C216758   0.783  13.075   4.628 -0.2495  0.0611  0.0732
 1090loPI    C316759   0.657  13.453   4.591 -0.1755  0.1089  0.2939
 1090loPI   PO416760   0.786  13.267   5.140  0.1132  0.0053 -0.2188
 1090loPI   GL116761   0.862  13.268   5.660  0.1957 -0.2796  0.1357
 1090loPI   GL216762   1.092  13.133   5.515 -0.1026 -0.0090 -0.1348
 1090loPI   C1A16763   0.992  13.271   6.093  0.1743 -0.0369 -0.4435
 1090loPI   C2A16764   0.989  13.213   6.460 -0.0298  0.0654  0.1616
 1090loPI   C3A16765   1.157  13.206   6.864 -0.4927 -0.3526 -0.0094
 1090loPI   C4A16766   1.512  13.082   7.203 -0.1247  0.0590  0.3931
 1090loPI   C5A16767   1.602  13.004   7.662 -0.1039 -0.0376 -0.1816
 1090loPI   C6A16768   2.053  13.122   7.693  0.0086  0.0307 -0.1056
 1090loPI   C1B16769   1.488  13.233   5.828 -0.0247  0.2895  0.5140
 1090loPI   C2B16770   1.442  13.078   6.232  0.1185  0.2367  0.0505
 1090loPI   C3B16771   1.590  12.916   6.659 -0.0645 -0.2792 -0.0275
 1090loPI   C4B16772   1.950  12.610   6.845  0.0112  0.1084  0.5476
 1091loPI    C116773  14.691   0.208   4.558 -0.0886  0.0128 -0.2915
 1091loPI    C216774  15.090   0.197   4.529 -0.0431  0.2751  0.1433
 1091loPI    C316775  14.889   0.522   4.410 -0.1309  0.1440 -0.0737
 1091loPI   PO416776  14.668   0.175   4.811  0.4924  0.1907 -0.0094
 1091loPI   GL116777  14.747  -0.099   5.135 -0.2181 -0.0952  0.2984
 1091loPI   GL216778  14.952  -0.300   5.179 -0.0344  0.1021  0.0740
 1091loPI   C1A16779  14.808   0.059   5.529  0.1741  0.0162 -0.0058
 1091loPI   C2A16780  14.935   0.230   5.901  0.2108  0.1259  0.1754
 1091loPI   C3A16781  14.949   0.049   6.331 -0.1547 -0.1911 -0.0296
 1091loPI   C4A16782  14.976   0.069   6.830  0.0992  0.1213  0.0007
 1091loPI   C5A16783  15.163  -0.119   7.217  0.2324 -0.1203  0.1322
 1091loPI   C6A16784  15.324  -0.550   7.365  0.0041 -0.0489  0.0120
 1091loPI   C1B16785  14.955  -0.472   5.486  0.2409 -0.0849 -0.0173
 1091loPI   C2B16786  14.927  -0.503   5.876  0.0862 -0.2975  0.0345
 1091loPI   C3B16787  14.946  -0.459   6.320 -0.0495 -0.1659 -0.1416
 1091loPI   C4B16788  14.739  -0.386   6.599 -0.0441  0.1571 -0.0671
 1092loPI    C116789   4.899   6.392   4.803  0.2294  0.2521  0.2052
 1092loPI    C216790   4.985   6.212   5.149  0.2492 -0.0441  0.0496
 1092loPI    C316791   5.011   6.008   4.806 -0.1818  0.1226 -0.0884
 1092loPI   PO416792   4.674   6.500   4.875  0.0297 -0.1401 -0.0158
 1092loPI   GL116793   4.702   6.659   5.333  0.1564  0.0127  0.0507
 1092loPI   GL216794   4.429   6.697   5.457  0.0580  0.2253  0.1620
 1092loPI   C1A16795   4.721   6.273   5.683  0.3113 -0.1293 -0.2060
 1092loPI   C2A16796   4.759   6.288   6.065  0.3444 -0.0011 -0.2230
 1092loPI   C3A16797   4.725   6.330   6.572 -0.0405  0.0319 -0.2294
 1092loPI   C4A16798   4.767   6.543   6.967  0.1276 -0.0696  0.1718
 1092loPI   C5A16799   4.668   6.986   7.241  0.2345 -0.0263 -0.0565
 1092loPI   C6A16800   4.486   7.342   7.421  0.0740 -0.1786  0.0734
 1092loPI   C1B16801   4.456   6.681   5.895  0.1065  0.0811  0.4439
 1092loPI   C2B16802   4.464   6.617   6.325  0.2548 -0.0291  0.2709
 1092loPI   C3B16803   4.413   6.842   6.817 -0.2230  0.2941  0.1509
 1092loPI   C4B16804   4.398   6.553   7.257 -0.0566  0.0169 -0.2866
 1093loPI    C116805   9.966  11.786   4.945 -0.3042 -0.1093 -0.0465
 1093loPI    C216806  10.135  11.424   4.976 -0.0119  0.0339  0.0729
 1093loPI    C316807  10.177  11.637   4.640 -0.2059 -0.0514 -0.0071
 1093loPI   PO416808  10.043  11.906   5.211 -0.0011 -0.1155  0.0408
 1093loPI   GL116809  10.099  12.227   5.521 -0.1123  0.3010 -0.0580
 1093loPI   GL216810  10.130  11.932   5.733  0.0241 -0.1885 -0.0321
 1093loPI   C1A16811  10.043  12.520   5.808  0.3242  0.4210 -0.1499
 1093loPI   C2A16812   9.649  12.604   6.112  0.1832 -0.2408  0.0003
 1093loPI   C3A16813   9.638  12.662   6.526  0.1386 -0.0739  0.1258
 1093loPI   C4A16814   9.905  12.859   6.786  0.1569 -0.1134  0.1717
 1093loPI   C5A16815  10.202  12.921   7.116 -0.3243 -0.1735  0.4020
 1093loPI   C6A16816  10.561  13.061   7.411  0.0612  0.0878  0.2145
 1093loPI   C1B16817  10.096  11.942   6.106 -0.2275  0.1166  0.1846
 1093loPI   C2B16818  10.119  12.221   6.493 -0.0240  0.1552  0.1147
 1093loPI   C3B16819  10.200  12.460   6.897 -0.1971  0.1589  0.2463
 1093loPI   C4B16820  10.400  12.449   7.316  0.0853  0.0280 -0.1411
 1094loPI    C116821   9.491   7.424   4.994 -0.1803 -0.0303  0.0212
 1094loPI    C216822   9.888   7.432   4.944 -0.1766  0.1010  0.0661
 1094loPI    C316823   9.649   7.367   4.630 -0.1193 -0.0026  0.0430
 1094loPI   PO416824   9.465   7.323   5.214 -0.1544 -0.0640 -0.0217
 1094loPI   GL116825   9.288   7.266   5.577 -0.0864  0.0317 -0.0360
 1094loPI   GL216826   9.596   7.233   5.666 -0.1183 -0.0091 -0.1005
 1094loPI   C1A16827   9.250   6.971   5.878 -0.3884  0.0037  0.1294
 1094loPI   C2A16828   9.286   6.951   6.369 -0.3394 -0.1636 -0.1874
 1094loPI   C3A16829   9.301   6.908   6.852 -0.2682  0.2083 -0.0815
 1094loPI   C4A16830   9.094   6.753   7.026 -0.0201  0.3579  0.1243
 1094loPI   C5A16831   8.916   6.817   7.436  0.2069 -0.2669  0.2343
 1094loPI   C6A16832   8.669   6.762   7.914 -0.2159 -0.1560 -0.0517
 1094loPI   C1B16833   9.383   7.445   6.031  0.0394  0.0324 -0.0567
 1094loPI   C2B16834   9.277   7.474   6.453  0.0962 -0.0498 -0.2686
 1094loPI   C3B16835   9.057   7.368   6.835 -0.2862  0.3037 -0.0978
 1094loPI   C4B16836   8.919   7.359   7.234  0.1760  0.0100 -0.0144
 1095loPI    C116837   4.980  17.403   4.402 -0.0852  0.1183 -0.0484
 1095loPI    C216838   5.263  17.685   4.383  0.2469 -0.1868  0.2252
 1095loPI    C316839   5.337  17.318   4.241  0.0145 -0.2905  0.3674
 1095loPI   PO416840   4.890  17.352   4.674  0.0512  0.0033  0.3487
 1095loPI   GL116841   5.039  17.078   5.075  0.0022  0.1744 -0.1654
 1095loPI   GL216842   5.317  16.927   5.106 -0.1094 -0.0869 -0.0958
 1095loPI   C1A16843   4.908  16.814   5.429  0.1537 -0.6238  0.2598
 1095loPI   C2A16844   4.789  16.524   5.801  0.0160 -0.0261  0.2010
 1095loPI   C3A16845   4.444  16.306   6.017  0.0648  0.2683 -0.1310
 1095loPI   C4A16846   4.402  16.351   6.444  0.2540 -0.0954  0.3082
 1095loPI   C5A16847   4.390  16.296   6.894  0.0598  0.0566 -0.3777
 1095loPI   C6A16848   4.738  16.594   7.137  0.0513  0.0591  0.1086
 1095loPI   C1B16849   5.322  17.074   5.440 -0.1226 -0.2908  0.1064
 1095loPI   C2B16850   5.518  17.331   5.606  0.0949  0.3112  0.1167
 1095loPI   C3B16851   5.577  17.461   5.979 -0.1051 -0.0561  0.1578
 1095loPI   C4B16852   5.825  17.678   6.178  0.0680 -0.0699 -0.0803
 1096loPI    C116853   8.993  10.857   5.028  0.2060  0.1975  0.1175
 1096loPI    C216854   8.947  11.114   4.725  0.0337  0.1896  0.1358
 1096loPI    C316855   8.716  10.788   4.748  0.3840 -0.0747  0.0042
 1096loPI   PO416856   9.008  10.976   5.174 -0.0813 -0.0224  0.3188
 1096loPI   GL116857   9.108  11.238   5.574 -0.0369 -0.1490  0.0933
 1096loPI   GL216858   9.388  11.057   5.527 -0.1292 -0.2139 -0.1313
 1096loPI   C1A16859   8.908  11.162   5.916 -0.1078  0.0897 -0.0806
 1096loPI   C2A16860   8.949  11.089   6.378 -0.6572  0.1368 -0.3997
 1096loPI   C3A16861   8.946  10.844   6.774  0.2703 -0.2589  0.1270
 1096loPI   C4A16862   9.145  10.904   7.220  0.5665  0.1086  0.2459
 1096loPI   C5A16863   8.855  10.960   7.651 -0.2382 -0.0956 -0.3665
 1096loPI   C6A16864   8.522  10.695   7.765 -0.1228 -0.3280 -0.1157
 1096loPI   C1B16865   9.558  11.233   5.972 -0.0379  0.1347 -0.1771
 1096loPI   C2B16866   9.437  11.253   6.365  0.0266 -0.1117 -0.1266
 1096loPI   C3B16867   9.287  11.267   6.707 -0.0306 -0.2213  0.0351
 1096loPI   C4B16868   9.388  11.263   7.130  0.0035  0.0626  0.1249
 1097loPI    C116869  11.880   7.327   5.088 -0.0205  0.0298  0.0038
 1097loPI    C216870  11.889   7.532   4.745  0.1909  0.0650  0.0291
 1097loPI    C316871  11.827   7.137   4.741  0.0513  0.0869 -0.0386
 1097loPI   PO416872  12.072   7.299   5.246  0.1469 -0.0107  0.0834
 1097loPI   GL116873  12.022   7.088   5.581  0.0330 -0.1375  0.2476
 1097loPI   GL216874  12.173   6.874   5.447  0.0586 -0.3345  0.3565
 1097loPI   C1A16875  11.908   7.178   5.935 -0.0338 -0.1511 -0.1929
 1097loPI   C2A16876  11.733   7.179   6.377  0.3077  0.3452 -0.0838
 1097loPI   C3A16877  11.595   7.353   6.770 -0.4508 -0.4116  0.0138
 1097loPI   C4A16878  11.242   7.589   7.066  0.1905  0.0040 -0.1975
 1097loPI   C5A16879  10.844   7.602   7.378  0.0617 -0.0572  0.4677
 1097loPI   C6A16880  10.434   7.719   7.412 -0.4497  0.0103  0.2199
 1097loPI   C1B16881  12.170   6.789   5.980 -0.1674  0.0016  0.1709
 1097loPI   C2B16882  11.956   6.698   6.304  0.4235 -0.0187  0.1481
 1097loPI   C3B16883  11.955   6.941   6.742 -0.1596 -0.4114 -0.1448
 1097loPI   C4B16884  12.262   6.688   7.020  0.0517 -0.0752 -0.0408
 1098loPI    C116885  14.437   5.724   4.841 -0.1045  0.0692  0.0015
 1098loPI    C216886  14.678   5.865   5.128 -0.0054 -0.4233  0.1693
 1098loPI    C316887  14.668   6.043   4.770  0.0804  0.0265  0.3838
 1098loPI   PO416888  14.293   5.560   5.011 -0.3532 -0.1791 -0.1146
 1098loPI   GL116889  14.281   5.671   5.344  0.0128  0.4317  0.1505
 1098loPI   GL216890  14.019   5.764   5.415 -0.2004  0.0929 -0.3150
 1098loPI   C1A16891  14.311   5.881   5.767  0.0820 -0.0627 -0.4261
 1098loPI   C2A16892  14.145   5.878   6.088 -0.2673  0.1089 -0.0076
 1098loPI   C3A16893  14.053   5.757   6.422 -0.1804 -0.1272  0.0077
 1098loPI   C4A16894  13.980   5.674   6.820 -0.0878 -0.1506 -0.0686
 1098loPI   C5A16895  13.809   5.632   7.336  0.1519  0.2294 -0.0021
 1098loPI   C6A16896  13.562   5.384   7.649  0.1307 -0.3965  0.0154
 1098loPI   C1B16897  13.688   5.722   5.796 -0.2329 -0.0309  0.1982
 1098loPI   C2B16898  13.556   5.518   6.180 -0.0261 -0.1015 -0.1587
 1098loPI   C3B16899  13.562   5.433   6.688 -0.4523 -0.0061 -0.2056
 1098loPI   C4B16900  13.398   5.216   7.115 -0.1660  0.1746 -0.2301
 1099loPI    C116901   7.334   1.259   4.864  0.1505  0.0353 -0.0534
 1099loPI    C216902   7.550   1.008   4.639 -0.0424  0.1243 -0.3427
 1099loPI    C316903   7.616   1.402   4.619  0.0390  0.1225 -0.1318
 1099loPI   PO416904   7.104   1.196   4.885  0.0515  0.4856 -0.1804
 1099loPI   GL116905   6.871   1.379   5.213 -0.1493  0.1974  0.0721
 1099loPI   GL216906   7.045   1.079   5.372  0.2674  0.3129  0.0721
 1099loPI   C1A16907   6.743   1.473   5.576 -0.0085 -0.1212  0.3909
 1099loPI   C2A16908   6.530   1.435   6.003 -0.2444 -0.0234 -0.2865
 1099loPI   C3A16909   6.346   1.733   6.333  0.0294  0.0597  0.0465
 1099loPI   C4A16910   5.935   1.842   6.438  0.0251 -0.0953 -0.0800
 1099loPI   C5A16911   5.816   1.954   6.853 -0.0406  0.2482 -0.1682
 1099loPI   C6A16912   5.420   2.211   7.031 -0.3755  0.0480 -0.1498
 1099loPI   C1B16913   7.291   1.097   5.686 -0.2426 -0.4723 -0.0872
 1099loPI   C2B16914   7.457   0.981   6.120 -0.0424 -0.1697 -0.0180
 1099loPI   C3B16915   7.497   0.746   6.591  0.1536  0.0508  0.0063
 1099loPI   C4B16916   7.678   0.481   6.887  0.3640  0.0214 -0.2021
 1100loPI    C116917   6.267  15.758   4.343 -0.0120 -0.1652  0.3837
 1100loPI    C216918   5.900  15.689   4.200  0.0387  0.2603  0.0251
 1100loPI    C316919   6.167  15.392   4.218 -0.1514  0.0696 -0.2298
 1100loPI   PO416920   6.182  15.839   4.605 -0.0243 -0.1558  0.0147
 1100loPI   GL116921   6.062  15.708   4.965 -0.0354 -0.1112 -0.1797
 1100loPI   GL216922   5.886  15.469   5.140  0.0482 -0.1282  0.1844
 1100loPI   C1A16923   6.223  15.824   5.405  0.2902  0.0548  0.0866
 1100loPI   C2A16924   6.212  15.946   5.885 -0.1000  0.0097 -0.2529
 1100loPI   C3A16925   6.292  16.219   6.211  0.0960 -0.1089 -0.0417
 1100loPI   C4A16926   6.400  16.131   6.574  0.0550  0.5676  0.1491
 1100loPI   C5A16927   6.468  16.455   6.918 -0.1354  0.4031 -0.3451
 1100loPI   C6A16928   6.535  16.724   7.136 -0.2020 -0.0455  0.3139
 1100loPI   C1B16929   5.798  15.648   5.540  0.2325  0.3470  0.1844
 1100loPI   C2B16930   5.575  15.619   5.971 -0.0714 -0.1486  0.0474
 1100loPI   C3B16931   5.309  15.846   6.281  0.1516  0.0074  0.1056
 1100loPI   C4B16932   5.157  16.016   6.637 -0.2029 -0.1325 -0.0219
 1101loPI    C116933  11.764  17.850   4.245 -0.0226 -0.4161 -0.1160
 1101loPI    C216934  11.375  17.772   4.297 -0.1119 -0.0243 -0.1613
 1101loPI    C316935  11.499  17.960   3.967  0.1122 -0.1080 -0.1269
 1101loPI   PO416936  11.775  17.921   4.610  0.3281  0.2257 -0.0921
 1101loPI   GL116937  11.912  17.824   5.009  0.0990 -0.2974  0.0322
 1101loPI   GL216938  11.558  17.802   5.191 -0.1218  0.0836  0.0638
 1101loPI   C1A16939  11.977  17.755   5.375 -0.2655 -0.0426  0.4277
 1101loPI   C2A16940  11.947  17.616   5.800 -0.1726 -0.0714 -0.3964
 1101loPI   C3A16941  11.772  17.690   6.213  0.1918 -0.0600  0.2217
 1101loPI   C4A16942  12.006  17.743   6.544 -0.1085  0.1276 -0.0726
 1101loPI   C5A16943  12.068  18.065   6.881 -0.1174  0.1114 -0.0133
 1101loPI   C6A16944  12.028  18.478   7.007  0.2382  0.0853  0.3328
 1101loPI   C1B16945  11.456  17.633   5.596 -0.0150 -0.1986  0.1832
 1101loPI   C2B16946  11.292  17.546   5.975 -0.0332 -0.0648  0.0462
 1101loPI   C3B16947  11.192  17.435   6.373  0.0024  0.2320  0.5177
 1101loPI   C4B16948  11.250  17.507   6.759  0.1917 -0.0466 -0.3510
 1102loPI    C116949   5.032   3.877   4.855  0.2626 -0.4470  0.1690
 1102loPI    C216950   5.097   4.149   4.569 -0.1990 -0.2148  0.2762
 1102loPI    C316951   5.051   3.764   4.472  0.0268 -0.1940  0.0797
 1102loPI   PO416952   4.783   4.001   5.001  0.0336 -0.5476 -0.1462
 1102loPI   GL116953   4.763   3.854   5.424  0.1338  0.0855 -0.0408
 1102loPI   GL216954   4.833   3.609   5.447  0.2470 -0.0005 -0.1736
 1102loPI   C1A16955   4.433   4.176   5.621 -0.0823  0.1246  0.0964
 1102loPI   C2A16956   4.177   4.147   6.064  0.0164  0.1725  0.2359
 1102loPI   C3A16957   4.259   4.161   6.435  0.2212 -0.2709 -0.0852
 1102loPI   C4A16958   4.315   4.200   6.856  0.3639 -0.3598 -0.4988
 1102loPI   C5A16959   4.226   4.247   7.145  0.1727  0.3182  0.0213
 1102loPI   C6A16960   4.032   4.355   7.525  0.2665 -0.2843  0.1282
 1102loPI   C1B16961   4.979   3.833   5.881 -0.1329  0.2741  0.0262
 1102loPI   C2B16962   5.104   3.808   6.316  0.0792 -0.1681 -0.2924
 1102loPI   C3B16963   5.281   3.990   6.678  0.0977 -0.0073 -0.0137
 1102loPI   C4B16964   5.231   3.935   7.036  0.2905  0.1779 -0.1726
 1103loPI    C116965   4.783  16.901   4.623  0.1099  0.0014 -0.0441
 1103loPI    C216966   4.580  16.988   4.290  0.2626  0.1027 -0.1118
 1103loPI    C316967   4.931  16.796   4.267  0.2697  0.1029 -0.0090
 1103loPI   PO416968   4.723  16.816   4.740 -0.1608 -0.1632 -0.0498
 1103loPI   GL116969   4.608  16.710   5.103 -0.2719  0.2705  0.0698
 1103loPI   GL216970   4.646  16.442   5.351 -0.4600  0.0576  0.1522
 1103loPI   C1A16971   4.418  16.978   5.494  0.1995  0.0835  0.2309
 1103loPI   C2A16972   4.537  17.224   5.875 -0.1408 -0.1192 -0.1801
 1103loPI   C3A16973   4.397  17.390   6.235 -0.2521 -0.0713 -0.0994
 1103loPI   C4A16974   4.460  17.299   6.631  0.0836  0.1340  0.0042
 1103loPI   C5A16975   4.295  17.363   7.005  0.0677  0.0542  0.0419
 1103loPI   C6A16976   3.872  17.168   7.116 -0.1386 -0.1485  0.0694
 1103loPI   C1B16977   4.333  16.513   5.613  0.0554 -0.4076  0.1204
 1103loPI   C2B16978   4.270  16.800   5.909 -0.2368 -0.0863 -0.0941
 1103loPI   C3B16979   4.345  16.905   6.280 -0.0359  0.1994  0.1033
 1103loPI   C4B16980   4.403  16.777   6.672 -0.0720  0.2092  0.1562
 1104loPI    C116981   0.375   6.276   5.218 -0.1452  0.1680 -0.2759
 1104loPI    C216982   0.558   6.489   5.503  0.0521 -0.2859 -0.0526
 1104loPI    C316983   0.472   6.658   5.150  0.3676  0.1049  0.0508
 1104loPI   PO416984   0.464   6.015   5.248  0.0713  0.0090  0.0955
 1104loPI   GL116985   0.772   5.846   5.491 -0.1493 -0.0723  0.0326
 1104loPI   GL216986   0.510   5.732   5.603  0.0503  0.0083 -0.2858
 1104loPI   C1A16987   0.989   5.762   5.876  0.2055  0.0561 -0.1354
 1104loPI   C2A16988   0.920   5.665   6.351  0.0387 -0.2994 -0.1037
 1104loPI   C3A16989   0.856   5.735   6.777  0.2773  0.2128  0.1102
 1104loPI   C4A16990   0.886   5.575   7.261 -0.1030 -0.0842 -0.0844
 1104loPI   C5A16991   0.666   5.365   7.594 -0.1095  0.1388 -0.4791
 1104loPI   C6A16992   0.536   5.597   7.903 -0.1063  0.0603 -0.0840
 1104loPI   C1B16993   0.488   5.772   5.922 -0.3071 -0.2965  0.0923
 1104loPI   C2B16994   0.425   5.762   6.427 -0.0565 -0.1769 -0.1839
 1104loPI   C3B16995   0.296   5.669   6.758  0.0031 -0.1607  0.0036
 1104loPI   C4B16996   0.314   5.558   7.164 -0.0910  0.2464 -0.0231
 1105loPI    C116997   5.050   3.270   4.863 -0.0443  0.0040  0.0029
 1105loPI    C216998   4.733   3.486   4.975 -0.1261 -0.0695 -0.0844
 1105loPI    C316999   4.762   3.357   4.598  0.0347 -0.0172 -0.0904
 1105loPI   PO417000   5.226   3.338   5.086  0.1713  0.3108  0.1039
 1105loPI   GL117001   5.235   3.285   5.458  0.1306  0.0973  0.2573
 1105loPI   GL217002   5.295   2.935   5.456 -0.2275  0.1243 -0.0165
 1105loPI   C1A17003   5.223   3.334   5.856 -0.1556  0.0511  0.3136
 1105loPI   C2A17004   5.213   3.335   6.144  0.0170 -0.0292 -0.1246
 1105loPI   C3A17005   5.526   3.393   6.429  0.2142  0.1330 -0.1765
 1105loPI   C4A17006   5.978   3.436   6.534 -0.2781 -0.2002  0.0866
 1105loPI   C5A17007   6.092   3.828   6.827  0.1183  0.1586 -0.1456
 1105loPI   C6A17008   6.220   3.935   7.249  0.4629  0.1382  0.3035
 1105loPI   C1B17009   5.358   2.855   5.844  0.2872  0.1784 -0.1174
 1105loPI   C2B17010   5.356   2.915   6.322 -0.1291  0.0875  0.1247
 1105loPI   C3B17011   5.136   3.100   6.618  0.0282  0.1618  0.1055
 1105loPI   C4B17012   5.284   3.264   6.905 -0.2004  0.3076 -0.2229
 1106loPI    C117013  16.122  15.041   4.736 -0.0662 -0.1249  0.1075
 1106loPI    C217014  15.878  15.154   5.032  0.0170 -0.0805  0.1596
 1106loPI    C317015  15.819  15.291   4.661 -0.2199 -0.3079  0.1096
 1106loPI   PO417016  16.154  14.801   4.742  0.1058 -0.1603  0.1955
 1106loPI   GL117017  15.871  14.646   5.038  0.4100 -0.0554  0.3744
 1106loPI   GL217018  15.670  14.403   5.079  0.1459  0.0463 -0.1225
 1106loPI   C1A17019  15.928  14.765   5.453  0.0924  0.3715 -0.0019
 1106loPI   C2A17020  15.796  14.671   5.825  0.1776  0.2087 -0.0008
 1106loPI   C3A17021  15.865  14.570   6.173  0.0909 -0.3502  0.1518
 1106loPI   C4A17022  15.991  14.431   6.574  0.1735  0.4063  0.4525
 1106loPI   C5A17023  15.948  14.182   7.041 -0.2001 -0.2061  0.0202
 1106loPI   C6A17024  15.992  13.765   7.283  0.1051  0.2270  0.1028
 1106loPI   C1B17025  15.464  14.371   5.518  0.1737 -0.0926 -0.1969
 1106loPI   C2B17026  15.399  14.360   5.973  0.1980 -0.2114  0.0078
 1106loPI   C3B17027  15.121  14.276   6.384 -0.0326  0.3531 -0.3069
 1106loPI   C4B17028  14.777  13.993   6.453  0.1399 -0.1972  0.1805
 1107loPI    C117029  17.091  10.941   4.696 -0.1217  0.1182  0.0080
 1107loPI    C217030  16.715  10.810   4.739  0.0211 -0.4182 -0.2883
 1107loPI    C317031  16.850  10.914   4.377  0.0895  0.0111 -0.1449
 1107loPI   PO417032  17.042  11.137   4.926  0.3243  0.0156  0.0974
 1107loPI   GL117033  16.896  11.127   5.376  0.2539 -0.1791 -0.1269
 1107loPI   GL217034  16.689  10.932   5.560 -0.1292 -0.0385  0.0097
 1107loPI   C1A17035  17.214  11.230   5.732 -0.0952  0.2823 -0.1794
 1107loPI   C2A17036  17.126  11.271   6.171 -0.4002  0.0908  0.1329
 1107loPI   C3A17037  16.846  11.457   6.541 -0.2619  0.0746 -0.1590
 1107loPI   C4A17038  16.723  11.592   6.949 -0.3569  0.0050 -0.1110
 1107loPI   C5A17039  16.629  11.556   7.451 -0.1212  0.1934 -0.1203
 1107loPI   C6A17040  16.437  11.577   7.745  0.2026 -0.0615 -0.1011
 1107loPI   C1B17041  16.580  11.095   6.009 -0.3055  0.2281  0.2624
 1107loPI   C2B17042  16.503  11.152   6.370 -0.2168  0.0481 -0.2013
 1107loPI   C3B17043  16.220  11.432   6.685 -0.0118  0.0007  0.0815
 1107loPI   C4B17044  16.028  11.670   6.372 -0.0566  0.2234  0.1606
 1108loPI    C117045  11.850   1.150   4.892 -0.1824 -0.4225 -0.0463
 1108loPI    C217046  12.012   1.091   4.530 -0.1372 -0.1287 -0.0762
 1108loPI    C317047  12.098   0.842   4.831  0.0451 -0.2135 -0.1971
 1108loPI   PO417048  11.797   1.294   5.016  0.1117  0.0043  0.2355
 1108loPI   GL117049  11.703   1.308   5.447  0.2404 -0.0948 -0.0871
 1108loPI   GL217050  12.019   1.188   5.512 -0.0153  0.2896 -0.0294
 1108loPI   C1A17051  11.313   1.035   5.711 -0.2311 -0.3203  0.1778
 1108loPI   C2A17052  10.882   1.002   5.861  0.0814  0.0608 -0.2071
 1108loPI   C3A17053  10.790   0.796   6.311 -0.1402 -0.1604  0.1613
 1108loPI   C4A17054  11.008   0.543   6.626  0.2588  0.0775  0.1210
 1108loPI   C5A17055  11.411   0.482   6.893  0.0742  0.0947  0.1695
 1108loPI   C6A17056  11.655   0.567   7.182 -0.1947 -0.0153  0.2845
 1108loPI   C1B17057  12.055   1.383   5.917  0.2720 -0.1418 -0.2374
 1108loPI   C2B17058  12.009   1.487   6.357  0.1334 -0.2739 -0.2734
 1108loPI   C3B17059  11.955   1.563   6.718  0.4364  0.0046  0.1927
 1108loPI   C4B17060  11.789   1.478   7.144 -0.0814 -0.0884 -0.1105
 1109loPI    C117061  16.964   5.238   4.960 -0.1714 -0.0854 -0.1933
 1109loPI    C217062  17.266   5.498   4.918 -0.2688  0.0770  0.0801
 1109loPI    C317063  17.060   5.376   4.597 -0.0366  0.1122 -0.0848
 1109loPI   PO417064  16.867   5.251   5.143 -0.0352  0.0104 -0.2981
 1109loPI   GL117065  16.837   5.490   5.516 -0.0029 -0.4137  0.2311
 1109loPI   GL217066  16.940   5.806   5.655 -0.0920  0.2321  0.0478
 1109loPI   C1A17067  16.706   5.471   5.941  0.2392  0.0826  0.0564
 1109loPI   C2A17068  16.706   5.392   6.268 -0.0872 -0.2888 -0.0981
 1109loPI   C3A17069  16.852   5.229   6.771 -0.2395  0.1327 -0.3046
 1109loPI   C4A17070  16.941   5.477   7.175  0.4169  0.1639 -0.2091
 1109loPI   C5A17071  16.962   5.350   7.541  0.1856  0.1075 -0.1441
 1109loPI   C6A17072  16.966   5.181   7.997  0.1159  0.4231 -0.1496
 1109loPI   C1B17073  17.081   5.836   6.024  0.2015  0.0216 -0.0705
 1109loPI   C2B17074  17.092   5.812   6.440 -0.0365 -0.2898 -0.2318
 1109loPI   C3B17075  16.951   5.891   6.933 -0.0432 -0.2935  0.0447
 1109loPI   C4B17076  16.956   5.984   7.413  0.0202  0.0164 -0.0504
 1110loPI    C117077  18.503  15.762   4.720 -0.1858  0.0802  0.0549
 1110loPI    C217078  18.594  16.060   4.469 -0.2472  0.1513  0.1162
 1110loPI    C317079  18.297  15.807   4.380  0.0230 -0.0979 -0.0978
 1110loPI   PO417080  18.659  15.929   4.974 -0.0755  0.0097 -0.3891
 1110loPI   GL117081  18.612  15.897   5.372  0.0687 -0.4285  0.2349
 1110loPI   GL217082  18.834  16.195   5.399 -0.1143  0.0502 -0.0280
 1110loPI   C1A17083  18.877  15.898   5.849 -0.0031  0.2446 -0.1021
 1110loPI   C2A17084  19.193  15.756   5.858 -0.0672  0.1179  0.2814
 1110loPI   C3A17085  19.564  15.793   6.084  0.0852  0.0728 -0.1770
 1110loPI   C4A17086  19.741  15.886   6.398 -0.2443 -0.0231  0.0472
 1110loPI   C5A17087  19.698  15.578   6.625  0.0293  0.1049  0.2412
 1110loPI   C6A17088  19.754  15.267   6.944 -0.0228 -0.0332  0.1024
 1110loPI   C1B17089  18.774  16.389   5.842 -0.0876  0.1890  0.0108
 1110loPI   C2B17090  18.727  16.474   6.324 -0.0632 -0.0297  0.0230
 1110loPI   C3B17091  18.529  16.719   6.704 -0.0180  0.2630 -0.0169
 1110loPI   C4B17092  18.507  16.951   7.134  0.1922 -0.1607 -0.1856
 1111loPI    C117093   9.807  14.739   4.687  0.2153  0.0772  0.0261
 1111loPI    C217094   9.929  14.407   4.501 -0.0474 -0.1698  0.2856
 1111loPI    C317095   9.744  14.695   4.294  0.2544 -0.1446  0.0434
 1111loPI   PO417096   9.888  14.780   4.868  0.1901  0.1482 -0.4300
 1111loPI   GL117097   9.810  14.853   5.227 -0.0859  0.0614  0.4229
 1111loPI   GL217098   9.593  14.643   5.319 -0.2014  0.3256 -0.0769
 1111loPI   C1A17099  10.041  14.596   5.559  0.0840 -0.0992 -0.2919
 1111loPI   C2A17100   9.874  14.644   6.020  0.1220  0.2042  0.0200
 1111loPI   C3A17101   9.750  14.646   6.437 -0.2994  0.2693  0.2961
 1111loPI   C4A17102   9.863  14.810   6.774 -0.0084 -0.1668  0.2842
 1111loPI   C5A17103  10.116  14.624   7.142  0.3947 -0.1711  0.1959
 1111loPI   C6A17104   9.825  14.268   7.391 -0.2151 -0.0512  0.1074
 1111loPI   C1B17105   9.573  14.410   5.694  0.3361  0.1557 -0.0064
 1111loPI   C2B17106   9.611  14.153   6.075 -0.1100  0.0809 -0.1460
 1111loPI   C3B17107   9.680  14.096   6.483  0.0943 -0.1642  0.1456
 1111loPI   C4B17108   9.580  14.305   6.863 -0.1475 -0.1774  0.0551
 1112loPI    C117109   1.889   0.669   4.709 -0.0121  0.3423  0.2442
 1112loPI    C217110   2.153   0.593   5.000 -0.0110 -0.1059  0.1345
 1112loPI    C317111   2.093   0.324   4.710 -0.0367  0.3185 -0.2653
 1112loPI   PO417112   1.764   0.861   4.807 -0.0082  0.0297 -0.1054
 1112loPI   GL117113   1.581   1.013   5.164 -0.0427  0.1834 -0.0076
 1112loPI   GL217114   1.248   0.966   5.314  0.2123 -0.1658  0.1870
 1112loPI   C1A17115   1.634   0.993   5.656 -0.0174 -0.2409 -0.1315
 1112loPI   C2A17116   1.622   0.936   6.181 -0.2643  0.1126 -0.1090
 1112loPI   C3A17117   1.485   0.978   6.640  0.0305  0.0661  0.1901
 1112loPI   C4A17118   1.325   0.965   7.059 -0.1410 -0.0907  0.1257
 1112loPI   C5A17119   0.910   1.118   7.269 -0.0131  0.0751  0.5922
 1112loPI   C6A17120   0.523   1.237   7.429  0.3283 -0.0375  0.0512
 1112loPI   C1B17121   1.158   1.013   5.698  0.2480  0.1488 -0.2356
 1112loPI   C2B17122   1.084   0.967   6.055  0.1904  0.2327 -0.1130
 1112loPI   C3B17123   0.909   0.930   6.386 -0.0079 -0.0552  0.3005
 1112loPI   C4B17124   0.960   0.905   6.694 -0.1071  0.2178  0.1220
 1113loPI    C117125   9.561   9.530   4.817 -0.1173 -0.0435 -0.0689
 1113loPI    C217126   9.897   9.351   4.697 -0.0788 -0.0133 -0.0064
 1113loPI    C317127   9.752   9.661   4.492  0.0871  0.1557  0.1276
 1113loPI   PO417128   9.610   9.638   5.175  0.0037  0.0174 -0.1233
 1113loPI   GL117129   9.348   9.755   5.539 -0.0786  0.1362 -0.2115
 1113loPI   GL217130   9.307   9.528   5.696  0.0796 -0.2392  0.0708
 1113loPI   C1A17131   9.264  10.054   5.995  0.4342 -0.1416  0.0385
 1113loPI   C2A17132   9.421  10.272   6.352 -0.0424  0.0569  0.0171
 1113loPI   C3A17133   9.647  10.335   6.769 -0.0116  0.2014  0.1716
 1113loPI   C4A17134   9.581  10.118   7.214  0.2432  0.0107 -0.2203
 1113loPI   C5A17135   9.716   9.843   7.461 -0.0907  0.0137 -0.2270
 1113loPI   C6A17136   9.946   9.670   7.720  0.0665 -0.0575 -0.1916
 1113loPI   C1B17137   9.196   9.418   6.030  0.0027 -0.0346 -0.1870
 1113loPI   C2B17138   9.297   9.273   6.389  0.1456  0.0067 -0.2774
 1113loPI   C3B17139   9.213   9.279   6.727  0.1187  0.1028  0.1899
 1113loPI   C4B17140   8.995   9.272   7.220 -0.0263  0.0304  0.0030
 1114loPI    C117141   8.593   3.190   4.535 -0.1823 -0.0254 -0.2716
 1114loPI    C217142   8.655   3.582   4.483 -0.0744  0.0344  0.2494
 1114loPI    C317143   8.935   3.318   4.373 -0.1022  0.1074 -0.0035
 1114loPI   PO417144   8.529   3.161   4.809 -0.2579 -0.2615  0.2622
 1114loPI   GL117145   8.325   3.225   5.180 -0.1295 -0.1047 -0.0747
 1114loPI   GL217146   8.719   3.365   5.373  0.4322  0.3248  0.1067
 1114loPI   C1A17147   8.303   3.310   5.589  0.0896  0.0013  0.2160
 1114loPI   C2A17148   8.230   3.348   5.942 -0.2094 -0.0640  0.2249
 1114loPI   C3A17149   8.294   3.316   6.283  0.1433  0.1331 -0.1014
 1114loPI   C4A17150   8.342   3.371   6.645  0.1046  0.1228  0.0516
 1114loPI   C5A17151   8.414   3.529   7.015 -0.1905 -0.0150  0.0405
 1114loPI   C6A17152   8.589   3.395   7.406  0.0582 -0.1590  0.0597
 1114loPI   C1B17153   8.766   3.158   5.734 -0.2084  0.3175 -0.1221
 1114loPI   C2B17154   8.673   3.098   6.147  0.1277 -0.0421  0.2746
 1114loPI   C3B17155   8.720   2.918   6.570  0.0180  0.0312 -0.3199
 1114loPI   C4B17156   8.906   3.128   6.986 -0.0748  0.2290 -0.0474
 1115loPI    C117157   1.064   5.448   5.055 -0.0301 -0.0454  0.1546
 1115loPI    C217158   0.832   5.404   4.732 -0.1283  0.1068  0.2034
 1115loPI    C317159   1.192   5.230   4.745 -0.0592  0.2254 -0.0522
 1115loPI   PO417160   0.962   5.458   5.287 -0.0198 -0.0041 -0.1625
 1115loPI   GL117161   1.047   5.315   5.677  0.2734  0.1260  0.0170
 1115loPI   GL217162   1.187   5.008   5.740  0.2276  0.2359 -0.0000
 1115loPI   C1A17163   1.320   5.378   6.085  0.1671 -0.1595 -0.3635
 1115loPI   C2A17164   1.203   5.325   6.526 -0.2036 -0.1607  0.0385
 1115loPI   C3A17165   1.274   5.205   6.934 -0.1006  0.0615 -0.2315
 1115loPI   C4A17166   1.104   5.077   7.402  0.1007 -0.1348 -0.0219
 1115loPI   C5A17167   1.004   4.859   7.745 -0.3023  0.1585  0.0870
 1115loPI   C6A17168   0.821   4.726   8.153  0.1715 -0.1453  0.0250
 1115loPI   C1B17169   1.141   4.893   6.178 -0.1681 -0.1505  0.1112
 1115loPI   C2B17170   0.967   4.868   6.647 -0.0918 -0.0031 -0.3246
 1115loPI   C3B17171   1.050   4.744   7.069  0.1094  0.1555  0.0869
 1115loPI   C4B17172   0.869   4.515   7.381 -0.1219  0.1018 -0.2259
 1116loPI    C117173  13.043  15.906   4.587 -0.1083  0.0686 -0.1239
 1116loPI    C217174  13.387  15.764   4.441 -0.0428 -0.2039  0.2816
 1116loPI    C317175  13.040  15.644   4.284  0.0427  0.1965 -0.2378
 1116loPI   PO417176  13.098  16.001   4.821  0.0050 -0.1898  0.0307
 1116loPI   GL117177  13.285  15.922   5.178  0.0147 -0.2086  0.1302
 1116loPI   GL217178  13.298  16.313   5.251 -0.1471  0.0386 -0.0785
 1116loPI   C1A17179  13.149  16.009   5.646 -0.0357 -0.0465 -0.2102
 1116loPI   C2A17180  13.002  15.818   5.898  0.0246  0.1438 -0.3640
 1116loPI   C3A17181  12.770  15.721   6.214  0.2129  0.3249 -0.0649
 1116loPI   C4A17182  12.817  15.710   6.670  0.1339  0.0196 -0.0211
 1116loPI   C5A17183  12.671  15.783   7.095  0.2144 -0.0965  0.1613
 1116loPI   C6A17184  12.840  16.107   7.354  0.0625 -0.1431  0.2423
 1116loPI   C1B17185  13.258  16.439   5.724 -0.1694 -0.0182 -0.1815
 1116loPI   C2B17186  13.221  16.200   6.164  0.3111 -0.0313  0.2323
 1116loPI   C3B17187  13.317  15.920   6.416  0.0328 -0.0190  0.1197
 1116loPI   C4B17188  13.370  15.839   6.847  0.3525 -0.0639 -0.0907
 1117loPI    C117189   9.282   7.907   5.081 -0.3215  0.0541 -0.1787
 1117loPI    C217190   9.488   8.179   4.871 -0.0776  0.0488  0.0486
 1117loPI    C317191   9.383   7.833   4.701  0.0541  0.0747 -0.0876
 1117loPI   PO417192   9.416   7.871   5.285 -0.0119 -0.0160  0.0051
 1117loPI   GL117193   9.458   8.008   5.688  0.1590 -0.1468 -0.1526
 1117loPI   GL217194   9.425   8.330   5.840  0.2976 -0.1437 -0.1026
 1117loPI   C1A17195   9.309   7.918   6.162  0.6509 -0.1010  0.2687
 1117loPI   C2A17196   9.412   7.977   6.578  0.0636  0.6284 -0.1637
 1117loPI   C3A17197   9.392   7.906   6.960  0.2186  0.0251  0.0853
 1117loPI   C4A17198   9.062   7.827   7.272 -0.1779 -0.1858 -0.0105
 1117loPI   C5A17199   9.063   8.157   7.616  0.1351 -0.0376  0.1417
 1117loPI   C6A17200   9.107   8.175   8.085  0.2051 -0.0209  0.0586
 1117loPI   C1B17201   9.317   8.399   6.337  0.3138 -0.1763 -0.1457
 1117loPI   C2B17202   9.368   8.637   6.777 -0.1029  0.0571  0.1979
 1117loPI   C3B17203   9.390   8.887   7.098  0.1007 -0.1158 -0.1476
 1117loPI   C4B17204   9.588   8.808   7.482 -0.0482  0.1310 -0.1711
 1118loPI    C117205  10.342  17.506   4.621 -0.1072  0.1641  0.1168
 1118loPI    C217206   9.972  17.371   4.549 -0.0517  0.2030 -0.2582
 1118loPI    C317207  10.217  17.459   4.244  0.3701 -0.1002 -0.0170
 1118loPI   PO417208  10.282  17.714   4.904  0.0132  0.0779 -0.0836
 1118loPI   GL117209  10.499  17.877   5.268  0.2199 -0.0110  0.0008
 1118loPI   GL217210  10.449  17.635   5.478  0.0127 -0.0833  0.0912
 1118loPI   C1A17211  10.516  17.991   5.802  0.2552 -0.1061 -0.1078
 1118loPI   C2A17212  10.440  18.100   6.300  0.0126  0.0355  0.1587
 1118loPI   C3A17213  10.188  18.118   6.641 -0.0725 -0.1947 -0.0087
 1118loPI   C4A17214  10.000  17.923   6.929  0.2331 -0.2174  0.4085
 1118loPI   C5A17215  10.037  17.594   7.190 -0.1584  0.1148  0.2383
 1118loPI   C6A17216  10.205  17.310   7.567 -0.1699 -0.0503  0.2613
 1118loPI   C1B17217  10.158  17.655   5.775  0.1921  0.1078 -0.2526
 1118loPI   C2B17218  10.057  17.719   6.102  0.1974  0.0120  0.2715
 1118loPI   C3B17219   9.918  17.712   6.499  0.0838  0.1767 -0.0962
 1118loPI   C4B17220   9.508  17.843   6.695  0.0372  0.1280  0.0431
 1119loPI    C117221  17.684  14.452   4.945 -0.1440 -0.1644 -0.2159
 1119loPI    C217222  17.962  14.588   4.691  0.0545 -0.2694 -0.0573
 1119loPI    C317223  17.674  14.343   4.560  0.0091 -0.1253 -0.2314
 1119loPI   PO417224  17.847  14.395   5.217 -0.0085  0.3164 -0.0840
 1119loPI   GL117225  18.018  14.275   5.627  0.0499 -0.1746  0.1211
 1119loPI   GL217226  17.770  14.528   5.692  0.4186 -0.3192  0.2902
 1119loPI   C1A17227  17.980  14.119   6.016 -0.2431 -0.4513 -0.3160
 1119loPI   C2A17228  17.981  14.409   6.439 -0.4078 -0.2898 -0.0616
 1119loPI   C3A17229  18.077  14.607   6.835 -0.1580 -0.0448  0.2225
 1119loPI   C4A17230  18.345  14.595   7.200  0.3361  0.0138  0.0922
 1119loPI   C5A17231  18.630  14.544   7.431 -0.2992 -0.0524  0.0935
 1119loPI   C6A17232  18.597  14.551   7.796  0.1180  0.0484 -0.1851
 1119loPI   C1B17233  17.545  14.404   6.134  0.2663 -0.0587  0.2098
 1119loPI   C2B17234  17.582  14.166   6.562  0.3057  0.3678  0.0315
 1119loPI   C3B17235  17.457  14.069   7.021  0.2804  0.2580  0.1224
 1119loPI   C4B17236  17.344  13.675   7.143  0.3890 -0.1395 -0.2820
 1120loPI    C117237  17.503   4.904   5.166 -0.4698 -0.1522 -0.0455
 1120loPI    C217238  17.394   4.958   4.785  0.0164 -0.0666 -0.1800
 1120loPI    C317239  17.565   4.615   4.897 -0.1938 -0.1212 -0.0179
 1120loPI   PO417240  17.319   5.022   5.311 -0.2714  0.1484  0.0689
 1120loPI   GL117241  17.248   5.180   5.709  0.3418 -0.0086 -0.1872
 1120loPI   GL217242  17.226   5.366   5.912  0.3116 -0.2869 -0.2809
 1120loPI   C1A17243  17.440   4.968   6.019  0.0520  0.1471 -0.1811
 1120loPI   C2A17244  17.632   4.952   6.502 -0.2977  0.3044  0.0168
 1120loPI   C3A17245  17.687   4.893   6.895  0.2900 -0.3045  0.1243
 1120loPI   C4A17246  17.518   4.568   7.224 -0.0156 -0.0927 -0.0594
 1120loPI   C5A17247  17.701   4.622   7.630 -0.1630 -0.1166 -0.0052
 1120loPI   C6A17248  17.987   4.477   8.013  0.3679  0.2111 -0.0088
 1120loPI   C1B17249  17.228   5.301   6.455 -0.0124 -0.0329 -0.0189
 1120loPI   C2B17250  17.383   5.370   6.922  0.0800  0.0597 -0.0672
 1120loPI   C3B17251  17.304   5.157   7.254  0.0462  0.3670  0.3971
 1120loPI   C4B17252  17.233   4.890   7.599  0.0828  0.2171  0.2159
 1121loPI    C117253  13.769   8.304   5.178 -0.1648 -0.0694  0.0693
 1121loPI    C217254  14.115   8.243   4.987 -0.1280 -0.1831  0.1707
 1121loPI    C317255  13.816   8.436   4.803  0.0165 -0.0130  0.1114
 1121loPI   PO417256  13.834   8.251   5.443 -0.1692  0.2783  0.1414
 1121loPI   GL117257  13.952   8.427   5.739  0.0467 -0.6237 -0.0000
 1121loPI   GL217258  14.049   8.695   5.783  0.2301  0.4086 -0.0408
 1121loPI   C1A17259  14.096   8.163   5.978  0.0315  0.0670 -0.3268
 1121loPI   C2A17260  14.155   7.988   6.405  0.0833 -0.0300  0.1024
 1121loPI   C3A17261  14.037   8.104   6.911 -0.1825  0.2226  0.2419
 1121loPI   C4A17262  13.691   8.074   7.212 -0.0247  0.4831 -0.1523
 1121loPI   C5A17263  13.427   8.192   7.589  0.2487  0.2536  0.1169
 1121loPI   C6A17264  13.334   7.898   7.913 -0.1054 -0.1576 -0.1620
 1121loPI   C1B17265  13.956   8.656   6.211  0.0115 -0.0172  0.1036
 1121loPI   C2B17266  13.950   8.654   6.660 -0.0826 -0.1968 -0.0140
 1121loPI   C3B17267  14.041   8.598   7.058 -0.1931  0.4112 -0.0690
 1121loPI   C4B17268  14.411   8.579   7.438  0.2529  0.2003 -0.0485
 1122loPI    C117269   3.001   3.662   4.449 -0.2539 -0.0314 -0.0531
 1122loPI    C217270   2.988   3.390   4.157  0.0090 -0.0001 -0.0964
 1122loPI    C317271   2.764   3.720   4.132 -0.1247 -0.0947 -0.1622
 1122loPI   PO417272   3.053   3.496   4.792  0.1110  0.0570  0.5564
 1122loPI   GL117273   3.156   3.501   5.339 -0.0904 -0.1386 -0.1871
 1122loPI   GL217274   2.940   3.521   5.312  0.0637  0.1346  0.1139
 1122loPI   C1A17275   3.012   3.683   5.765  0.1417 -0.0894  0.2067
 1122loPI   C2A17276   2.948   3.525   6.082  0.0832  0.0266 -0.1037
 1122loPI   C3A17277   3.141   3.547   6.463 -0.1767  0.2555 -0.0347
 1122loPI   C4A17278   3.007   3.899   6.699 -0.3664  0.3497  0.3671
 1122loPI   C5A17279   2.956   4.020   7.097  0.2135 -0.0779 -0.0169
 1122loPI   C6A17280   3.191   4.025   7.511 -0.1356  0.0764 -0.1326
 1122loPI   C1B17281   2.857   3.187   5.597 -0.1178  0.0789 -0.2648
 1122loPI   C2B17282   2.602   3.143   5.972 -0.1753 -0.0367 -0.0861
 1122loPI   C3B17283   2.603   3.004   6.377 -0.1272 -0.2263 -0.0561
 1122loPI   C4B17284   2.624   2.842   6.735 -0.2869 -0.2221  0.1469
 1123loPI    C117285   9.448   3.390   4.692 -0.1451 -0.0068 -0.2031
 1123loPI    C217286   9.735   3.324   4.422  0.0460 -0.2234  0.0474
 1123loPI    C317287   9.458   3.044   4.491 -0.3087  0.0348 -0.2846
 1123loPI   PO417288   9.606   3.523   4.922 -0.2508 -0.0494 -0.0030
 1123loPI   GL117289   9.875   3.514   5.227 -0.4308  0.2506 -0.0714
 1123loPI   GL217290  10.128   3.477   5.545 -0.0179 -0.1886 -0.1079
 1123loPI   C1A17291   9.618   3.493   5.727  0.0390  0.0786 -0.0338
 1123loPI   C2A17292   9.617   3.227   6.088  0.2570 -0.1261  0.2694
 1123loPI   C3A17293   9.671   3.229   6.539 -0.0977  0.3379 -0.3023
 1123loPI   C4A17294   9.883   3.456   6.932  0.2190  0.1206 -0.0887
 1123loPI   C5A17295  10.002   3.803   7.154 -0.5250  0.1925  0.1846
 1123loPI   C6A17296  10.167   4.173   7.157 -0.1520 -0.2071  0.1193
 1123loPI   C1B17297  10.195   3.424   5.963 -0.0543  0.1624 -0.0067
 1123loPI   C2B17298  10.579   3.409   6.177 -0.0346  0.0267  0.5026
 1123loPI   C3B17299  10.719   3.419   6.535 -0.0349  0.1112 -0.0218
 1123loPI   C4B17300  10.878   3.475   6.950  0.3823 -0.2170  0.1912
 1124loPI    C117301   1.562   0.312   4.558  0.0518  0.1403 -0.1614
 1124loPI    C217302   1.591   0.068   4.242 -0.2451  0.0691 -0.1369
 1124loPI    C317303   1.832   0.386   4.272  0.0920 -0.1738 -0.2088
 1124loPI   PO417304   1.488   0.044   4.740 -0.0767  0.0742 -0.3979
 1124loPI   GL117305   1.488  -0.144   5.119 -0.1516  0.0508  0.0048
 1124loPI   GL217306   1.611  -0.259   5.273  0.0525  0.0610 -0.2082
 1124loPI   C1A17307   0.998  -0.010   5.282 -0.2624  0.0406  0.1972
 1124loPI   C2A17308   0.671  -0.127   5.581 -0.0034  0.0117  0.1589
 1124loPI   C3A17309   0.584  -0.089   6.069  0.0874  0.0934  0.2410
 1124loPI   C4A17310   0.380   0.103   6.481  0.1678 -0.0411 -0.1885
 1124loPI   C5A17311   0.199  -0.022   6.973 -0.0810  0.1298  0.0886
 1124loPI   C6A17312   0.227  -0.420   6.965 -0.0344  0.0778 -0.0598
 1124loPI   C1B17313   1.692  -0.273   5.681  0.0622 -0.1001  0.3525
 1124loPI   C2B17314   1.864  -0.172   6.122 -0.0640 -0.0887 -0.1878
 1124loPI   C3B17315   2.037  -0.293   6.468  0.1004  0.2981 -0.2756
 1124loPI   C4B17316   2.263  -0.122   6.890 -0.0716  0.0357  0.5904
 1125loPI    C117317  13.711  14.506   4.639 -0.0481  0.0560  0.1664
 1125loPI    C217318  13.870  14.851   4.765 -0.0747  0.1443 -0.0369
 1125loPI    C317319  13.999  14.684   4.425 -0.0634 -0.0459  0.0598
 1125loPI   PO417320  13.560  14.447   4.875 -0.5780 -0.1560  0.0966
 1125loPI   GL117321  13.584  14.592   5.342  0.1901 -0.2853 -0.1147
 1125loPI   GL217322  13.928  14.659   5.404 -0.1332 -0.1326  0.0782
 1125loPI   C1A17323  13.484  14.591   5.793  0.3318 -0.0770  0.2064
 1125loPI   C2A17324  13.439  14.455   6.334 -0.0187 -0.1338  0.3261
 1125loPI   C3A17325  13.545  14.271   6.680 -0.0591  0.2651  0.0877
 1125loPI   C4A17326  13.743  14.001   7.002  0.0266 -0.0272 -0.2079
 1125loPI   C5A17327  13.542  13.769   7.276  0.0144 -0.1914 -0.1159
 1125loPI   C6A17328  13.580  13.573   7.687  0.1310  0.0524 -0.1149
 1125loPI   C1B17329  14.059  14.725   5.854  0.1260  0.0497  0.0285
 1125loPI   C2B17330  13.991  14.628   6.316 -0.0173 -0.2311 -0.2208
 1125loPI   C3B17331  13.820  14.742   6.685  0.0534  0.4491  0.2071
 1125loPI   C4B17332  13.684  14.548   7.055 -0.2236  0.0177 -0.1036
 1126loPI    C117333   1.381  15.509   4.902 -0.0405 -0.1871  0.1819
 1126loPI    C217334   1.394  15.310   4.556 -0.0572 -0.0727  0.1148
 1126loPI    C317335   1.648  15.611   4.623  0.1237 -0.2647  0.3092
 1126loPI   PO417336   1.405  15.261   5.153  0.0003  0.0433 -0.0095
 1126loPI   GL117337   1.540  15.002   5.545  0.0517 -0.1886 -0.1391
 1126loPI   GL217338   1.531  14.759   5.534  0.3430  0.0099  0.2249
 1126loPI   C1A17339   1.672  15.132   5.959  0.2025  0.0471 -0.0572
 1126loPI   C2A17340   1.822  15.155   6.398 -0.0989 -0.0041 -0.3541
 1126loPI   C3A17341   1.571  15.321   6.733  0.0289  0.0968  0.0812
 1126loPI   C4A17342   1.620  15.467   7.138  0.0242  0.1003  0.0161
 1126loPI   C5A17343   1.963  15.688   7.490 -0.0327  0.0662 -0.1986
 1126loPI   C6A17344   1.955  15.659   7.950  0.1357 -0.2263  0.0175
 1126loPI   C1B17345   1.262  14.869   5.880  0.3559 -0.1919  0.0197
 1126loPI   C2B17346   1.299  15.036   6.304 -0.0840 -0.1648  0.1120
 1126loPI   C3B17347   1.173  14.956   6.713 -0.0115 -0.0826 -0.3402
 1126loPI   C4B17348   1.434  14.964   7.135  0.1038  0.1111 -0.4119
 1127loPI    C117349  16.408   5.603   5.085  0.0470 -0.0374  0.0280
 1127loPI    C217350  16.769   5.715   4.957  0.0684 -0.1239  0.0123
 1127loPI    C317351  16.553   5.456   4.743 -0.0336 -0.0166 -0.0154
 1127loPI   PO417352  16.391   5.495   5.241 -0.2280  0.0893 -0.0117
 1127loPI   GL117353  16.234   5.527   5.639 -0.1343  0.2498 -0.2439
 1127loPI   GL217354  16.227   5.145   5.708  0.0513  0.3852 -0.1471
 1127loPI   C1A17355  16.075   5.477   6.050  0.0499  0.1659  0.1142
 1127loPI   C2A17356  16.057   5.584   6.506  0.0655 -0.1778  0.2117
 1127loPI   C3A17357  16.014   5.643   6.994  0.2200  0.2494 -0.0306
 1127loPI   C4A17358  15.738   5.572   7.294 -0.1872 -0.1752  0.1257
 1127loPI   C5A17359  15.489   5.661   7.741  0.1354 -0.1073 -0.0448
 1127loPI   C6A17360  15.598   5.783   8.217  0.2741  0.1447 -0.0474
 1127loPI   C1B17361  16.372   5.068   6.137  0.1269 -0.1973  0.0703
 1127loPI   C2B17362  16.330   5.156   6.527 -0.0079 -0.2126  0.3449
 1127loPI   C3B17363  16.360   5.219   6.942 -0.2687 -0.1034  0.1987
 1127loPI   C4B17364  16.410   5.313   7.411 -0.2857  0.0547  0.0907
 1128loPI    C117365   8.685   9.272   4.977 -0.0524 -0.0853  0.0669
 1128loPI    C217366   8.413   9.472   4.762  0.0838  0.0386  0.0075
 1128loPI    C317367   8.612   9.166   4.599  0.1441  0.0941 -0.0236
 1128loPI   PO417368   8.602   9.234   5.200  0.1700  0.3584 -0.4366
 1128loPI   GL117369   8.467   8.858   5.611 -0.0879  0.1293 -0.0621
 1128loPI   GL217370   8.386   8.579   5.697 -0.1816  0.3459 -0.3695
 1128loPI   C1A17371   8.438   8.918   6.020  0.0453 -0.0117 -0.1002
 1128loPI   C2A17372   8.430   9.087   6.393  0.2283 -0.1357 -0.0922
 1128loPI   C3A17373   8.245   9.306   6.745  0.1598 -0.3012 -0.0388
 1128loPI   C4A17374   8.033   9.511   7.075 -0.1752 -0.0364 -0.1912
 1128loPI   C5A17375   7.863   9.538   7.394 -0.0894 -0.2565  0.0023
 1128loPI   C6A17376   7.612   9.399   7.678 -0.1714  0.2097  0.0530
 1128loPI   C1B17377   8.510   8.471   6.162  0.1018  0.1167  0.2334
 1128loPI   C2B17378   8.505   8.588   6.495 -0.0094  0.1093 -0.0293
 1128loPI   C3B17379   8.562   8.521   6.908  0.0420  0.2334 -0.0569
 1128loPI   C4B17380   8.379   8.636   7.288  0.1345  0.0039  0.1747
 1129loPI    C117381   5.035   9.748   4.915 -0.0398 -0.1733  0.1149
 1129loPI    C217382   5.298  10.013   5.060 -0.2845  0.0535  0.1541
 1129loPI    C317383   5.133  10.071   4.700  0.0549 -0.3245 -0.0721
 1129loPI   PO417384   4.851   9.707   5.076 -0.0001 -0.2571 -0.0352
 1129loPI   GL117385   4.828   9.576   5.474  0.2335 -0.1270  0.1041
 1129loPI   GL217386   4.888   9.752   5.735 -0.0055  0.1614 -0.0926
 1129loPI   C1A17387   4.720   9.284   5.801 -0.1693 -0.2047  0.2735
 1129loPI   C2A17388   4.451   9.197   6.225  0.0781  0.3804 -0.2960
 1129loPI   C3A17389   4.614   9.365   6.577 -0.2897 -0.0498  0.0189
 1129loPI   C4A17390   4.889   9.325   6.984  0.1136  0.2436  0.0829
 1129loPI   C5A17391   5.213   9.221   7.352  0.1115  0.1050  0.1049
 1129loPI   C6A17392   5.528   9.106   7.613 -0.4034 -0.2134  0.1361
 1129loPI   C1B17393   4.956   9.643   6.218  0.2333  0.1944  0.0346
 1129loPI   C2B17394   5.104   9.645   6.653 -0.3613 -0.0890  0.0749
 1129loPI   C3B17395   5.327   9.720   7.041  0.1268 -0.0076  0.0607
 1129loPI   C4B17396   5.514   9.830   7.384 -0.1299  0.2102  0.1033
 1130loPI    C117397   5.872   0.011   4.802 -0.1680  0.0227 -0.1709
 1130loPI    C217398   6.167   0.110   4.550 -0.1597 -0.2715 -0.2811
 1130loPI    C317399   5.980  -0.241   4.511 -0.3091 -0.2251 -0.0122
 1130loPI   PO417400   5.965   0.102   5.063 -0.0057  0.0192  0.2180
 1130loPI   GL117401   5.815   0.192   5.355  0.0629  0.1279 -0.6089
 1130loPI   GL217402   6.129   0.234   5.496  0.2133  0.2724  0.4860
 1130loPI   C1A17403   5.627   0.401   5.678 -0.0950 -0.1412 -0.0223
 1130loPI   C2A17404   5.637   0.441   6.101 -0.0173  0.0353 -0.0241
 1130loPI   C3A17405   5.655   0.523   6.430  0.1791 -0.2293  0.1297
 1130loPI   C4A17406   5.513   0.929   6.551  0.2189 -0.0287 -0.0447
 1130loPI   C5A17407   5.669   1.322   6.690  0.0453  0.3064 -0.1599
 1130loPI   C6A17408   5.829   1.518   7.162  0.2026 -0.0421 -0.1438
 1130loPI   C1B17409   5.956   0.077   5.863 -0.0057 -0.0012  0.0413
 1130loPI   C2B17410   5.842   0.006   6.216 -0.1064 -0.1786 -0.0928
 1130loPI   C3B17411   5.430   0.076   6.414 -0.0260 -0.0681  0.3004
 1130loPI   C4B17412   4.976   0.109   6.578 -0.2320  0.1716  0.1087
 1131loPI    C117413   4.099  11.937   4.824  0.0577  0.1372 -0.1571
 1131loPI    C217414   3.786  11.737   4.676 -0.0487  0.1388  0.0617
 1131loPI    C317415   4.158  11.633   4.571 -0.1170  0.0571 -0.1030
 1131loPI   PO417416   4.087  11.892   5.073  0.2123  0.0604 -0.1626
 1131loPI   GL117417   4.207  11.725   5.479  0.2100  0.2464 -0.1051
 1131loPI   GL217418   4.168  11.397   5.488 -0.0315  0.1796  0.1280
 1131loPI   C1A17419   4.039  11.967   5.813  0.0450 -0.1113  0.0690
 1131loPI   C2A17420   4.145  12.052   6.283  0.3528  0.0582 -0.1208
 1131loPI   C3A17421   4.556  11.873   6.472 -0.0281 -0.1054  0.3946
 1131loPI   C4A17422   4.920  11.601   6.596 -0.0775 -0.0224  0.0533
 1131loPI   C5A17423   4.973  11.625   6.963 -0.1514 -0.3383  0.2078
 1131loPI   C6A17424   5.166  11.687   7.379 -0.2693  0.0508 -0.1126
 1131loPI   C1B17425   4.057  11.479   5.911 -0.4307  0.1444  0.0641
 1131loPI   C2B17426   4.139  11.473   6.331  0.1681 -0.1438 -0.0753
 1131loPI   C3B17427   4.188  11.642   6.669 -0.0715 -0.1795  0.0718
 1131loPI   C4B17428   4.446  11.622   7.084  0.0022 -0.2552  0.4546
 1132loPI    C117429  15.657  17.256   4.529 -0.0030 -0.0792  0.0715
 1132loPI    C217430  15.496  17.418   4.200  0.0735 -0.1611 -0.0069
 1132loPI    C317431  15.816  17.179   4.170  0.1887 -0.0291  0.1444
 1132loPI   PO417432  15.486  17.156   4.701 -0.0171  0.1476 -0.0518
 1132loPI   GL117433  15.288  17.313   4.985 -0.0971 -0.2044 -0.2412
 1132loPI   GL217434  15.469  17.555   4.957 -0.1752 -0.2168 -0.1480
 1132loPI   C1A17435  15.167  17.294   5.420 -0.0657 -0.1113 -0.3614
 1132loPI   C2A17436  15.069  17.411   5.847 -0.0401  0.1083  0.0906
 1132loPI   C3A17437  15.209  17.234   6.167 -0.1404 -0.0587  0.0573
 1132loPI   C4A17438  15.311  17.469   6.594  0.1673  0.0300  0.1617
 1132loPI   C5A17439  15.315  17.700   6.970 -0.2386  0.3502  0.0020
 1132loPI   C6A17440  15.587  17.724   7.212 -0.0950 -0.2119 -0.1151
 1132loPI   C1B17441  15.754  17.579   5.371 -0.2348 -0.2822 -0.3222
 1132loPI   C2B17442  15.903  17.814   5.723 -0.0492 -0.2025  0.1601
 1132loPI   C3B17443  15.709  17.932   6.151  0.3710  0.2667  0.0201
 1132loPI   C4B17444  15.509  17.909   6.564 -0.0781  0.2687  0.0811
 1133loPI    C117445  12.169   3.969   4.679 -0.1016 -0.0836  0.0551
 1133loPI    C217446  12.240   4.298   4.463  0.1681 -0.0227  0.2313
 1133loPI    C317447  11.925   4.067   4.378  0.2133  0.0535 -0.1604
 1133loPI   PO417448  12.206   3.996   5.030  0.0737 -0.0024 -0.2497
 1133loPI   GL117449  12.118   3.947   5.445 -0.0455  0.0972 -0.1357
 1133loPI   GL217450  12.362   3.931   5.569  0.0436  0.0604 -0.2436
 1133loPI   C1A17451  11.853   4.059   5.801 -0.0907  0.1578 -0.1456
 1133loPI   C2A17452  11.635   4.001   6.051 -0.0362 -0.1569 -0.2542
 1133loPI   C3A17453  11.481   3.940   6.443 -0.3139  0.0979 -0.0652
 1133loPI   C4A17454  11.337   3.688   6.887 -0.1645  0.4343  0.1913
 1133loPI   C5A17455  11.296   3.417   7.326  0.0771  0.2436  0.0921
 1133loPI   C6A17456  10.934   3.325   7.558 -0.0538  0.0050  0.0956
 1133loPI   C1B17457  12.550   3.834   6.053 -0.0907  0.0782  0.3413
 1133loPI   C2B17458  12.450   3.696   6.456  0.1923  0.2905 -0.0427
 1133loPI   C3B17459  12.254   3.543   6.883  0.1158 -0.1198  0.0552
 1133loPI   C4B17460  12.162   3.347   7.219 -0.1112 -0.0113 -0.1421
 1134loPI    C117461  18.641  12.907   4.771  0.0457 -0.0208  0.0433
 1134loPI    C217462  18.367  13.158   4.918  0.0047  0.0250 -0.1097
 1134loPI    C317463  18.629  13.286   4.644  0.2695  0.0190  0.1362
 1134loPI   PO417464  18.711  12.740   4.952 -0.1363  0.0340 -0.0108
 1134loPI   GL117465  18.628  12.898   5.408  0.0269  0.1309  0.0430
 1134loPI   GL217466  18.569  12.624   5.388 -0.1152  0.0094 -0.1344
 1134loPI   C1A17467  18.536  12.781   5.931  0.0569 -0.0257  0.1574
 1134loPI   C2A17468  18.581  12.745   6.446  0.2722  0.0787 -0.1260
 1134loPI   C3A17469  18.665  12.827   6.829 -0.0168  0.1751 -0.1995
 1134loPI   C4A17470  18.522  12.509   7.118 -0.1075 -0.2234  0.2281
 1134loPI   C5A17471  18.752  12.364   7.481  0.1895  0.3247 -0.0820
 1134loPI   C6A17472  18.613  12.168   7.960  0.0218 -0.3430  0.3723
 1134loPI   C1B17473  18.850  12.527   5.705 -0.2460  0.0149  0.2109
 1134loPI   C2B17474  18.940  12.468   6.196 -0.0815 -0.2223  0.0211
 1134loPI   C3B17475  19.124  12.539   6.595  0.0836  0.0421  0.0940
 1134loPI   C4B17476  19.424  12.485   6.961  0.1279  0.2208 -0.0272
 1135loPI    C117477  10.513   2.266   4.858 -0.0012  0.1241 -0.0149
 1135loPI    C217478  10.491   1.945   4.622 -0.3598  0.2578 -0.1703
 1135loPI    C317479  10.648   2.285   4.482  0.2040  0.1026  0.0562
 1135loPI   PO417480  10.501   2.146   5.037 -0.0997  0.1913 -0.1106
 1135loPI   GL117481  10.424   1.972   5.389  0.1855 -0.3397  0.1091
 1135loPI   GL217482  10.110   2.135   5.440 -0.2844  0.2623 -0.2824
 1135loPI   C1A17483  10.505   2.086   5.836  0.1424 -0.1573  0.2084
 1135loPI   C2A17484  10.607   2.277   6.198  0.2483  0.0614 -0.2723
 1135loPI   C3A17485  10.819   2.196   6.649 -0.0597 -0.0037  0.0271
 1135loPI   C4A17486  11.092   2.065   6.965 -0.0667 -0.1778 -0.1527
 1135loPI   C5A17487  10.973   1.890   7.421  0.1777  0.0456  0.1346
 1135loPI   C6A17488  10.809   1.955   7.791  0.1459 -0.1471 -0.0625
 1135loPI   C1B17489  10.038   2.057   5.864 -0.0667  0.0717  0.0485
 1135loPI   C2B17490   9.962   2.010   6.286  0.0254  0.0854  0.1487
 1135loPI   C3B17491   9.803   1.788   6.669 -0.0079  0.2056  0.1144
 1135loPI   C4B17492   9.769   1.812   7.113  0.0508  0.1028 -0.0455
 1136loPI    C117493  16.609   0.968   4.885  0.0423  0.0783  0.3803
 1136loPI    C217494  16.371   0.662   4.788  0.2061 -0.0451  0.3619
 1136loPI    C317495  16.369   0.996   4.567  0.1583 -0.1024  0.2750
 1136loPI   PO417496  16.603   1.132   5.145 -0.1898 -0.0756 -0.0949
 1136loPI   GL117497  16.920   1.015   5.457 -0.0623  0.0882 -0.1059
 1136loPI   GL217498  17.032   1.226   5.715  0.2792 -0.1868  0.0747
 1136loPI   C1A17499  16.649   0.776   5.744  0.0161 -0.2310  0.2957
 1136loPI   C2A17500  16.466   0.474   6.100 -0.0455  0.0223 -0.0311
 1136loPI   C3A17501  16.073   0.453   6.396  0.0313 -0.0142 -0.1087
 1136loPI   C4A17502  15.829   0.250   6.699  0.3659  0.0970 -0.2151
 1136loPI   C5A17503  15.587  -0.032   7.050  0.0408  0.3216 -0.0214
 1136loPI   C6A17504  15.573   0.127   7.524  0.0763 -0.0243  0.0626
 1136loPI   C1B17505  16.864   1.184   6.046  0.0439 -0.0508  0.1762
 1136loPI   C2B17506  16.469   1.093   6.184  0.0513  0.2508 -0.1446
 1136loPI   C3B17507  16.131   0.993   6.520 -0.2852  0.3001  0.1052
 1136loPI   C4B17508  16.122   1.136   7.045  0.1359  0.0515  0.1843
 1137loPI    C117509   9.866  10.404   5.006  0.3898  0.0937 -0.2243
 1137loPI    C217510   9.993  10.038   5.107 -0.3284 -0.0932  0.0721
 1137loPI    C317511   9.846  10.105   4.741  0.0341 -0.0284 -0.0664
 1137loPI   PO417512   9.919  10.621   5.238  0.0187 -0.1986 -0.0898
 1137loPI   GL117513   9.797  10.649   5.640  0.0594  0.0291 -0.0472
 1137loPI   GL217514   9.776  10.265   5.515 -0.1158 -0.1931 -0.0097
 1137loPI   C1A17515   9.884  10.865   5.895 -0.1334  0.0438 -0.1409
 1137loPI   C2A17516   9.803  10.804   6.363  0.4038  0.1254 -0.1694
 1137loPI   C3A17517  10.028  10.654   6.732  0.0072  0.2095  0.0321
 1137loPI   C4A17518  10.348  10.754   7.050 -0.0051 -0.1223  0.1544
 1137loPI   C5A17519  10.461  10.946   7.481 -0.0401  0.2362  0.0630
 1137loPI   C6A17520  10.295  10.861   7.892  0.3203  0.1150  0.0343
 1137loPI   C1B17521   9.753  10.286   5.976  0.0261  0.0610 -0.4011
 1137loPI   C2B17522   9.938  10.185   6.247  0.1543 -0.2075 -0.2477
 1137loPI   C3B17523  10.186  10.231   6.566  0.0777  0.1281  0.1824
 1137loPI   C4B17524  10.484  10.342   6.915 -0.0738 -0.0565 -0.2231
 1138loPI    C117525  19.135   5.136   4.777  0.0629 -0.2648 -0.1426
 1138loPI    C217526  19.473   5.317   4.664 -0.1344  0.2256  0.0273
 1138loPI    C317527  19.172   5.274   4.403 -0.0654  0.0871 -0.0300
 1138loPI   PO417528  19.149   5.293   5.060  0.4004  0.1367  0.0233
 1138loPI   GL117529  19.299   5.267   5.465  0.1688 -0.0882 -0.0820
 1138loPI   GL217530  19.000   5.194   5.589 -0.0110 -0.4028  0.2141
 1138loPI   C1A17531  19.277   5.331   5.968 -0.1684 -0.1847  0.3101
 1138loPI   C2A17532  19.223   5.413   6.381  0.0235  0.0978  0.0386
 1138loPI   C3A17533  19.196   5.232   6.715  0.1095  0.0831 -0.0813
 1138loPI   C4A17534  19.212   5.125   7.077 -0.0769  0.0834  0.0541
 1138loPI   C5A17535  19.141   4.705   7.319  0.2402 -0.2405 -0.0771
 1138loPI   C6A17536  19.092   4.234   7.385  0.3335  0.0648 -0.0358
 1138loPI   C1B17537  18.779   5.092   5.895 -0.0425 -0.0830  0.0924
 1138loPI   C2B17538  18.455   5.174   6.215 -0.0412  0.3066  0.1660
 1138loPI   C3B17539  18.195   5.159   6.489 -0.0912 -0.1713  0.1268
 1138loPI   C4B17540  17.875   5.383   6.744  0.5041 -0.3227  0.0075
 1139loPI    C117541  10.990   1.934   4.603  0.3387  0.1139 -0.0588
 1139loPI    C217542  11.110   2.050   4.240  0.2388 -0.1673 -0.1848
 1139loPI    C317543  11.129   1.664   4.343 -0.1233 -0.1508 -0.0423
 1139loPI   PO417544  11.070   2.170   4.744 -0.1536 -0.0752  0.1056
 1139loPI   GL117545  10.978   2.249   5.175  0.1212  0.4339  0.2006
 1139loPI   GL217546  11.299   2.413   5.337 -0.1997 -0.2547 -0.2230
 1139loPI   C1A17547  10.887   2.107   5.591  0.0289 -0.1322  0.0497
 1139loPI   C2A17548  11.200   2.083   5.976  0.1419 -0.2825 -0.0494
 1139loPI   C3A17549  11.074   1.815   6.303  0.1280 -0.1562  0.1968
 1139loPI   C4A17550  10.955   1.676   6.658 -0.1370  0.0375 -0.0442
 1139loPI   C5A17551  10.697   1.704   6.986  0.0335 -0.0568 -0.2199
 1139loPI   C6A17552  10.242   1.642   7.039  0.0424 -0.0639  0.0940
 1139loPI   C1B17553  11.396   2.464   5.723 -0.0825 -0.1158 -0.0047
 1139loPI   C2B17554  11.616   2.394   6.103 -0.0390 -0.1663 -0.2155
 1139loPI   C3B17555  11.892   2.488   6.471 -0.1134  0.2672  0.2086
 1139loPI   C4B17556  12.359   2.688   6.441 -0.1177  0.0960 -0.1875
 1140loPI    C117557   2.603   3.749   4.767  0.1839 -0.1370 -0.1897
 1140loPI    C217558   2.545   3.423   4.543 -0.2322  0.0416 -0.3519
 1140loPI    C317559   2.337   3.757   4.468 -0.0570  0.2412  0.0258
 1140loPI   PO417560   2.572   3.706   5.007  0.0085 -0.1298  0.1986
 1140loPI   GL117561   2.343   3.451   5.361  0.0544 -0.2048 -0.1712
 1140loPI   GL217562   2.280   3.116   5.389  0.0915  0.1644 -0.0889
 1140loPI   C1A17563   2.545   3.660   5.708  0.1892  0.1428 -0.0751
 1140loPI   C2A17564   2.453   3.607   6.124 -0.0480 -0.1385  0.2170
 1140loPI   C3A17565   2.617   3.581   6.507  0.2460 -0.2874  0.1169
 1140loPI   C4A17566   2.781   3.327   6.916  0.2814 -0.2623 -0.0108
 1140loPI   C5A17567   2.890   3.114   7.227  0.1335  0.1753 -0.2151
 1140loPI   C6A17568   3.052   2.942   7.606 -0.0415 -0.0176  0.2897
 1140loPI   C1B17569   2.147   3.229   5.860  0.3442  0.2007  0.0358
 1140loPI   C2B17570   2.167   3.230   6.219  0.1051  0.4314 -0.0351
 1140loPI   C3B17571   2.298   3.225   6.683  0.1584  0.0091 -0.0777
 1140loPI   C4B17572   2.324   3.521   7.020  0.0121 -0.3615 -0.2717
 1141loPI    C117573  18.638   6.650   5.275 -0.0548  0.1794  0.0186
 1141loPI    C217574  18.421   6.352   5.121  0.2840 -0.0623 -0.0027
 1141loPI    C317575  18.769   6.453   4.952  0.3043  0.1620  0.1696
 1141loPI   PO417576  18.701   6.568   5.678 -0.1133  0.2606 -0.1594
 1141loPI   GL117577  18.599   6.361   6.054 -0.3412 -0.2045 -0.0086
 1141loPI   GL217578  18.877   6.225   6.010 -0.1651  0.1150  0.1442
 1141loPI   C1A17579  18.860   6.447   6.410 -0.3267  0.1721 -0.0266
 1141loPI   C2A17580  18.707   6.336   6.876 -0.1850  0.0318 -0.0985
 1141loPI   C3A17581  18.859   6.541   7.167 -0.0071  0.2540 -0.0664
 1141loPI   C4A17582  18.812   6.848   7.539  0.0270  0.2620  0.1034
 1141loPI   C5A17583  18.910   6.676   7.930  0.0450  0.0499 -0.3099
 1141loPI   C6A17584  18.830   6.705   8.335  0.0420 -0.2154  0.1401
 1141loPI   C1B17585  19.320   6.337   6.199  0.2311 -0.0045  0.0359
 1141loPI   C2B17586  19.452   6.185   6.592 -0.2001 -0.1415 -0.2795
 1141loPI   C3B17587  19.655   6.059   6.950  0.0385 -0.1699  0.1674
 1141loPI   C4B17588  20.098   6.030   7.139 -0.4542 -0.2866  0.0705
 1142loPI    C117589  15.368   8.761   4.812  0.1158 -0.0815  0.1044
 1142loPI    C217590  15.629   8.924   5.066  0.1108  0.1857 -0.0579
 1142loPI    C317591  15.693   8.946   4.672 -0.0246  0.0223 -0.0902
 1142loPI   PO417592  15.092   8.821   4.992  0.0098  0.3731 -0.0203
 1142loPI   GL117593  15.173   8.859   5.450 -0.1279  0.1499 -0.2070
 1142loPI   GL217594  15.398   8.497   5.391 -0.2094  0.0352  0.1441
 1142loPI   C1A17595  15.063   8.856   5.951 -0.1196  0.2307 -0.1459
 1142loPI   C2A17596  15.368   8.772   6.372  0.0714  0.1688  0.1454
 1142loPI   C3A17597  15.497   8.867   6.759 -0.0940 -0.1815  0.0904
 1142loPI   C4A17598  15.427   8.843   7.103  0.1342  0.3520  0.0612
 1142loPI   C5A17599  15.477   8.892   7.463 -0.1858  0.2025 -0.1392
 1142loPI   C6A17600  15.434   8.857   7.903  0.3624  0.1750  0.1403
 1142loPI   C1B17601  15.434   8.564   5.766 -0.2136 -0.2605  0.0535
 1142loPI   C2B17602  15.643   8.443   6.165  0.3419  0.0309 -0.0890
 1142loPI   C3B17603  15.466   8.283   6.515 -0.4998 -0.1881 -0.0044
 1142loPI   C4B17604  15.093   8.217   6.810  0.1174 -0.1338 -0.0504
 1143loPI    C117605  13.292   8.292   4.923 -0.0057  0.0391  0.0863
 1143loPI    C217606  12.994   8.501   4.757 -0.2299 -0.2946  0.0576
 1143loPI    C317607  13.240   8.285   4.527 -0.0422 -0.1223  0.0932
 1143loPI   PO417608  13.235   8.134   5.086 -0.3846 -0.1053  0.2942
 1143loPI   GL117609  13.152   7.888   5.436  0.1430 -0.3774  0.0060
 1143loPI   GL217610  12.779   8.055   5.390  0.1113 -0.1921  0.0343
 1143loPI   C1A17611  13.150   7.853   5.823  0.0501  0.4490 -0.0181
 1143loPI   C2A17612  13.253   7.831   6.288 -0.1142  0.1643  0.1299
 1143loPI   C3A17613  13.200   7.811   6.707  0.1058  0.1973 -0.0275
 1143loPI   C4A17614  13.137   7.785   7.166  0.0150  0.2871  0.0301
 1143loPI   C5A17615  12.970   7.859   7.570  0.1583  0.0389 -0.1618
 1143loPI   C6A17616  12.784   7.925   8.043 -0.0733  0.1021 -0.0388
 1143loPI   C1B17617  12.677   8.238   5.820  0.0064 -0.1147 -0.0129
 1143loPI   C2B17618  12.702   8.344   6.204  0.0780  0.2367 -0.2777
 1143loPI   C3B17619  12.398   8.553   6.462  0.0790  0.2907 -0.2668
 1143loPI   C4B17620  12.176   8.674   6.819 -0.3222  0.2280 -0.1160
 1144loPI    C117621  14.043   9.724   5.255  0.0063 -0.0635 -0.1481
 1144loPI    C217622  14.277   9.482   5.038 -0.0320 -0.0992 -0.1497
 1144loPI    C317623  13.937   9.625   4.882  0.0829  0.1058 -0.2154
 1144loPI   PO417624  13.998   9.621   5.467 -0.0913  0.3754  0.6352
 1144loPI   GL117625  13.666   9.456   5.764 -0.2124  0.2420 -0.0791
 1144loPI   GL217626  13.618   9.861   5.735 -0.0488  0.0171 -0.0631
 1144loPI   C1A17627  13.715   9.623   6.199  0.1549 -0.0872 -0.0138
 1144loPI   C2A17628  13.678   9.629   6.667 -0.2429  0.0500 -0.2074
 1144loPI   C3A17629  13.828   9.610   7.080  0.0836  0.0460 -0.0630
 1144loPI   C4A17630  13.898   9.626   7.460  0.0243  0.0368 -0.0631
 1144loPI   C5A17631  13.821  10.011   7.688 -0.3949  0.0035  0.2672
 1144loPI   C6A17632  14.098  10.283   7.995  0.1098  0.1213  0.2294
 1144loPI   C1B17633  13.492  10.145   6.133  0.2416 -0.1281 -0.0497
 1144loPI   C2B17634  13.575  10.094   6.546 -0.1253  0.1574 -0.1398
 1144loPI   C3B17635  13.456  10.059   6.944  0.2380  0.0270  0.0969
 1144loPI   C4B17636  13.425   9.976   7.381  0.0245 -0.1061 -0.1433
 1145loPI    C117637  18.393  14.310   4.907 -0.0615  0.0674  0.1223
 1145loPI    C217638  18.079  14.116   4.753 -0.1429  0.3405 -0.0626
 1145loPI    C317639  18.334  14.308   4.511  0.2718 -0.0276  0.0696
 1145loPI   PO417640  18.349  14.423   5.103 -0.2462  0.1421 -0.0524
 1145loPI   GL117641  18.526  14.371   5.486  0.0898  0.2347 -0.1090
 1145loPI   GL217642  18.266  14.707   5.560 -0.2968 -0.2728  0.4071
 1145loPI   C1A17643  18.563  14.351   5.974 -0.2382 -0.3448  0.3062
 1145loPI   C2A17644  18.551  14.434   6.407  0.1995 -0.0818 -0.2343
 1145loPI   C3A17645  18.617  14.698   6.734 -0.2302  0.2182 -0.1724
 1145loPI   C4A17646  18.718  14.969   7.146  0.2515 -0.2498 -0.3359
 1145loPI   C5A17647  19.133  15.030   7.287  0.0913  0.0925 -0.1585
 1145loPI   C6A17648  19.413  14.955   7.499  0.0014  0.3201 -0.0573
 1145loPI   C1B17649  18.140  14.660   5.975 -0.1172 -0.0198  0.0828
 1145loPI   C2B17650  18.192  14.879   6.363  0.1037 -0.1498 -0.0750
 1145loPI   C3B17651  18.264  15.073   6.837  0.2829  0.1340  0.2128
 1145loPI   C4B17652  18.254  15.298   7.215 -0.4602  0.0003 -0.1933
 1146loPI    C117653   9.566   0.017   4.764  0.1849  0.0835  0.0540
 1146loPI    C217654   9.352  -0.167   4.481 -0.0554  0.2698  0.1110
 1146loPI    C317655   9.509   0.194   4.410  0.4613  0.0292 -0.0202
 1146loPI   PO417656   9.441   0.053   4.957 -0.3398 -0.0836 -0.2032
 1146loPI   GL117657   9.271  -0.009   5.318 -0.0860 -0.1752  0.1391
 1146loPI   GL217658   9.614  -0.185   5.370  0.1197  0.2505 -0.0579
 1146loPI   C1A17659   9.341   0.228   5.645  0.2029 -0.2861 -0.3628
 1146loPI   C2A17660   9.148   0.185   6.039  0.2940 -0.0555  0.0192
 1146loPI   C3A17661   8.792   0.121   6.179 -0.1482 -0.1176  0.2340
 1146loPI   C4A17662   8.707  -0.245   6.603  0.2583  0.1884 -0.2779
 1146loPI   C5A17663   8.274  -0.505   6.664  0.0068 -0.0249 -0.1062
 1146loPI   C6A17664   8.079  -0.837   6.880 -0.0685  0.1817 -0.2143
 1146loPI   C1B17665   9.492  -0.279   5.752 -0.0802 -0.0459 -0.1657
 1146loPI   C2B17666   9.580  -0.581   6.091  0.0076 -0.1889  0.4740
 1146loPI   C3B17667   9.775  -0.411   6.414  0.1198  0.2467  0.2175
 1146loPI   C4B17668   9.951  -0.204   6.669  0.0167  0.0125 -0.1624
 1147loPI    C117669  14.074   7.749   4.802 -0.2704  0.0078 -0.1186
 1147loPI    C217670  14.376   7.668   4.552 -0.1178 -0.2297  0.1353
 1147loPI    C317671  14.189   8.021   4.533  0.2008 -0.0641  0.0001
 1147loPI   PO417672  14.193   7.712   5.071 -0.3489  0.2450 -0.2585
 1147loPI   GL117673  14.177   7.577   5.543 -0.0389 -0.1812  0.0987
 1147loPI   GL217674  14.348   7.657   5.754 -0.1734  0.2090  0.1802
 1147loPI   C1A17675  13.984   7.135   5.732 -0.0443 -0.2295 -0.1478
 1147loPI   C2A17676  14.191   6.986   6.129 -0.2872 -0.1044 -0.2392
 1147loPI   C3A17677  14.557   7.083   6.440  0.2828  0.0336  0.0292
 1147loPI   C4A17678  14.605   7.145   6.811 -0.4996  0.0230  0.1892
 1147loPI   C5A17679  14.500   7.137   7.234 -0.1839  0.3046 -0.0616
 1147loPI   C6A17680  14.502   6.986   7.635  0.4630 -0.0782 -0.0213
 1147loPI   C1B17681  14.082   7.543   6.112  0.0527  0.1000 -0.1800
 1147loPI   C2B17682  13.970   7.391   6.559  0.2748 -0.1533  0.0627
 1147loPI   C3B17683  14.127   7.251   6.979  0.2453 -0.0442  0.2441
 1147loPI   C4B17684  14.036   7.130   7.413 -0.1267 -0.2110  0.0394
 1148loPI    C117685   4.016   9.546   4.803  0.1856 -0.1623 -0.0814
 1148loPI    C217686   3.927   9.870   4.585 -0.0340 -0.1022  0.0940
 1148loPI    C317687   4.000   9.521   4.404 -0.0687 -0.0190 -0.0825
 1148loPI   PO417688   4.103   9.630   5.055 -0.0820  0.2052  0.1467
 1148loPI   GL117689   3.863   9.685   5.508 -0.2248  0.3148  0.0012
 1148loPI   GL217690   3.771   9.349   5.611 -0.2057 -0.1174  0.1295
 1148loPI   C1A17691   3.803   9.812   5.883 -0.0818  0.2378  0.3403
 1148loPI   C2A17692   3.802   9.716   6.302 -0.1402  0.2845  0.1604
 1148loPI   C3A17693   3.609   9.785   6.742  0.4454  0.1296 -0.0974
 1148loPI   C4A17694   3.818   9.720   7.230 -0.2045 -0.1683 -0.0177
 1148loPI   C5A17695   3.681   9.601   7.671  0.1788  0.1001 -0.1873
 1148loPI   C6A17696   3.788   9.400   8.137  0.1498 -0.1755  0.2084
 1148loPI   C1B17697   3.574   9.360   6.023 -0.0709  0.0742 -0.1698
 1148loPI   C2B17698   3.399   9.321   6.391 -0.0471  0.0425  0.5310
 1148loPI   C3B17699   3.248   9.452   6.773  0.1489  0.0280  0.1280
 1148loPI   C4B17700   3.384   9.575   7.183  0.1994  0.0192 -0.1596
 1149loPI    C117701   7.609  18.070   4.678 -0.1325 -0.0046 -0.3572
 1149loPI    C217702   7.386  18.311   4.906  0.1293  0.1537 -0.2646
 1149loPI    C317703   7.223  18.128   4.590 -0.2003  0.0466 -0.0378
 1149loPI   PO417704   7.868  17.996   4.928  0.1295  0.1130  0.0685
 1149loPI   GL117705   8.020  17.938   5.365  0.1776  0.1783  0.2150
 1149loPI   GL217706   8.093  17.665   5.560  0.1528 -0.3249  0.0456
 1149loPI   C1A17707   7.720  17.964   5.586 -0.0133  0.3273 -0.3160
 1149loPI   C2A17708   7.731  18.231   6.008 -0.0116 -0.1440 -0.2019
 1149loPI   C3A17709   7.780  18.220   6.485  0.0055  0.0391  0.0073
 1149loPI   C4A17710   7.583  18.197   6.839  0.0018  0.0778  0.0656
 1149loPI   C5A17711   7.430  18.047   7.172  0.0762  0.1739 -0.0932
 1149loPI   C6A17712   7.355  17.935   7.503 -0.0987 -0.0799 -0.1386
 1149loPI   C1B17713   8.033  17.751   5.907 -0.5199  0.1209  0.3807
 1149loPI   C2B17714   8.097  17.874   6.379 -0.1406 -0.1663 -0.2301
 1149loPI   C3B17715   8.017  17.648   6.673  0.3926 -0.1400  0.3642
 1149loPI   C4B17716   8.243  17.412   7.016  0.0638 -0.1804  0.2076
 1150loPI    C117717   9.594   1.997   4.953 -0.2795 -0.3521 -0.1455
 1150loPI    C217718   9.548   1.718   4.671 -0.1863 -0.1187 -0.3957
 1150loPI    C317719   9.648   2.092   4.569 -0.2718 -0.0010 -0.0617
 1150loPI   PO417720   9.613   1.852   5.167 -0.0976  0.0456  0.2047
 1150loPI   GL117721   9.773   1.780   5.604 -0.0170 -0.0185  0.1975
 1150loPI   GL217722  10.035   1.622   5.418  0.1052  0.0786 -0.0048
 1150loPI   C1A17723   9.660   1.623   6.025  0.0800 -0.0489  0.0791
 1150loPI   C2A17724   9.568   1.419   6.374  0.3159 -0.1410 -0.0876
 1150loPI   C3A17725   9.528   1.201   6.691 -0.4002  0.1906 -0.1304
 1150loPI   C4A17726   9.541   0.922   7.077  0.1213 -0.1271 -0.1041
 1150loPI   C5A17727   9.770   0.970   7.489  0.0924 -0.0307 -0.1975
 1150loPI   C6A17728   9.908   1.397   7.484  0.1280 -0.2154 -0.1979
 1150loPI   C1B17729  10.226   1.596   5.800  0.1180 -0.1933 -0.0396
 1150loPI   C2B17730  10.151   1.472   6.200 -0.0615 -0.0015  0.2653
 1150loPI   C3B17731  10.082   1.342   6.552 -0.5499 -0.4809 -0.1434
 1150loPI   C4B17732   9.881   1.337   7.028  0.0961 -0.0677 -0.0746
 1151loPI    C117733  15.305  12.740   4.982 -0.1526 -0.0246 -0.0262
 1151loPI    C217734  15.062  12.422   4.961 -0.1173 -0.0406 -0.2072
 1151loPI    C317735  15.179  12.608   4.626 -0.1012  0.1363 -0.1048
 1151loPI   PO417736  15.166  12.848   5.204  0.0015 -0.2753 -0.0186
 1151loPI   GL117737  15.129  13.032   5.545 -0.1252 -0.1873  0.1253
 1151loPI   GL217738  15.365  13.040   5.684 -0.1334  0.0132 -0.1346
 1151loPI   C1A17739  15.136  13.188   6.046  0.0019  0.1756  0.0689
 1151loPI   C2A17740  15.172  13.108   6.502  0.1408 -0.1686  0.1573
 1151loPI   C3A17741  14.958  13.102   6.904  0.2478 -0.0281 -0.4417
 1151loPI   C4A17742  14.576  13.136   7.071  0.1118  0.0565  0.1614
 1151loPI   C5A17743  14.209  13.265   7.387 -0.2559  0.2514 -0.1193
 1151loPI   C6A17744  14.065  13.522   7.519  0.0296  0.2445  0.1195
 1151loPI   C1B17745  15.569  12.844   6.135 -0.2253 -0.0246  0.0288
 1151loPI   C2B17746  15.609  12.664   6.514  0.1205 -0.0353  0.2414
 1151loPI   C3B17747  15.458  12.863   6.859  0.2116 -0.1978  0.1828
 1151loPI   C4B17748  15.250  12.840   7.212  0.0449 -0.2495  0.0878
 1152loPI    C117749   6.590   8.483   4.778 -0.4704 -0.1494 -0.2168
 1152loPI    C217750   6.552   8.832   4.586  0.0031  0.0676  0.0681
 1152loPI    C317751   6.793   8.548   4.440 -0.0400  0.0311  0.0679
 1152loPI   PO417752   6.246   8.441   4.854 -0.0420  0.1453 -0.1653
 1152loPI   GL117753   5.979   8.610   5.190 -0.0843  0.0676  0.3811
 1152loPI   GL217754   5.690   8.551   5.069 -0.2375 -0.0993 -0.0338
 1152loPI   C1A17755   6.233   8.842   5.574 -0.0131  0.0203  0.0120
 1152loPI   C2A17756   6.363   8.760   5.963 -0.1733 -0.2975 -0.0807
 1152loPI   C3A17757   6.431   8.967   6.351 -0.3031  0.0295 -0.2081
 1152loPI   C4A17758   6.181   8.908   6.856 -0.0989  0.1656 -0.0090
 1152loPI   C5A17759   5.988   8.730   7.237 -0.2943 -0.1631  0.2589
 1152loPI   C6A17760   5.605   8.673   7.409 -0.4239  0.1256  0.0149
 1152loPI   C1B17761   5.592   8.708   5.591 -0.0665  0.4720  0.0888
 1152loPI   C2B17762   5.492   8.882   6.001  0.0574  0.3209 -0.1626
 1152loPI   C3B17763   5.583   9.008   6.400 -0.1871 -0.5399  0.1475
 1152loPI   C4B17764   5.614   8.934   6.815  0.1091 -0.0710  0.0814
 1153loPI    C117765   8.191  18.992   4.853 -0.2672 -0.1126 -0.0017
 1153loPI    C217766   8.246  18.699   5.119 -0.0439  0.0309  0.1141
 1153loPI    C317767   8.468  19.031   5.139  0.1401 -0.0525 -0.3922
 1153loPI   PO417768   7.942  19.022   4.870 -0.3182  0.1048  0.1371
 1153loPI   GL117769   7.828  19.147   5.261  0.1359  0.0043  0.0374
 1153loPI   GL217770   7.761  19.468   5.382 -0.0238  0.1422 -0.2095
 1153loPI   C1A17771   7.938  18.961   5.554 -0.3189  0.1408  0.1609
 1153loPI   C2A17772   8.031  18.865   5.988 -0.0840  0.2610  0.1476
 1153loPI   C3A17773   7.976  18.638   6.295  0.2537  0.1228  0.3280
 1153loPI   C4A17774   7.818  18.737   6.720  0.0824  0.0572 -0.1723
 1153loPI   C5A17775   7.817  18.671   7.154 -0.0613 -0.3503  0.1385
 1153loPI   C6A17776   7.778  18.743   7.579  0.0321  0.1332 -0.1991
 1153loPI   C1B17777   7.641  19.763   5.713 -0.1669  0.0888 -0.1162
 1153loPI   C2B17778   7.865  19.798   6.200  0.0468  0.1912  0.0770
 1153loPI   C3B17779   8.088  19.699   6.544 -0.1966 -0.0242 -0.0183
 1153loPI   C4B17780   8.276  19.592   6.993  0.0119 -0.0433  0.2077
 1154loPI    C117781   8.247   0.382   4.837  0.0230  0.0417  0.1156
 1154loPI    C217782   8.562   0.168   4.715 -0.0723  0.1431 -0.3278
 1154loPI    C317783   8.543   0.559   4.634 -0.1446  0.2142  0.0175
 1154loPI   PO417784   8.170   0.340   5.084 -0.0276  0.5073 -0.2279
 1154loPI   GL117785   8.239   0.597   5.342  0.0825  0.1652  0.2321
 1154loPI   GL217786   8.035   0.868   5.441  0.3500 -0.1106 -0.1589
 1154loPI   C1A17787   8.088   0.465   5.765 -0.5459  0.2642 -0.0900
 1154loPI   C2A17788   8.198   0.157   6.115 -0.1025 -0.1113 -0.0068
 1154loPI   C3A17789   8.109  -0.048   6.508 -0.0148  0.0917 -0.1529
 1154loPI   C4A17790   8.174  -0.071   6.952 -0.1204 -0.0882 -0.1505
 1154loPI   C5A17791   7.917   0.020   7.257 -0.5798  0.0339  0.2432
 1154loPI   C6A17792   7.493   0.050   7.412 -0.3785  0.1367  0.0830
 1154loPI   C1B17793   7.910   1.084   5.855 -0.1676 -0.0972 -0.1996
 1154loPI   C2B17794   7.816   1.505   6.146  0.3071 -0.0141 -0.3206
 1154loPI   C3B17795   7.446   1.716   6.268  0.1558  0.1015 -0.0700
 1154loPI   C4B17796   7.185   2.037   6.014 -0.0968 -0.0850  0.3660
 1155loPI    C117797   9.184   4.237   5.107  0.0148  0.0192  0.0301
 1155loPI    C217798   9.481   4.049   5.299  0.0081  0.1610  0.1808
 1155loPI    C317799   9.362   3.919   4.940  0.0770 -0.0551  0.2347
 1155loPI   PO417800   9.069   4.338   5.360 -0.0555 -0.2782 -0.1570
 1155loPI   GL117801   8.995   4.124   5.680  0.1793 -0.0648 -0.1483
 1155loPI   GL217802   9.196   3.810   5.637  0.0704 -0.3959  0.0471
 1155loPI   C1A17803   8.870   4.311   6.000 -0.1323 -0.2492 -0.0662
 1155loPI   C2A17804   8.680   4.471   6.355  0.1284  0.2809 -0.4799
 1155loPI   C3A17805   8.935   4.429   6.781 -0.1032  0.1513 -0.0842
 1155loPI   C4A17806   9.114   4.664   7.168 -0.2540 -0.0741  0.3277
 1155loPI   C5A17807   9.318   4.488   7.653  0.0811  0.0336 -0.0476
 1155loPI   C6A17808   9.206   4.356   7.990  0.1882  0.2884  0.0667
 1155loPI   C1B17809   9.109   3.841   6.072  0.0811  0.0128  0.0222
 1155loPI   C2B17810   9.131   4.113   6.416  0.0811  0.1080  0.1502
 1155loPI   C3B17811   9.175   3.929   6.809  0.1483 -0.1048 -0.2458
 1155loPI   C4B17812   9.107   4.183   7.229  0.0261  0.2410 -0.0614
 1156loPI    C117813  10.923   0.655   4.743  0.0204 -0.2618 -0.0778
 1156loPI    C217814  10.651   0.730   4.459 -0.0300 -0.1268  0.0056
 1156loPI    C317815  11.035   0.822   4.397 -0.0554 -0.0120  0.0161
 1156loPI   PO417816  10.862   0.850   4.943  0.2281  0.1740  0.2819
 1156loPI   GL117817  10.932   0.814   5.304  0.0733 -0.2921 -0.0336
 1156loPI   GL217818  11.089   0.564   5.247  0.3314 -0.0805  0.2346
 1156loPI   C1A17819  10.640   0.479   5.579 -0.2099  0.1959  0.1717
 1156loPI   C2A17820  10.605   0.446   6.009  0.1374  0.2962 -0.0615
 1156loPI   C3A17821  10.225   0.256   6.141  0.0412 -0.0287 -0.1604
 1156loPI   C4A17822  10.053  -0.041   6.229 -0.0516 -0.0681 -0.0009
 1156loPI   C5A17823  10.011  -0.286   5.957 -0.0738  0.0216 -0.0751
 1156loPI   C6A17824   9.918  -0.617   5.689  0.2673 -0.3019  0.4709
 1156loPI   C1B17825  11.178   0.560   5.704 -0.0628 -0.2588  0.0937
 1156loPI   C2B17826  11.216   0.639   6.111  0.3170  0.0458  0.0263
 1156loPI   C3B17827  11.393   0.778   6.460 -0.4803 -0.0451 -0.1016
 1156loPI   C4B17828  11.759   0.891   6.756 -0.1487  0.1343 -0.3905
 1157loPI    C117829  13.557   8.806   4.931 -0.2252  0.0356  0.1206
 1157loPI    C217830  13.401   8.755   4.566 -0.5004  0.3378  0.1911
 1157loPI    C317831  13.558   9.108   4.669  0.4662 -0.0173  0.0437
 1157loPI   PO417832  13.367   8.698   5.123  0.0294  0.1282 -0.0589
 1157loPI   GL117833  13.384   8.380   5.485  0.0657 -0.2092  0.1714
 1157loPI   GL217834  13.091   8.379   5.673  0.0895  0.2989 -0.0164
 1157loPI   C1A17835  13.481   8.632   5.808  0.1502 -0.2328 -0.0408
 1157loPI   C2A17836  13.441   8.756   6.160 -0.0222 -0.0424  0.1664
 1157loPI   C3A17837  13.434   8.818   6.609 -0.2773  0.2724 -0.0639
 1157loPI   C4A17838  13.517   8.801   6.963 -0.0451 -0.0942  0.1985
 1157loPI   C5A17839  13.567   8.632   7.389  0.0903  0.1810  0.1045
 1157loPI   C6A17840  13.922   8.382   7.642  0.1667 -0.0847  0.2627
 1157loPI   C1B17841  13.224   8.313   6.119  0.1120  0.1270 -0.0578
 1157loPI   C2B17842  13.117   8.284   6.525  0.2666  0.3482  0.2165
 1157loPI   C3B17843  12.856   8.157   6.831 -0.0157 -0.1705  0.2313
 1157loPI   C4B17844  12.790   8.195   7.224  0.0816  0.2825 -0.1743
 1158loPI    C117845  13.746   1.692   4.851  0.0666 -0.1303  0.3035
 1158loPI    C217846  13.780   1.380   4.603  0.2183 -0.0249  0.1893
 1158loPI    C317847  13.440   1.440   4.805  0.0269 -0.0111 -0.1307
 1158loPI   PO417848  13.910   1.979   4.765 -0.1436 -0.0638 -0.0586
 1158loPI   GL117849  14.126   2.002   5.120 -0.1153  0.2434 -0.0238
 1158loPI   GL217850  14.193   2.316   5.293  0.1067  0.1056 -0.0043
 1158loPI   C1A17851  13.871   1.839   5.459 -0.2164  0.0692  0.2635
 1158loPI   C2A17852  13.963   1.692   5.929 -0.5158  0.1196  0.0354
 1158loPI   C3A17853  14.166   1.723   6.449  0.2545 -0.0900  0.2379
 1158loPI   C4A17854  14.372   1.982   6.790  0.0967 -0.1685 -0.0964
 1158loPI   C5A17855  14.601   2.325   7.007  0.1748 -0.0186 -0.1314
 1158loPI   C6A17856  15.036   2.472   7.188  0.0834  0.0310  0.1574
 1158loPI   C1B17857  14.008   2.539   5.602 -0.1341  0.1441 -0.0455
 1158loPI   C2B17858  13.491   2.575   5.693 -0.1519  0.3443  0.0304
 1158loPI   C3B17859  13.428   2.547   6.135  0.0972  0.0738  0.0339
 1158loPI   C4B17860  13.315   2.500   6.523 -0.2832  0.0307  0.0590
 1159loPI    C117861  11.903  12.164   4.845 -0.0715  0.0279  0.0271
 1159loPI    C217862  11.612  12.234   4.580 -0.1196  0.0213  0.0779
 1159loPI    C317863  11.904  11.976   4.492  0.0743  0.3023 -0.1220
 1159loPI   PO417864  11.727  12.053   5.098  0.1407 -0.4351 -0.3039
 1159loPI   GL117865  11.615  12.257   5.428 -0.1708 -0.1256 -0.0388
 1159loPI   GL217866  11.923  12.308   5.651  0.2689 -0.0623 -0.1842
 1159loPI   C1A17867  11.298  12.453   5.603 -0.0216  0.0383 -0.0559
 1159loPI   C2A17868  10.962  12.476   5.713 -0.0748 -0.2015  0.1348
 1159loPI   C3A17869  10.963  12.360   6.151 -0.0699  0.0215  0.4232
 1159loPI   C4A17870  11.038  12.308   6.671  0.1497  0.1268  0.1266
 1159loPI   C5A17871  11.115  12.316   7.160  0.2212  0.0627  0.2824
 1159loPI   C6A17872  11.175  12.275   7.587 -0.0584 -0.1266  0.0557
 1159loPI   C1B17873  11.689  12.546   5.923 -0.2342 -0.0421 -0.0866
 1159loPI   C2B17874  11.800  12.638   6.380 -0.0913 -0.0830  0.2347
 1159loPI   C3B17875  12.011  12.457   6.725  0.1614 -0.1416  0.1615
 1159loPI   C4B17876  12.035  12.013   6.953 -0.2928 -0.0815  0.2237
 1160loPI    C117877  13.483   7.202   5.011  0.1689 -0.0099  0.1047
 1160loPI    C217878  13.717   7.445   4.797  0.1923 -0.0998  0.0274
 1160loPI    C317879  13.661   7.067   4.679 -0.1172 -0.0351 -0.0420
 1160loPI   PO417880  13.335   7.404   5.204 -0.2262  0.2022  0.1017
 1160loPI   GL117881  13.474   7.453   5.691  0.1780 -0.0181 -0.0639
 1160loPI   GL217882  13.774   7.728   5.763 -0.0636 -0.5174 -0.3091
 1160loPI   C1A17883  13.575   7.477   6.178  0.2044  0.0192 -0.0004
 1160loPI   C2A17884  13.679   7.801   6.597 -0.1757  0.4725 -0.1045
 1160loPI   C3A17885  13.722   7.605   6.969 -0.2764  0.2511 -0.1458
 1160loPI   C4A17886  13.575   7.477   7.341 -0.3348 -0.1839 -0.0294
 1160loPI   C5A17887  13.135   7.348   7.553  0.0509  0.2025 -0.1034
 1160loPI   C6A17888  12.662   7.409   7.449 -0.0469 -0.0380  0.0302
 1160loPI   C1B17889  13.658   8.026   6.077 -0.1547  0.2258  0.1726
 1160loPI   C2B17890  13.625   8.332   6.388 -0.0143 -0.2416 -0.1822
 1160loPI   C3B17891  13.587   8.299   6.796  0.0722 -0.0324  0.1831
 1160loPI   C4B17892  13.248   8.317   7.124  0.0124 -0.0657  0.2965
 1161loPI    C117893  15.570  10.675   4.952 -0.2205 -0.0038  0.0547
 1161loPI    C217894  15.556  10.285   4.865  0.4668  0.0037 -0.1493
 1161loPI    C317895  15.472  10.556   4.583  0.0541  0.0126 -0.0253
 1161loPI   PO417896  15.378  10.784   5.230 -0.2613 -0.0205 -0.0473
 1161loPI   GL117897  15.054  10.732   5.530 -0.0256  0.1438 -0.2308
 1161loPI   GL217898  14.851  10.816   5.660  0.0276  0.0511 -0.1134
 1161loPI   C1A17899  15.213  10.732   5.998 -0.0645 -0.0338 -0.1358
 1161loPI   C2A17900  15.258  10.781   6.448  0.1645 -0.0285 -0.2199
 1161loPI   C3A17901  15.179  10.731   6.816  0.3486  0.0584 -0.0798
 1161loPI   C4A17902  15.123  10.794   7.261 -0.0878  0.0683 -0.1129
 1161loPI   C5A17903  14.923  10.742   7.659  0.1636 -0.1764  0.0748
 1161loPI   C6A17904  14.505  10.579   7.916 -0.1725  0.2576 -0.3194
 1161loPI   C1B17905  14.705  10.863   6.043  0.2658 -0.3062 -0.3174
 1161loPI   C2B17906  14.795  10.869   6.529 -0.2405  0.0868  0.4180
 1161loPI   C3B17907  14.760  10.893   6.986  0.0859 -0.3646  0.2430
 1161loPI   C4B17908  14.784  11.208   7.332 -0.1181  0.2788  0.2396
 1162loPI    C117909   6.956  17.757   4.785 -0.1112 -0.0213 -0.0909
 1162loPI    C217910   7.330  17.643   4.698 -0.1849 -0.2786 -0.0808
 1162loPI    C317911   7.067  17.708   4.404 -0.1100 -0.0121 -0.0917
 1162loPI   PO417912   7.032  17.942   5.002 -0.5027 -0.2421  0.1573
 1162loPI   GL117913   7.024  17.721   5.410  0.1802 -0.3583  0.2157
 1162loPI   GL217914   7.069  17.416   5.549  0.3935 -0.1549 -0.1772
 1162loPI   C1A17915   6.925  17.913   5.730 -0.6620 -0.1963 -0.5376
 1162loPI   C2A17916   6.771  17.945   6.200 -0.2840 -0.0284 -0.0315
 1162loPI   C3A17917   6.715  17.957   6.596 -0.0971  0.4253 -0.1614
 1162loPI   C4A17918   6.991  17.825   6.854  0.2279 -0.2173 -0.4139
 1162loPI   C5A17919   7.008  17.651   7.196 -0.1400 -0.1628  0.1423
 1162loPI   C6A17920   6.971  17.631   7.591  0.1486 -0.1412  0.1151
 1162loPI   C1B17921   7.045  17.453   6.008 -0.0125 -0.0986  0.1189
 1162loPI   C2B17922   6.877  17.483   6.450  0.1193  0.0762 -0.1833
 1162loPI   C3B17923   7.242  17.356   6.835 -0.0433  0.0932 -0.0830
 1162loPI   C4B17924   7.442  17.429   7.239  0.1963  0.0003  0.1018
 1163loPI    C117925  14.025   8.958   5.029  0.1325 -0.1462 -0.0527
 1163loPI    C217926  14.216   8.747   4.747  0.4109  0.0884 -0.0443
 1163loPI    C317927  14.042   9.095   4.654  0.0607 -0.0793 -0.0315
 1163loPI   PO417928  14.155   9.061   5.200  0.3022 -0.0023 -0.0786
 1163loPI   GL117929  14.142   9.152   5.562 -0.0134  0.2473 -0.4924
 1163loPI   GL217930  14.425   9.391   5.566  0.5001  0.0092 -0.2176
 1163loPI   C1A17931  13.802   9.053   5.973 -0.1293  0.0205  0.1250
 1163loPI   C2A17932  13.747   9.165   6.369 -0.0964 -0.2468  0.1982
 1163loPI   C3A17933  13.849   9.191   6.783  0.3969  0.4370 -0.1506
 1163loPI   C4A17934  13.988   9.107   7.142 -0.3047 -0.1318 -0.0964
 1163loPI   C5A17935  14.050   9.119   7.550 -0.0075  0.1908 -0.1568
 1163loPI   C6A17936  14.245   8.814   7.796  0.2746 -0.0932  0.0611
 1163loPI   C1B17937  14.223   9.492   6.093 -0.0648 -0.1455  0.0753
 1163loPI   C2B17938  14.192   9.558   6.518 -0.0737  0.2044 -0.1846
 1163loPI   C3B17939  14.316   9.451   6.887  0.2362 -0.0489  0.0877
 1163loPI   C4B17940  14.332   9.530   7.226  0.1329 -0.0343 -0.0611
 1164loPI    C117941  16.365  12.681   4.951  0.2134  0.0245 -0.1110
 1164loPI    C217942  16.105  12.584   4.662  0.1652 -0.1830  0.0008
 1164loPI    C317943  16.465  12.731   4.567  0.0513 -0.0028 -0.1575
 1164loPI   PO417944  16.302  12.525   5.132 -0.1514  0.0431  0.5335
 1164loPI   GL117945  16.323  12.249   5.511 -0.3384 -0.2579 -0.0073
 1164loPI   GL217946  16.201  11.958   5.622  0.0461 -0.0766 -0.3196
 1164loPI   C1A17947  16.422  12.459   5.994  0.1237 -0.2281 -0.0507
 1164loPI   C2A17948  16.546  12.557   6.439  0.1454 -0.0470  0.0289
 1164loPI   C3A17949  16.778  12.699   6.778 -0.2969 -0.0097  0.0464
 1164loPI   C4A17950  16.717  12.688   7.179  0.0385 -0.2747  0.3184
 1164loPI   C5A17951  16.443  13.017   7.400 -0.2707 -0.1427  0.3135
 1164loPI   C6A17952  16.510  13.261   7.763  0.0841 -0.1388 -0.1675
 1164loPI   C1B17953  16.035  12.057   6.055 -0.0209  0.0136  0.2047
 1164loPI   C2B17954  15.671  12.054   6.260  0.2923 -0.0684  0.0652
 1164loPI   C3B17955  15.608  12.142   6.675  0.0886 -0.1927 -0.3141
 1164loPI   C4B17956  15.443  12.353   6.965 -0.0362  0.1963 -0.3094
 1165loPI    C117957   1.085   7.477   4.926 -0.2655 -0.2687  0.3605
 1165loPI    C217958   1.130   7.153   4.697 -0.1845 -0.0296  0.0313
 1165loPI    C317959   0.789   7.362   4.683 -0.1718 -0.0030  0.1155
 1165loPI   PO417960   1.290   7.362   5.118 -0.0705 -0.2766 -0.0695
 1165loPI   GL117961   1.380   7.246   5.528 -0.0712 -0.3454  0.1426
 1165loPI   GL217962   1.725   7.422   5.690  0.1498 -0.0078  0.0646
 1165loPI   C1A17963   1.286   7.255   5.959 -0.1410 -0.2488  0.2903
 1165loPI   C2A17964   1.265   7.247   6.419 -0.1294 -0.1078 -0.1697
 1165loPI   C3A17965   1.422   7.218   6.764  0.2786  0.1425  0.1327
 1165loPI   C4A17966   1.580   7.272   7.235  0.0293 -0.3307 -0.0077
 1165loPI   C5A17967   1.681   7.106   7.679  0.0954 -0.1754 -0.0861
 1165loPI   C6A17968   1.849   6.794   7.606  0.1522 -0.1520 -0.1002
 1165loPI   C1B17969   1.654   7.608   6.083 -0.0265  0.0326 -0.0811
 1165loPI   C2B17970   1.797   7.874   6.448  0.1134 -0.2385  0.0748
 1165loPI   C3B17971   2.122   8.091   6.646 -0.3266 -0.2414  0.3484
 1165loPI   C4B17972   2.384   8.303   6.565  0.0275  0.1808  0.2963
 1166loPI    C117973  17.720   2.084   5.032  0.1782  0.1306 -0.1508
 1166loPI    C217974  17.763   2.234   4.663  0.0482  0.0126 -0.2150
 1166loPI    C317975  17.419   2.286   4.861  0.0732 -0.0310 -0.1599
 1166loPI   PO417976  17.828   2.286   5.243 -0.1765 -0.2274 -0.1162
 1166loPI   GL117977  17.677   2.589   5.479 -0.2121  0.1187 -0.0277
 1166loPI   GL217978  17.619   2.902   5.407  0.1715 -0.1662 -0.3601
 1166loPI   C1A17979  17.955   2.545   5.783  0.1198  0.0187 -0.1832
 1166loPI   C2A17980  18.153   2.388   6.151 -0.1074 -0.0317 -0.0826
 1166loPI   C3A17981  18.377   2.371   6.503  0.0489 -0.0310 -0.0382
 1166loPI   C4A17982  18.444   2.386   6.896 -0.2995 -0.3243 -0.1509
 1166loPI   C5A17983  18.458   2.251   7.220  0.1390 -0.0096 -0.3076
 1166loPI   C6A17984  18.454   2.538   7.617  0.0248 -0.3320  0.2633
 1166loPI   C1B17985  17.353   2.800   5.771 -0.0366 -0.2439 -0.0631
 1166loPI   C2B17986  17.043   2.515   5.958  0.0117 -0.0592 -0.1147
 1166loPI   C3B17987  16.883   2.327   6.302 -0.0449  0.2130  0.0544
 1166loPI   C4B17988  16.448   2.360   6.513 -0.2247 -0.1238 -0.1369
 1167loPI    C117989   0.597   0.948   4.653  0.0743 -0.1122  0.0192
 1167loPI    C217990   0.698   0.562   4.621  0.0692 -0.1079 -0.0495
 1167loPI    C317991   0.557   0.759   4.303  0.0339 -0.0600 -0.0043
 1167loPI   PO417992   0.434   0.988   4.901  0.0138 -0.0703 -0.0125
 1167loPI   GL117993   0.506   1.069   5.398  0.3136  0.0909  0.2472
 1167loPI   GL217994   0.742   1.182   5.543 -0.0683  0.0886 -0.3541
 1167loPI   C1A17995   0.272   1.398   5.713  0.2580  0.2519  0.1385
 1167loPI   C2A17996   0.216   1.308   6.159  0.2305 -0.0575 -0.3237
 1167loPI   C3A17997   0.107   1.043   6.538  0.1071  0.2528  0.3591
 1167loPI   C4A17998  -0.025   0.962   7.005  0.0887 -0.2552  0.0265
 1167loPI   C5A17999  -0.174   0.592   7.314  0.0262  0.0329  0.0277
 1167loPI   C6A18000  -0.449   0.124   7.347 -0.0196 -0.3608  0.1195
 1167loPI   C1B18001   0.592   0.988   5.891 -0.2287  0.0206 -0.1663
 1167loPI   C2B18002   0.404   0.781   6.149 -0.0552  0.1478 -0.0747
 1167loPI   C3B18003   0.326   0.581   6.554  0.3105  0.1483 -0.1097
 1167loPI   C4B18004   0.212   0.525   7.039  0.2135 -0.1637 -0.1880
 1168loPI    C118005   7.753   3.376   4.671  0.2077  0.2519 -0.0994
 1168loPI    C218006   7.486   3.583   4.457 -0.0425  0.1202  0.0806
 1168loPI    C318007   7.821   3.450   4.283 -0.1185  0.2387 -0.1617
 1168loPI   PO418008   7.782   3.541   4.932  0.2456 -0.0832  0.0046
 1168loPI   GL118009   7.617   3.655   5.287  0.0364 -0.3440  0.1336
 1168loPI   GL218010   7.648   4.009   5.515 -0.1025  0.2522 -0.0130
 1168loPI   C1A18011   7.806   3.609   5.695  0.2099  0.0244  0.0287
 1168loPI   C2A18012   7.808   3.730   6.080 -0.2593  0.0242  0.1457
 1168loPI   C3A18013   8.091   3.757   6.348  0.0169  0.0250 -0.2364
 1168loPI   C4A18014   7.875   3.650   6.825 -0.1393 -0.2930  0.0344
 1168loPI   C5A18015   7.771   3.583   7.294  0.2416  0.0129 -0.1691
 1168loPI   C6A18016   7.807   3.156   7.528  0.0774 -0.0201 -0.2292
 1168loPI   C1B18017   7.473   4.021   5.872  0.1901 -0.0672 -0.1172
 1168loPI   C2B18018   7.296   4.005   6.303  0.2280 -0.1156 -0.1233
 1168loPI   C3B18019   7.451   4.025   6.721 -0.0606  0.1427  0.1240
 1168loPI   C4B18020   7.570   3.995   7.088 -0.0452 -0.0437  0.2825
 1169loPI    C118021   0.107   1.016   4.484  0.0422 -0.0661 -0.1774
 1169loPI    C218022   0.062   0.762   4.179  0.0054 -0.0097 -0.2193
 1169loPI    C318023   0.220   1.124   4.116 -0.0994  0.0414 -0.1904
 1169loPI   PO418024  -0.130   0.981   4.608  0.0392  0.1077 -0.0011
 1169loPI   GL118025   0.028   0.825   5.075 -0.1757  0.2728 -0.1366
 1169loPI   GL218026   0.070   1.178   5.216  0.0881 -0.0779  0.0354
 1169loPI   C1A18027  -0.352   0.832   5.378 -0.0015  0.0125 -0.1845
 1169loPI   C2A18028  -0.621   0.884   5.687  0.0779 -0.1323  0.0487
 1169loPI   C3A18029  -0.683   0.808   6.121 -0.1497  0.1157 -0.0655
 1169loPI   C4A18030  -0.792   0.827   6.525  0.0519  0.1711  0.1192
 1169loPI   C5A18031  -1.105   0.783   6.989 -0.1457  0.0877  0.1361
 1169loPI   C6A18032  -1.048   0.947   7.410  0.0227 -0.2527  0.0334
 1169loPI   C1B18033  -0.230   1.293   5.537 -0.2689 -0.0988  0.4516
 1169loPI   C2B18034  -0.238   1.549   5.925 -0.1899  0.3175  0.0635
 1169loPI   C3B18035  -0.436   1.598   6.291 -0.2588 -0.0818 -0.2844
 1169loPI   C4B18036  -0.174   1.658   6.632  0.0590  0.3464  0.1005
 1170loPI    C118037  13.430  11.904   5.004  0.0005 -0.0711  0.1626
 1170loPI    C218038  13.327  11.678   4.690 -0.1843 -0.0859  0.2329
 1170loPI    C318039  13.184  12.050   4.724  0.1155  0.0424  0.1197
 1170loPI   PO418040  13.430  11.790   5.214 -0.1658  0.1561 -0.0661
 1170loPI   GL118041  13.607  11.659   5.526 -0.0775  0.1339  0.0980
 1170loPI   GL218042  13.819  11.417   5.458 -0.1534  0.1726 -0.0481
 1170loPI   C1A18043  13.649  11.616   5.926  0.0304 -0.0310 -0.4075
 1170loPI   C2A18044  13.560  11.704   6.309  0.1927 -0.1097  0.1111
 1170loPI   C3A18045  13.475  12.109   6.518  0.0797 -0.1594 -0.2822
 1170loPI   C4A18046  13.602  12.336   6.874  0.3029 -0.3189 -0.2464
 1170loPI   C5A18047  13.475  12.371   7.337 -0.1613 -0.0127  0.2184
 1170loPI   C6A18048  13.340  12.095   7.596 -0.2883  0.3020  0.1270
 1170loPI   C1B18049  13.823  11.136   5.782 -0.1480  0.5076  0.0088
 1170loPI   C2B18050  13.744  11.225   6.239  0.0198 -0.0168  0.1147
 1170loPI   C3B18051  13.710  11.250   6.698  0.0461 -0.1529 -0.0040
 1170loPI   C4B18052  13.398  11.229   6.989 -0.0874  0.4070  0.3302
 1171loPI    C118053  14.046   4.321   4.563  0.0628 -0.0610  0.0907
 1171loPI    C218054  13.955   4.033   4.300 -0.2425  0.0694  0.0499
 1171loPI    C318055  14.197   4.333   4.192 -0.1905  0.0048 -0.0127
 1171loPI   PO418056  14.095   4.226   4.767  0.0562  0.0540  0.0498
 1171loPI   GL118057  14.295   4.237   5.071  0.1275 -0.0673 -0.0079
 1171loPI   GL218058  14.443   3.912   5.030  0.3623 -0.0265 -0.2009
 1171loPI   C1A18059  14.450   4.197   5.522 -0.1159  0.1642  0.2834
 1171loPI   C2A18060  14.459   4.319   5.978 -0.1414  0.0892 -0.1520
 1171loPI   C3A18061  14.529   4.365   6.457 -0.1060 -0.2684 -0.1459
 1171loPI   C4A18062  14.576   4.491   6.915 -0.1641 -0.5920 -0.2960
 1171loPI   C5A18063  14.807   4.775   7.170 -0.3385  0.1195  0.2854
 1171loPI   C6A18064  15.201   4.865   7.322  0.4258 -0.3752 -0.0635
 1171loPI   C1B18065  14.291   3.750   5.481  0.3517  0.3516  0.2762
 1171loPI   C2B18066  14.172   3.906   5.856  0.0738 -0.0054  0.0644
 1171loPI   C3B18067  14.245   3.961   6.286  0.3722  0.3498 -0.1303
 1171loPI   C4B18068  14.261   4.026   6.712 -0.0469  0.3725 -0.2368
 1172loPI    C118069  10.312   1.377   4.855 -0.0387 -0.0724 -0.1948
 1172loPI    C218070  10.674   1.289   4.709 -0.0235 -0.0055 -0.1975
 1172loPI    C318071  10.414   1.498   4.488 -0.1189 -0.1820 -0.2536
 1172loPI   PO418072  10.412   1.510   5.123 -0.3684 -0.0250 -0.1497
 1172loPI   GL118073  10.688   1.581   5.499 -0.1926  0.2104 -0.0314
 1172loPI   GL218074  10.443   1.240   5.541  0.0633  0.0241 -0.1653
 1172loPI   C1A18075  10.688   1.527   6.020 -0.0180 -0.1618 -0.0092
 1172loPI   C2A18076  10.491   1.783   6.385  0.0096 -0.0540 -0.0622
 1172loPI   C3A18077  10.264   2.008   6.726  0.2851  0.0087  0.2457
 1172loPI   C4A18078  10.136   2.270   7.077  0.3135  0.1749  0.0606
 1172loPI   C5A18079  10.371   2.386   7.565  0.0979 -0.1034 -0.1161
 1172loPI   C6A18080  10.320   2.267   8.003  0.0506  0.0774 -0.0778
 1172loPI   C1B18081  10.392   1.082   5.990  0.0321 -0.0740  0.0582
 1172loPI   C2B18082  10.550   1.266   6.429 -0.3277 -0.1099  0.1550
 1172loPI   C3B18083  10.529   1.250   6.830 -0.0855 -0.3412 -0.2279
 1172loPI   C4B18084  10.369   1.123   7.240 -0.3139 -0.0870 -0.0536
 1173loPI    C118085  16.706   9.109   4.894  0.0796 -0.0119  0.2234
 1173loPI    C218086  17.002   8.877   4.759  0.0962  0.0746  0.1101
 1173loPI    C318087  16.700   8.977   4.516  0.0885  0.1698  0.1587
 1173loPI   PO418088  16.650   8.983   5.223 -0.0733 -0.1596 -0.3984
 1173loPI   GL118089  16.623   8.848   5.733  0.0898 -0.1314 -0.0308
 1173loPI   GL218090  16.951   8.989   5.644 -0.1139  0.1254 -0.0125
 1173loPI   C1A18091  16.700   8.392   6.022 -0.2008  0.0908  0.0939
 1173loPI   C2A18092  16.485   8.236   6.413  0.2183  0.1623  0.1812
 1173loPI   C3A18093  16.342   8.237   6.854 -0.2534  0.2297 -0.0145
 1173loPI   C4A18094  16.151   8.186   7.224 -0.2731 -0.2552  0.0768
 1173loPI   C5A18095  16.244   8.363   7.704  0.0220  0.0634 -0.1225
 1173loPI   C6A18096  16.233   8.165   8.123 -0.0090  0.0387 -0.1450
 1173loPI   C1B18097  17.024   8.764   6.129  0.0084  0.1757  0.0743
 1173loPI   C2B18098  16.865   8.817   6.564  0.1404 -0.0404  0.2280
 1173loPI   C3B18099  16.942   8.746   7.065 -0.2038  0.3321 -0.0440
 1173loPI   C4B18100  17.280   8.721   7.430  0.1716  0.0339 -0.1707
 1174loPI    C118101   1.047  11.378   4.993 -0.1174  0.0172 -0.0131
 1174loPI    C218102   1.113  11.672   4.731 -0.0581 -0.0620 -0.0878
 1174loPI    C318103   0.820  11.408   4.665  0.0541 -0.1717 -0.1521
 1174loPI   PO418104   1.032  11.494   5.235  0.0538 -0.3295  0.0115
 1174loPI   GL118105   0.880  11.485   5.654 -0.0457  0.0527  0.0783
 1174loPI   GL218106   0.533  11.319   5.566 -0.1985 -0.2167  0.0813
 1174loPI   C1A18107   0.884  11.317   5.993  0.3328  0.1455 -0.2076
 1174loPI   C2A18108   0.889  11.233   6.492 -0.0953  0.1110  0.2041
 1174loPI   C3A18109   0.603  11.138   6.838 -0.0624  0.2232 -0.2280
 1174loPI   C4A18110   0.460  11.119   7.156 -0.1071  0.1494 -0.0778
 1174loPI   C5A18111   0.525  11.161   7.607  0.4074  0.3336 -0.0565
 1174loPI   C6A18112   0.516  11.118   8.076 -0.2253  0.3160  0.0948
 1174loPI   C1B18113   0.380  11.205   6.026  0.2049  0.1649  0.0963
 1174loPI   C2B18114   0.295  11.177   6.447  0.1663  0.1472  0.1688
 1174loPI   C3B18115   0.062  11.251   6.941  0.1912  0.1705  0.1389
 1174loPI   C4B18116   0.225  11.466   7.355  0.1705  0.0282  0.2376
 1175loPI    C118117   9.145   5.442   4.765 -0.0374  0.1106 -0.0706
 1175loPI    C218118   8.769   5.566   4.704 -0.0698 -0.0651 -0.2366
 1175loPI    C318119   9.077   5.794   4.588 -0.1266 -0.0197 -0.2986
 1175loPI   PO418120   9.097   5.300   4.990 -0.3465 -0.0476 -0.4152
 1175loPI   GL118121   9.135   5.139   5.411  0.0132 -0.3613 -0.0431
 1175loPI   GL218122   8.951   4.942   5.346 -0.0096  0.0781  0.3824
 1175loPI   C1A18123   9.186   5.239   5.842 -0.1679 -0.1638 -0.0251
 1175loPI   C2A18124   9.285   5.203   6.192 -0.4615 -0.1205  0.4106
 1175loPI   C3A18125   9.284   5.171   6.537 -0.4475  0.3319 -0.3704
 1175loPI   C4A18126   9.125   5.138   6.904 -0.0140 -0.5203 -0.3640
 1175loPI   C5A18127   9.149   5.234   7.298 -0.1665 -0.0439  0.0145
 1175loPI   C6A18128   9.033   5.158   7.718 -0.4608  0.0513  0.1565
 1175loPI   C1B18129   8.843   4.807   5.770  0.0491  0.2019  0.3380
 1175loPI   C2B18130   8.858   4.904   6.142  0.1070  0.1360  0.0871
 1175loPI   C3B18131   8.960   4.829   6.572  0.1278 -0.0584 -0.1025
 1175loPI   C4B18132   8.645   4.938   6.963  0.3127  0.3516 -0.0523
 1176loPI    C118133   0.240   6.893   5.560  0.0589 -0.1255  0.0532
 1176loPI    C218134   0.113   7.026   5.205  0.1799  0.1142  0.0975
 1176loPI    C318135  -0.151   6.936   5.491  0.0924  0.1774  0.0370
 1176loPI   PO418136   0.406   7.087   5.611 -0.1418 -0.1521  0.1107
 1176loPI   GL118137   0.774   7.032   5.883 -0.0762 -0.0245 -0.1641
 1176loPI   GL218138   0.486   6.779   6.005  0.0796  0.3106 -0.1954
 1176loPI   C1A18139   0.967   6.901   6.217 -0.0599 -0.1308 -0.0845
 1176loPI   C2A18140   0.980   6.716   6.567 -0.1673 -0.0646  0.1460
 1176loPI   C3A18141   1.015   6.511   6.967 -0.1684  0.0253  0.0264
 1176loPI   C4A18142   0.624   6.446   7.277 -0.1322  0.0613 -0.2828
 1176loPI   C5A18143   0.215   6.577   7.203 -0.3354  0.2021 -0.0577
 1176loPI   C6A18144   0.018   6.434   7.562  0.1981  0.1750 -0.0733
 1176loPI   C1B18145   0.471   6.644   6.363 -0.1727  0.2730  0.0024
 1176loPI   C2B18146   0.556   6.601   6.761 -0.2070 -0.1027 -0.1634
 1176loPI   C3B18147   0.583   6.890   7.061 -0.1197  0.0630 -0.0435
 1176loPI   C4B18148   0.503   7.328   7.165  0.2527 -0.2170 -0.0107
 1177loPI    C118149  11.134   0.218   4.693  0.0544 -0.0780 -0.0185
 1177loPI    C218150  10.963   0.006   4.400 -0.1263  0.0484 -0.0061
 1177loPI    C318151  11.361   0.022   4.429 -0.1087 -0.0517 -0.1809
 1177loPI   PO418152  10.969   0.062   4.920  0.0817 -0.1610 -0.0797
 1177loPI   GL118153  11.084   0.057   5.377  0.1461 -0.0415 -0.0924
 1177loPI   GL218154  10.803   0.043   5.406  0.1862 -0.1033 -0.1486
 1177loPI   C1A18155  11.241   0.055   5.784 -0.0332 -0.1929 -0.1340
 1177loPI   C2A18156  10.939   0.146   6.226 -0.1229 -0.0425 -0.1054
 1177loPI   C3A18157  10.558   0.287   6.505  0.2444  0.2268  0.1498
 1177loPI   C4A18158  10.393  -0.019   6.834 -0.4406 -0.0621  0.0149
 1177loPI   C5A18159  10.472  -0.126   7.116  0.0341 -0.2619 -0.2069
 1177loPI   C6A18160  10.154  -0.276   7.272 -0.3031 -0.2089  0.0455
 1177loPI   C1B18161  10.505  -0.075   5.902  0.0783  0.2641 -0.0370
 1177loPI   C2B18162  10.527  -0.160   6.235 -0.0792  0.1891 -0.2033
 1177loPI   C3B18163  10.706  -0.333   6.641  0.0107  0.2613  0.0833
 1177loPI   C4B18164  10.927  -0.425   6.984 -0.0760  0.1646 -0.3275
 1178loPI    C118165  16.678   6.129   4.544  0.2426  0.0266  0.3634
 1178loPI    C218166  16.789   5.775   4.394  0.0711  0.1087  0.0333
 1178loPI    C318167  16.401   5.863   4.432  0.1115  0.3180 -0.0252
 1178loPI   PO418168  16.762   6.211   4.776  0.0742  0.3195 -0.0627
 1178loPI   GL118169  16.731   6.174   5.273 -0.2564  0.1867 -0.0006
 1178loPI   GL218170  16.426   6.002   5.386 -0.1378 -0.0884  0.0273
 1178loPI   C1A18171  16.716   6.297   5.708 -0.1356 -0.0349 -0.2443
 1178loPI   C2A18172  16.745   6.265   6.123  0.1814 -0.3134 -0.0702
 1178loPI   C3A18173  16.760   6.199   6.577 -0.4811 -0.2526  0.1082
 1178loPI   C4A18174  16.589   6.218   6.974  0.1196  0.1333 -0.3440
 1178loPI   C5A18175  16.512   6.209   7.371 -0.0411  0.3889 -0.3627
 1178loPI   C6A18176  16.130   5.919   7.515  0.1454  0.2468 -0.0393
 1178loPI   C1B18177  16.460   5.908   5.841  0.0538 -0.1185  0.2929
 1178loPI   C2B18178  16.470   5.849   6.318 -0.1785 -0.0767 -0.1435
 1178loPI   C3B18179  16.516   5.737   6.753 -0.0527  0.1371  0.2349
 1178loPI   C4B18180  16.520   5.743   7.155  0.2047  0.1988 -0.0805
 1179loPI    C118181   1.991  11.191   5.309 -0.1658 -0.1141  0.0759
 1179loPI    C218182   1.987  10.844   5.109 -0.0391 -0.0849  0.0213
 1179loPI    C318183   2.015  11.190   4.909  0.4706 -0.0711  0.1035
 1179loPI   PO418184   1.787  11.181   5.488  0.1566  0.2163 -0.1038
 1179loPI   GL118185   1.501  11.079   5.712  0.1758  0.0219 -0.0498
 1179loPI   GL218186   1.242  11.167   5.666 -0.4087 -0.2960 -0.3515
 1179loPI   C1A18187   1.697  11.057   6.053  0.2661 -0.3000  0.0110
 1179loPI   C2A18188   1.809  10.898   6.504 -0.0795  0.0646 -0.0254
 1179loPI   C3A18189   1.706  11.054   7.055  0.0006  0.3526 -0.1278
 1179loPI   C4A18190   1.756  10.789   7.424 -0.3331  0.1035  0.0659
 1179loPI   C5A18191   1.730  10.768   7.814  0.3699  0.0775  0.1071
 1179loPI   C6A18192   1.738  10.506   8.158  0.0806 -0.0520  0.0984
 1179loPI   C1B18193   1.367  11.433   6.043  0.0048 -0.4056 -0.1796
 1179loPI   C2B18194   1.277  11.639   6.362 -0.1476 -0.1572  0.2235
 1179loPI   C3B18195   1.030  11.705   6.712  0.2868  0.3869 -0.0387
 1179loPI   C4B18196   1.186  11.806   7.082 -0.0692  0.2239 -0.0130
 1180loPI    C118197  13.123  17.504   4.617  0.0806  0.0468 -0.0974
 1180loPI    C218198  13.071  17.683   4.263  0.0109 -0.0643 -0.1440
 1180loPI    C318199  13.401  17.468   4.332  0.0302 -0.0326 -0.1369
 1180loPI   PO418200  13.032  17.670   4.836 -0.0834  0.1409 -0.0584
 1180loPI   GL118201  13.325  17.842   5.124  0.0717 -0.1941 -0.0644
 1180loPI   GL218202  13.586  17.619   5.252 -0.0222 -0.0322 -0.1122
 1180loPI   C1A18203  13.178  17.902   5.545  0.1086  0.0237  0.1668
 1180loPI   C2A18204  13.220  17.699   5.997 -0.0590  0.2867 -0.2321
 1180loPI   C3A18205  13.125  17.378   6.333  0.1399  0.1451  0.0185
 1180loPI   C4A18206  12.991  17.159   6.744 -0.0243 -0.3687  0.1321
 1180loPI   C5A18207  12.611  17.044   6.979 -0.3691 -0.1429 -0.0703
 1180loPI   C6A18208  12.222  16.981   7.179  0.1613  0.0643  0.0764
 1180loPI   C1B18209  13.697  17.646   5.586  0.0980  0.1733  0.0123
 1180loPI   C2B18210  13.699  17.828   5.979  0.0929  0.0591 -0.3590
 1180loPI   C3B18211  13.543  17.725   6.424  0.0597  0.0072  0.1050
 1180loPI   C4B18212  13.447  17.396   6.704  0.1465  0.0776 -0.2485
 1181loPI    C118213  11.619   0.646   4.830 -0.3448 -0.2611  0.0994
 1181loPI    C218214  11.504   0.537   4.463 -0.2646 -0.1561  0.0425
 1181loPI    C318215  11.483   0.921   4.573 -0.3389 -0.1949  0.1666
 1181loPI   PO418216  11.493   0.527   4.947 -0.0742  0.2870 -0.4853
 1181loPI   GL118217  11.555   0.375   5.445 -0.0674 -0.0707  0.1801
 1181loPI   GL218218  11.780   0.160   5.478 -0.2445  0.1869 -0.0487
 1181loPI   C1A18219  11.620   0.426   5.877 -0.0185  0.1061 -0.0843
 1181loPI   C2A18220  11.759   0.505   6.220 -0.0095  0.0440  0.1999
 1181loPI   C3A18221  11.846   0.313   6.638  0.0723 -0.0157  0.1656
 1181loPI   C4A18222  11.668   0.062   6.828 -0.1346 -0.0084  0.0077
 1181loPI   C5A18223  11.289   0.007   7.100 -0.1997 -0.0375 -0.2267
 1181loPI   C6A18224  11.017  -0.046   7.413 -0.0010  0.3574 -0.0569
 1181loPI   C1B18225  11.706  -0.042   5.854  0.3286  0.1804  0.2114
 1181loPI   C2B18226  11.515   0.052   6.221 -0.0635 -0.1246 -0.0763
 1181loPI   C3B18227  11.237   0.079   6.619  0.1632  0.2590  0.3104
 1181loPI   C4B18228  10.875   0.122   6.863 -0.2433 -0.1572 -0.0430
 1182loPI    C118229   8.943   8.875   4.938 -0.1125  0.1246 -0.0886
 1182loPI    C218230   9.107   8.522   4.846 -0.0881  0.0483  0.2335
 1182loPI    C318231   9.018   8.783   4.556 -0.0967 -0.2161 -0.0073
 1182loPI   PO418232   9.060   8.875   5.239  0.0318 -0.0478 -0.3552
 1182loPI   GL118233   8.931   9.097   5.540  0.3358 -0.2860  0.0377
 1182loPI   GL218234   9.182   9.032   5.701  0.0566  0.1537 -0.2187
 1182loPI   C1A18235   8.734   9.354   6.036  0.3286  0.0092 -0.1966
 1182loPI   C2A18236   8.757   9.463   6.490  0.1945 -0.0333  0.0059
 1182loPI   C3A18237   8.674   9.596   6.882 -0.0660 -0.2857  0.3111
 1182loPI   C4A18238   8.516   9.580   7.289  0.1271 -0.2372  0.3983
 1182loPI   C5A18239   8.249   9.903   7.392 -0.0339 -0.1292  0.2709
 1182loPI   C6A18240   7.860  10.009   7.285  0.0285 -0.0045 -0.0836
 1182loPI   C1B18241   9.490   8.904   6.078  0.0454 -0.1081  0.0552
 1182loPI   C2B18242   9.694   8.954   6.455  0.0813  0.0874  0.1625
 1182loPI   C3B18243   9.828   8.943   6.929  0.0157  0.1400 -0.4892
 1182loPI   C4B18244   9.993   8.567   7.259 -0.0850  0.2253  0.3205
 1183loPI    C118245  17.535   7.391   5.485 -0.0485 -0.1009 -0.0910
 1183loPI    C218246  17.497   7.345   5.089 -0.0553  0.0434 -0.1079
 1183loPI    C318247  17.422   7.700   5.257  0.3192  0.0878 -0.0258
 1183loPI   PO418248  17.673   7.255   5.535 -0.0113 -0.0741 -0.2615
 1183loPI   GL118249  17.875   7.351   5.913 -0.1867  0.1215 -0.0010
 1183loPI   GL218250  17.923   7.061   5.911  0.0512  0.1442  0.1912
 1183loPI   C1A18251  17.859   7.641   6.176 -0.0398 -0.4409  0.0325
 1183loPI   C2A18252  17.974   7.790   6.585 -0.1823  0.1279  0.1619
 1183loPI   C3A18253  18.164   7.896   6.904  0.0048  0.0493  0.2611
 1183loPI   C4A18254  18.149   7.872   7.290 -0.2377  0.1285  0.0311
 1183loPI   C5A18255  18.400   7.722   7.593  0.1579 -0.1904  0.0044
 1183loPI   C6A18256  18.522   7.539   7.984 -0.1488  0.1962 -0.1016
 1183loPI   C1B18257  17.879   6.911   6.330 -0.0499 -0.2613 -0.1371
 1183loPI   C2B18258  17.540   6.784   6.611 -0.2998  0.3180 -0.0263
 1183loPI   C3B18259  17.515   6.808   7.017  0.2614 -0.2247 -0.2199
 1183loPI   C4B18260  17.652   6.654   7.419 -0.2054  0.1128  0.2037
 1184loPI    C118261  16.321   6.795   4.693  0.2474 -0.0016  0.1951
 1184loPI    C218262  16.222   6.436   4.546  0.0464  0.1099  0.0538
 1184loPI    C318263  16.584   6.590   4.473  0.1356 -0.0660  0.1209
 1184loPI   PO418264  16.239   6.796   4.946 -0.0916 -0.0137  0.2565
 1184loPI   GL118265  16.290   6.500   5.370 -0.1735  0.0431 -0.1930
 1184loPI   GL218266  16.462   6.705   5.529 -0.0401 -0.2053  0.2374
 1184loPI   C1A18267  16.179   6.325   5.735 -0.0786  0.1274 -0.0209
 1184loPI   C2A18268  16.227   6.241   6.185  0.1351  0.0217  0.0439
 1184loPI   C3A18269  16.161   6.155   6.603  0.1058  0.2496 -0.0629
 1184loPI   C4A18270  16.107   6.104   7.030  0.2805  0.4711 -0.2822
 1184loPI   C5A18271  15.669   6.049   7.318 -0.2156 -0.1914 -0.0658
 1184loPI   C6A18272  15.220   5.916   7.467  0.2428 -0.1153  0.1812
 1184loPI   C1B18273  16.348   6.687   6.004  0.0633  0.3621  0.0143
 1184loPI   C2B18274  16.513   6.612   6.409 -0.2115  0.1561  0.0129
 1184loPI   C3B18275  16.639   6.798   6.793  0.1082  0.0920 -0.1436
 1184loPI   C4B18276  16.840   6.662   7.110 -0.0693 -0.2303  0.2844
 1185loPI    C118277  17.106   9.823   4.866  0.0118 -0.1702 -0.0213
 1185loPI    C218278  16.764   9.637   4.773 -0.2305  0.3016 -0.1019
 1185loPI    C318279  17.044   9.693   4.493 -0.1276  0.0067 -0.0611
 1185loPI   PO418280  17.038  10.076   5.063  0.2311 -0.0895  0.1975
 1185loPI   GL118281  17.072   9.997   5.475 -0.0101 -0.1127  0.0712
 1185loPI   GL218282  17.276   9.853   5.406  0.1459  0.2812 -0.0620
 1185loPI   C1A18283  16.896  10.079   5.901  0.0259 -0.0005  0.0858
 1185loPI   C2A18284  16.863   9.876   6.157 -0.0376 -0.1018 -0.0501
 1185loPI   C3A18285  16.481   9.754   6.427  0.0514 -0.0016 -0.1190
 1185loPI   C4A18286  16.487   9.705   6.897  0.2085  0.5703 -0.0750
 1185loPI   C5A18287  16.577   9.851   7.228  0.3107  0.1727 -0.0018
 1185loPI   C6A18288  16.761   9.978   7.589  0.3911 -0.1616  0.0517
 1185loPI   C1B18289  17.333   9.853   5.897  0.1267  0.0332  0.1562
 1185loPI   C2B18290  17.399   9.820   6.352  0.0736 -0.1633  0.0859
 1185loPI   C3B18291  17.014   9.814   6.587  0.1523 -0.0540 -0.1317
 1185loPI   C4B18292  16.948  10.010   6.954  0.3955 -0.2452  0.0578
 1186loPI    C118293  17.746   5.298   4.934 -0.3413 -0.1081 -0.0088
 1186loPI    C218294  17.636   5.479   4.595 -0.2185 -0.0726 -0.0301
 1186loPI    C318295  17.897   5.177   4.584  0.1135  0.2035  0.0710
 1186loPI   PO418296  17.748   5.380   5.134  0.1109 -0.4206  0.1267
 1186loPI   GL118297  17.800   5.238   5.563  0.1393 -0.1022 -0.0768
 1186loPI   GL218298  17.736   5.023   5.661  0.1045 -0.0358  0.1538
 1186loPI   C1A18299  17.789   5.464   5.976  0.2191  0.0731  0.3063
 1186loPI   C2A18300  17.524   5.668   6.398  0.1606 -0.2678 -0.1841
 1186loPI   C3A18301  17.490   5.929   6.742 -0.1131  0.2985  0.1830
 1186loPI   C4A18302  17.432   5.956   7.179  0.1900 -0.1544  0.2505
 1186loPI   C5A18303  17.684   5.585   7.302 -0.1361  0.1776 -0.0794
 1186loPI   C6A18304  18.067   5.578   7.407 -0.3764 -0.0023 -0.0191
 1186loPI   C1B18305  17.916   4.927   6.026  0.1000 -0.1378  0.2102
 1186loPI   C2B18306  17.991   4.635   6.411  0.0500  0.0095 -0.1383
 1186loPI   C3B18307  18.131   4.770   6.755 -0.1982  0.3210 -0.2939
 1186loPI   C4B18308  18.459   4.591   7.029  0.0245 -0.0899  0.0641
 1187loPI    C118309  14.729  10.196   4.889 -0.0468  0.1355 -0.0310
 1187loPI    C218310  15.019  10.415   4.723 -0.0441  0.1262 -0.0383
 1187loPI    C318311  15.006  10.020   4.660  0.0563  0.0964  0.1219
 1187loPI   PO418312  14.647  10.342   5.077  0.4053  0.0536  0.3606
 1187loPI   GL118313  14.543  10.458   5.388 -0.0099 -0.0637 -0.1547
 1187loPI   GL218314  14.790  10.273   5.551 -0.2119  0.1955  0.2403
 1187loPI   C1A18315  14.360  10.478   5.853 -0.0636  0.0568  0.2943
 1187loPI   C2A18316  14.348  10.401   6.306  0.0323 -0.2420  0.3923
 1187loPI   C3A18317  14.365  10.633   6.682  0.1011  0.1100 -0.2723
 1187loPI   C4A18318  14.302  10.597   7.054  0.0430 -0.1783 -0.4405
 1187loPI   C5A18319  14.444  10.833   7.358 -0.0137  0.2375 -0.2719
 1187loPI   C6A18320  14.340  11.024   7.732  0.2140  0.1389  0.3646
 1187loPI   C1B18321  14.816  10.354   5.999  0.0397 -0.2153  0.1516
 1187loPI   C2B18322  14.854  10.395   6.452 -0.2074 -0.0699  0.2148
 1187loPI   C3B18323  14.790  10.419   6.946  0.1368  0.0106  0.1575
 1187loPI   C4B18324  14.539  10.358   7.429  0.1239 -0.3750 -0.1415
 1188loPI    C118325  10.327   5.307   4.916  0.0207  0.1745  0.3261
 1188loPI    C218326   9.950   5.379   5.030 -0.1737  0.0025 -0.1782
 1188loPI    C318327  10.049   5.022   4.880  0.2322 -0.0074  0.0958
 1188loPI   PO418328  10.531   5.366   5.179 -0.2703  0.3130 -0.1029
 1188loPI   GL118329  10.723   5.155   5.527  0.4758 -0.1563 -0.1047
 1188loPI   GL218330  10.961   5.112   5.348  0.2112  0.0000  0.0575
 1188loPI   C1A18331  10.980   4.934   5.811  0.2747  0.1333 -0.3484
 1188loPI   C2A18332  11.054   4.748   6.202 -0.1193  0.1624  0.2589
 1188loPI   C3A18333  11.331   4.731   6.603  0.2930  0.1017 -0.1301
 1188loPI   C4A18334  11.462   4.567   7.047 -0.2265 -0.0155 -0.0252
 1188loPI   C5A18335  11.321   4.127   7.134  0.0627 -0.2214 -0.0140
 1188loPI   C6A18336  11.040   3.980   7.447  0.1971  0.1039 -0.0959
 1188loPI   C1B18337  11.388   4.933   5.572  0.1165  0.2072  0.0123
 1188loPI   C2B18338  11.496   4.969   6.007  0.2670 -0.4400  0.1296
 1188loPI   C3B18339  11.273   5.149   6.318 -0.0150  0.0992  0.3586
 1188loPI   C4B18340  11.085   5.576   6.474  0.0053 -0.2974 -0.0127
 1189loPI    C118341   1.040   2.467   4.604  0.2149  0.2026  0.5548
 1189loPI    C218342   1.344   2.212   4.657 -0.0356 -0.2652 -0.1129
 1189loPI    C318343   1.364   2.490   4.370 -0.0963 -0.0566  0.0817
 1189loPI   PO418344   1.004   2.573   4.807 -0.1679 -0.0182 -0.1755
 1189loPI   GL118345   1.287   2.509   5.172  0.0817  0.1086 -0.1154
 1189loPI   GL218346   1.234   2.273   5.125  0.0827  0.1042 -0.1926
 1189loPI   C1A18347   1.412   2.521   5.580 -0.0536  0.1518 -0.0426
 1189loPI   C2A18348   1.376   2.365   6.000 -0.1665  0.0332 -0.0073
 1189loPI   C3A18349   1.567   2.162   6.333 -0.0528  0.1648  0.0397
 1189loPI   C4A18350   1.474   1.913   6.674 -0.3807 -0.2123  0.2602
 1189loPI   C5A18351   1.604   1.997   7.102 -0.0354  0.1112 -0.0327
 1189loPI   C6A18352   1.543   2.258   7.566  0.2245  0.2230 -0.1087
 1189loPI   C1B18353   0.944   2.152   5.468 -0.2565  0.0411  0.3104
 1189loPI   C2B18354   0.810   2.020   5.889 -0.1725  0.0383  0.0625
 1189loPI   C3B18355   0.559   1.965   6.253  0.2053 -0.2045  0.0095
 1189loPI   C4B18356   0.317   1.686   6.542 -0.0961 -0.0527 -0.3172
 1190loPI    C118357  17.125   6.927   4.968  0.0347 -0.0517  0.1906
 1190loPI    C218358  17.440   6.763   4.784  0.0492  0.3167 -0.1233
 1190loPI    C318359  17.069   6.654   4.681  0.0653  0.1497 -0.0087
 1190loPI   PO418360  17.187   6.958   5.152  0.0147  0.1443 -0.0077
 1190loPI   GL118361  17.223   6.922   5.619 -0.0926  0.1559  0.0286
 1190loPI   GL218362  16.872   6.967   5.621 -0.3224 -0.0114  0.1288
 1190loPI   C1A18363  17.426   6.879   6.001  0.0666  0.1536  0.0565
 1190loPI   C2A18364  17.456   7.202   6.254  0.3935  0.2216 -0.1775
 1190loPI   C3A18365  17.696   7.257   6.612  0.1439  0.3222 -0.1381
 1190loPI   C4A18366  17.846   7.514   6.982  0.1016  0.1062 -0.2194
 1190loPI   C5A18367  17.651   7.760   7.299 -0.3158  0.3100  0.0001
 1190loPI   C6A18368  17.292   7.659   7.609 -0.0544 -0.2392  0.1054
 1190loPI   C1B18369  16.869   7.117   5.966  0.0862  0.1495  0.1891
 1190loPI   C2B18370  16.663   7.139   6.338 -0.3378 -0.0062  0.1550
 1190loPI   C3B18371  16.686   7.372   6.711  0.0434 -0.0646  0.2595
 1190loPI   C4B18372  16.450   7.259   7.084  0.2222  0.1011 -0.0006
 1191loPI    C118373   6.355  18.236   4.837 -0.2789  0.0935  0.0158
 1191loPI    C218374   6.405  17.841   4.879  0.0239  0.1315  0.0388
 1191loPI    C318375   6.639  18.047   4.628 -0.3075  0.2578 -0.1738
 1191loPI   PO418376   6.368  18.388   5.053 -0.1514 -0.0207 -0.0293
 1191loPI   GL118377   6.441  18.738   5.302  0.0962  0.0942 -0.4168
 1191loPI   GL218378   6.614  18.519   5.499  0.1588  0.0243 -0.0606
 1191loPI   C1A18379   6.241  18.610   5.785 -0.0699  0.1609 -0.1951
 1191loPI   C2A18380   6.223  18.476   6.077  0.3001  0.0671 -0.1503
 1191loPI   C3A18381   5.996  18.568   6.509  0.0927  0.0508 -0.0001
 1191loPI   C4A18382   5.733  18.838   6.552  0.0136 -0.2166 -0.2195
 1191loPI   C5A18383   5.209  18.733   6.626 -0.1786 -0.2406 -0.2100
 1191loPI   C6A18384   5.162  18.654   7.081  0.0369  0.0678 -0.2126
 1191loPI   C1B18385   6.687  18.438   5.912  0.3208 -0.1109 -0.0160
 1191loPI   C2B18386   6.696  18.433   6.383 -0.3665 -0.3229  0.2906
 1191loPI   C3B18387   6.403  18.330   6.657  0.1951 -0.1531 -0.3359
 1191loPI   C4B18388   6.125  18.466   7.004  0.0269 -0.4306  0.1097
 1192loPI    C118389  15.977   9.911   4.953 -0.2533 -0.2555 -0.3038
 1192loPI    C218390  16.164   9.643   4.721  0.2258  0.0173 -0.2464
 1192loPI    C318391  16.164  10.030   4.620  0.1328  0.0908  0.0265
 1192loPI   PO418392  16.062   9.795   5.234  0.1408 -0.2487 -0.4411
 1192loPI   GL118393  16.000   9.562   5.654 -0.0895  0.1850  0.1088
 1192loPI   GL218394  15.684   9.582   5.644  0.0318 -0.2252 -0.1533
 1192loPI   C1A18395  16.072   9.582   6.118 -0.0348 -0.2352 -0.1596
 1192loPI   C2A18396  16.008   9.675   6.619 -0.1297  0.0461  0.3743
 1192loPI   C3A18397  16.006   9.486   7.006  0.1639 -0.1230  0.1143
 1192loPI   C4A18398  15.809   9.398   7.365 -0.1126  0.1024 -0.1872
 1192loPI   C5A18399  15.425   9.409   7.598 -0.0811  0.0536 -0.0025
 1192loPI   C6A18400  15.046   9.210   7.707  0.0874 -0.5189  0.1266
 1192loPI   C1B18401  15.604   9.832   6.079  0.1699  0.0665  0.2316
 1192loPI   C2B18402  15.609   9.877   6.469 -0.0346  0.1960  0.1710
 1192loPI   C3B18403  15.635   9.873   6.888 -0.1774 -0.1450 -0.0397
 1192loPI   C4B18404  15.726  10.008   7.259  0.0358  0.2037 -0.0128
 1193loPI    C118405  16.509   9.999   4.997  0.2866 -0.2444 -0.0789
 1193loPI    C218406  16.660  10.363   4.927 -0.1001 -0.0023  0.2983
 1193loPI    C318407  16.651  10.090   4.634  0.0391  0.3451 -0.0380
 1193loPI   PO418408  16.599   9.899   5.198  0.0086  0.0552 -0.3585
 1193loPI   GL118409  16.615   9.651   5.636 -0.0125  0.0201  0.2414
 1193loPI   GL218410  16.553   9.348   5.653 -0.0860 -0.2183  0.0718
 1193loPI   C1A18411  16.420   9.910   5.927 -0.0413  0.3639 -0.0047
 1193loPI   C2A18412  16.487  10.236   6.178  0.0600 -0.0199 -0.2949
 1193loPI   C3A18413  16.718  10.271   6.552 -0.2355 -0.2308  0.1824
 1193loPI   C4A18414  16.606  10.345   6.903 -0.1482 -0.0992 -0.1186
 1193loPI   C5A18415  16.853  10.627   7.184  0.0515  0.1809 -0.1710
 1193loPI   C6A18416  16.886  10.444   7.685 -0.0217 -0.1508 -0.2102
 1193loPI   C1B18417  16.620   9.175   6.099 -0.3239 -0.0341 -0.1772
 1193loPI   C2B18418  16.799   9.349   6.537 -0.1940 -0.1328  0.0169
 1193loPI   C3B18419  16.877   9.353   6.963 -0.0736 -0.0607 -0.0622
 1193loPI   C4B18420  16.999   9.572   7.347 -0.0049 -0.0232 -0.1200
 1194loPI    C118421  17.652  15.845   4.735  0.1110 -0.1533  0.1712
 1194loPI    C218422  17.456  15.736   4.404  0.0113  0.2322  0.0988
 1194loPI    C318423  17.833  15.616   4.462 -0.0953 -0.1485  0.0287
 1194loPI   PO418424  17.632  16.030   4.793  0.1067 -0.4579  0.2022
 1194loPI   GL118425  17.666  16.034   5.326 -0.0258  0.2337 -0.0618
 1194loPI   GL218426  17.399  16.184   5.193 -0.1395  0.0418  0.0389
 1194loPI   C1A18427  17.720  16.277   5.659 -0.0983  0.3003 -0.0854
 1194loPI   C2A18428  17.837  16.335   6.144  0.1361  0.2624 -0.1149
 1194loPI   C3A18429  17.968  16.440   6.564 -0.1833 -0.0733  0.1571
 1194loPI   C4A18430  17.944  16.299   7.055 -0.1809 -0.3611  0.2770
 1194loPI   C5A18431  18.174  16.081   7.477 -0.0570  0.1141 -0.3258
 1194loPI   C6A18432  18.517  16.278   7.666 -0.0908 -0.1388 -0.0202
 1194loPI   C1B18433  17.260  16.431   5.553  0.1471 -0.1237 -0.2204
 1194loPI   C2B18434  17.324  16.443   6.066 -0.0245  0.0905  0.0992
 1194loPI   C3B18435  17.459  16.388   6.467  0.0194 -0.3577  0.3614
 1194loPI   C4B18436  17.522  16.573   6.899  0.0033 -0.1489  0.1432
 1195loPI    C118437  16.286   7.600   5.106  0.2083 -0.1813 -0.1707
 1195loPI    C218438  15.915   7.670   4.972  0.0661 -0.2572  0.1723
 1195loPI    C318439  16.231   7.796   4.761 -0.1600  0.1551  0.0701
 1195loPI   PO418440  16.230   7.679   5.363  0.2095 -0.1952 -0.1569
 1195loPI   GL118441  16.321   7.713   5.802 -0.0759  0.0354  0.1683
 1195loPI   GL218442  16.656   7.631   5.668  0.2713 -0.2464 -0.0578
 1195loPI   C1A18443  16.396   7.667   6.231  0.0159 -0.1542  0.2035
 1195loPI   C2A18444  16.373   7.785   6.675  0.5954 -0.4306  0.0654
 1195loPI   C3A18445  16.114   7.656   7.061 -0.3778 -0.2358 -0.2832
 1195loPI   C4A18446  15.862   7.417   7.365 -0.0066  0.1718  0.1877
 1195loPI   C5A18447  15.709   7.116   7.750  0.1271  0.0230 -0.0623
 1195loPI   C6A18448  15.604   6.660   8.001 -0.0946  0.2399  0.2142
 1195loPI   C1B18449  16.869   7.919   6.114 -0.0692  0.0699  0.1454
 1195loPI   C2B18450  16.828   7.893   6.515 -0.3681 -0.3221 -0.2412
 1195loPI   C3B18451  16.760   7.924   6.928 -0.2043 -0.0199  0.1613
 1195loPI   C4B18452  16.557   7.806   7.273  0.2759 -0.1347  0.1278
 1196loPI    C118453  14.234  15.665   4.581  0.0004 -0.1126 -0.1012
 1196loPI    C218454  13.877  15.688   4.402 -0.1008  0.0405  0.1154
 1196loPI    C318455  14.210  15.770   4.196 -0.1933 -0.0538 -0.0741
 1196loPI   PO418456  14.160  15.740   4.862  0.0358 -0.0990  0.0408
 1196loPI   GL118457  13.923  15.548   5.187 -0.2071  0.0386 -0.1608
 1196loPI   GL218458  13.889  15.167   5.196  0.0884 -0.3756 -0.0634
 1196loPI   C1A18459  13.994  15.744   5.633  0.0307  0.0128  0.1198
 1196loPI   C2A18460  14.137  15.898   6.037  0.0300 -0.3322 -0.2285
 1196loPI   C3A18461  14.393  16.081   6.343  0.1734  0.1262  0.1226
 1196loPI   C4A18462  14.369  16.012   6.793  0.0839  0.0166 -0.0233
 1196loPI   C5A18463  14.644  16.102   7.227 -0.0993 -0.2351 -0.1449
 1196loPI   C6A18464  15.103  15.997   7.377  0.1249  0.1087  0.0622
 1196loPI   C1B18465  13.759  15.067   5.664 -0.1329 -0.2775 -0.0964
 1196loPI   C2B18466  13.641  14.951   6.101 -0.1267 -0.1891  0.2495
 1196loPI   C3B18467  13.662  15.201   6.482  0.1006 -0.1955  0.1723
 1196loPI   C4B18468  13.772  15.286   6.909  0.1369  0.2796  0.1215
 1197loPI    C118469   4.283   2.145   4.942 -0.1637  0.0031 -0.0350
 1197loPI    C218470   4.477   1.858   4.742  0.0374  0.1872 -0.1082
 1197loPI    C318471   4.179   2.059   4.566  0.0784  0.2099 -0.1519
 1197loPI   PO418472   4.232   2.081   5.152  0.0681 -0.0382  0.1347
 1197loPI   GL118473   4.464   2.282   5.451  0.2408 -0.0363  0.0807
 1197loPI   GL218474   4.055   2.267   5.639 -0.0577  0.1960  0.1039
 1197loPI   C1A18475   4.506   2.395   5.823  0.0540  0.0881 -0.0571
 1197loPI   C2A18476   4.536   2.401   6.309  0.1566 -0.0442  0.5003
 1197loPI   C3A18477   4.454   2.309   6.671 -0.0257  0.0787 -0.0478
 1197loPI   C4A18478   4.472   2.507   7.166  0.0837 -0.0830 -0.1522
 1197loPI   C5A18479   4.637   2.724   7.456  0.0182 -0.4339  0.2034
 1197loPI   C6A18480   4.530   2.780   7.884 -0.2737 -0.0749 -0.1262
 1197loPI   C1B18481   4.135   2.129   6.019  0.0531 -0.1030 -0.0645
 1197loPI   C2B18482   4.219   1.979   6.333 -0.0304  0.3101 -0.3016
 1197loPI   C3B18483   4.128   1.938   6.659 -0.0344 -0.2515  0.2763
 1197loPI   C4B18484   4.178   2.045   7.056  0.0107  0.1154 -0.1919
 1198loPI    C118485   3.844   3.642   4.900 -0.0416  0.0621 -0.0107
 1198loPI    C218486   3.452   3.701   4.949 -0.0476 -0.0302  0.0570
 1198loPI    C318487   3.604   3.660   4.581 -0.1253 -0.1547  0.0383
 1198loPI   PO418488   3.916   3.469   5.063 -0.0803  0.0359 -0.4103
 1198loPI   GL118489   3.724   3.469   5.450  0.0866  0.0021 -0.0807
 1198loPI   GL218490   4.015   3.580   5.510  0.2285  0.3244 -0.1659
 1198loPI   C1A18491   3.522   3.434   5.811  0.1538  0.1018 -0.1508
 1198loPI   C2A18492   3.228   3.117   5.974 -0.0928 -0.2956 -0.0913
 1198loPI   C3A18493   3.095   3.053   6.340  0.0235 -0.1995  0.0327
 1198loPI   C4A18494   3.152   2.986   6.769 -0.3512 -0.2279 -0.0905
 1198loPI   C5A18495   3.408   3.025   7.151 -0.0138  0.0904 -0.2342
 1198loPI   C6A18496   3.651   2.829   7.293  0.0815 -0.2782 -0.1215
 1198loPI   C1B18497   3.940   3.755   5.926 -0.2243  0.1458 -0.1373
 1198loPI   C2B18498   4.027   3.731   6.343  0.1777  0.1718  0.2071
 1198loPI   C3B18499   4.030   3.828   6.759 -0.2773  0.1461  0.0330
 1198loPI   C4B18500   3.988   3.672   7.167  0.1731 -0.2517 -0.0937
 1199loPI    C118501   0.022  16.628   4.595  0.2255  0.0501  0.0575
 1199loPI    C218502   0.302  16.342   4.606  0.0123 -0.1608  0.0687
 1199loPI    C318503  -0.040  16.280   4.408  0.0057  0.1262 -0.0140
 1199loPI   PO418504  -0.007  16.783   4.800  0.1704  0.1518  0.4098
 1199loPI   GL118505  -0.292  16.756   5.148 -0.3011 -0.0409 -0.0075
 1199loPI   GL218506  -0.085  16.657   5.269  0.0935  0.0234 -0.1009
 1199loPI   C1A18507  -0.177  17.165   5.364 -0.2592  0.1111 -0.2192
 1199loPI   C2A18508  -0.325  17.470   5.670  0.0846  0.2406 -0.2607
 1199loPI   C3A18509  -0.400  17.502   6.111  0.0387  0.0422 -0.0425
 1199loPI   C4A18510  -0.420  17.583   6.579 -0.1877  0.3062  0.2644
 1199loPI   C5A18511  -0.484  17.404   7.041  0.0020  0.1755 -0.1576
 1199loPI   C6A18512  -0.529  17.397   7.461 -0.1093 -0.0381 -0.1677
 1199loPI   C1B18513  -0.015  16.783   5.667 -0.0450 -0.1626 -0.2036
 1199loPI   C2B18514   0.070  16.801   6.135 -0.2037  0.1101 -0.2965
 1199loPI   C3B18515   0.135  16.936   6.622  0.0943 -0.2987  0.0760
 1199loPI   C4B18516  -0.023  16.565   6.783  0.1591 -0.0030  0.0468
 1200loPI    C118517  12.539   6.334   5.379  0.0382 -0.0943  0.0454
 1200loPI    C218518  12.607   6.103   5.059  0.1164 -0.1189  0.0796
 1200loPI    C318519  12.385   5.965   5.362 -0.0305 -0.0637 -0.0022
 1200loPI   PO418520  12.547   6.611   5.247 -0.2397 -0.0823 -0.0990
 1200loPI   GL118521  12.604   6.968   5.648  0.2109 -0.0256 -0.5085
 1200loPI   GL218522  12.675   6.688   5.719  0.3461 -0.2090  0.1967
 1200loPI   C1A18523  12.461   7.309   5.980  0.0170 -0.1451  0.1006
 1200loPI   C2A18524  12.221   7.529   6.344  0.0897  0.4754  0.1688
 1200loPI   C3A18525  12.001   7.738   6.583  0.3415 -0.2320 -0.3065
 1200loPI   C4A18526  11.966   7.662   6.921 -0.0962 -0.0979  0.1951
 1200loPI   C5A18527  11.750   7.878   7.329  0.0680  0.2131  0.4800
 1200loPI   C6A18528  11.705   7.862   7.775 -0.1576 -0.0376 -0.1324
 1200loPI   C1B18529  12.787   6.845   6.199 -0.0746 -0.0118 -0.2184
 1200loPI   C2B18530  12.861   6.959   6.593  0.4659 -0.0140  0.2647
 1200loPI   C3B18531  12.723   6.955   7.137  0.0422 -0.3605 -0.2470
 1200loPI   C4B18532  12.619   6.609   7.466 -0.1284 -0.2482 -0.0486
 1201loPI    C118533   8.458   4.265   4.928 -0.0330  0.2100  0.1018
 1201loPI    C218534   8.770   4.514   4.949  0.0878  0.0789 -0.1034
 1201loPI    C318535   8.588   4.450   4.599 -0.1628  0.1432  0.0121
 1201loPI   PO418536   8.371   4.287   5.116 -0.1495  0.1588 -0.0022
 1201loPI   GL118537   8.579   4.539   5.440 -0.1208  0.2680  0.2007
 1201loPI   GL218538   8.397   4.831   5.308 -0.0419 -0.0596  0.3244
 1201loPI   C1A18539   8.437   4.308   5.776 -0.0304  0.2625 -0.2626
 1201loPI   C2A18540   8.291   4.184   6.130  0.2160 -0.1316 -0.2942
 1201loPI   C3A18541   8.364   4.101   6.562 -0.0686 -0.0394 -0.1317
 1201loPI   C4A18542   8.601   4.078   6.951 -0.1915  0.0754 -0.0475
 1201loPI   C5A18543   8.494   3.941   7.340  0.2569  0.1634  0.1452
 1201loPI   C6A18544   8.330   4.295   7.666  0.2732 -0.1747 -0.1689
 1201loPI   C1B18545   8.283   4.809   5.724 -0.4835  0.2415 -0.1066
 1201loPI   C2B18546   8.311   4.733   6.060  0.2062  0.0400 -0.2268
 1201loPI   C3B18547   8.207   4.592   6.413 -0.1077  0.2333 -0.2372
 1201loPI   C4B18548   8.350   4.558   6.832 -0.0852  0.2874  0.1528
 1202loPI    C118549   8.004   1.730   4.783 -0.0058 -0.0038 -0.0047
 1202loPI    C218550   8.322   1.492   4.738  0.2401  0.2864  0.1661
 1202loPI    C318551   8.231   1.759   4.454 -0.0264  0.0053 -0.0181
 1202loPI   PO418552   8.008   1.767   5.052 -0.0492  0.1309 -0.3326
 1202loPI   GL118553   7.799   2.003   5.307  0.2615 -0.0865 -0.0122
 1202loPI   GL218554   7.911   2.279   5.494 -0.0534  0.0632  0.0416
 1202loPI   C1A18555   7.987   1.753   5.686 -0.3773  0.1028 -0.2751
 1202loPI   C2A18556   8.103   1.916   6.030  0.1155 -0.3968  0.1267
 1202loPI   C3A18557   8.155   1.840   6.430  0.0369 -0.3008 -0.1966
 1202loPI   C4A18558   8.116   1.760   6.921  0.1072  0.3546  0.1821
 1202loPI   C5A18559   8.375   1.847   7.231 -0.0559  0.1188  0.2196
 1202loPI   C6A18560   8.601   1.763   7.601  0.0138  0.0096  0.3970
 1202loPI   C1B18561   8.154   2.377   5.815  0.0102 -0.1006 -0.1200
 1202loPI   C2B18562   8.145   2.358   6.310  0.0514  0.0671  0.1039
 1202loPI   C3B18563   8.104   2.343   6.703 -0.4116  0.0975 -0.0467
 1202loPI   C4B18564   8.089   2.260   7.141 -0.1048  0.0700 -0.0771
 1203loPI    C118565   1.544  16.068   4.901 -0.0502  0.0435 -0.1711
 1203loPI    C218566   1.415  16.437   4.986 -0.1610  0.0240 -0.2527
 1203loPI    C318567   1.628  16.371   4.654  0.1010  0.0644 -0.0959
 1203loPI   PO418568   1.697  15.886   5.081  0.1039 -0.0269 -0.1638
 1203loPI   GL118569   1.533  15.663   5.444  0.0153 -0.2357 -0.0076
 1203loPI   GL218570   1.760  15.504   5.484  0.0420 -0.2206  0.2485
 1203loPI   C1A18571   1.389  15.861   5.786 -0.0944 -0.2050  0.1194
 1203loPI   C2A18572   1.407  16.190   6.178 -0.0337 -0.1310 -0.0654
 1203loPI   C3A18573   1.484  16.515   6.477  0.3376  0.1874 -0.2487
 1203loPI   C4A18574   1.588  16.630   6.881 -0.4835  0.2007 -0.0648
 1203loPI   C5A18575   1.746  16.804   7.240 -0.1669 -0.0491  0.0479
 1203loPI   C6A18576   1.569  16.735   7.608  0.2900 -0.0785 -0.3681
 1203loPI   C1B18577   1.979  15.528   5.800 -0.0498  0.1853 -0.0639
 1203loPI   C2B18578   1.859  15.623   6.248 -0.1304 -0.3086  0.1742
 1203loPI   C3B18579   1.625  15.846   6.547  0.1220  0.0917 -0.1936
 1203loPI   C4B18580   1.414  16.108   6.837 -0.1822 -0.2614  0.0356
 1204loPI    C118581  13.293  15.181   4.569  0.1184 -0.1059 -0.0761
 1204loPI    C218582  13.614  15.130   4.336  0.1241  0.1292 -0.1223
 1204loPI    C318583  13.385  14.816   4.432  0.4100 -0.0537 -0.0255
 1204loPI   PO418584  13.292  15.346   4.742 -0.1614  0.1251 -0.0796
 1204loPI   GL118585  13.403  15.362   5.151  0.1710 -0.3317  0.2634
 1204loPI   GL218586  13.362  15.130   5.351  0.1361  0.1737  0.0411
 1204loPI   C1A18587  13.495  15.508   5.597  0.2718  0.1724  0.0359
 1204loPI   C2A18588  13.709  15.478   5.976  0.1104  0.0796  0.1251
 1204loPI   C3A18589  14.073  15.278   6.211 -0.0523 -0.0130 -0.0583
 1204loPI   C4A18590  14.197  15.078   6.496 -0.0575  0.0584  0.0186
 1204loPI   C5A18591  14.395  15.162   6.925 -0.0609 -0.2179  0.1003
 1204loPI   C6A18592  14.521  15.092   7.389  0.1156 -0.2800 -0.0663
 1204loPI   C1B18593  13.274  15.095   5.742  0.0870 -0.3323 -0.1646
 1204loPI   C2B18594  13.226  15.377   6.087 -0.0262  0.1803 -0.0242
 1204loPI   C3B18595  13.208  15.405   6.543  0.1125 -0.2161 -0.0086
 1204loPI   C4B18596  13.268  15.336   7.013  0.0851  0.2164 -0.0690
 1205loPI    C118597   9.823  15.899   4.699 -0.1490  0.0435 -0.1049
 1205loPI    C218598   9.766  15.936   4.305  0.0540 -0.0309 -0.1427
 1205loPI    C318599   9.992  15.638   4.447 -0.1919 -0.1316  0.0455
 1205loPI   PO418600   9.658  15.881   4.852 -0.1133  0.1614 -0.2529
 1205loPI   GL118601   9.628  15.861   5.318  0.0109 -0.0720  0.1312
 1205loPI   GL218602   9.337  15.927   5.442  0.2462 -0.1350  0.1651
 1205loPI   C1A18603   9.909  16.078   5.627  0.1060  0.3686  0.1607
 1205loPI   C2A18604   9.868  16.107   6.112 -0.0430 -0.1651  0.2809
 1205loPI   C3A18605   9.772  15.941   6.551  0.1244 -0.1238 -0.1020
 1205loPI   C4A18606   9.736  15.675   6.917 -0.2973  0.0253  0.0159
 1205loPI   C5A18607   9.572  15.568   7.244  0.0020 -0.0552  0.2495
 1205loPI   C6A18608   9.441  15.330   7.624  0.0219  0.0913 -0.1281
 1205loPI   C1B18609   9.417  15.996   5.826 -0.2001  0.2269 -0.0155
 1205loPI   C2B18610   9.337  16.071   6.327 -0.2757 -0.4963 -0.3683
 1205loPI   C3B18611   9.305  15.977   6.794  0.0044 -0.3958 -0.1948
 1205loPI   C4B18612   9.144  15.611   6.999 -0.0027  0.0437  0.0457
 1206loPI    C118613   4.098  18.535   4.541  0.0627 -0.3375  0.0045
 1206loPI    C218614   3.811  18.377   4.310  0.0770 -0.4235  0.0451
 1206loPI    C318615   4.005  18.707   4.192 -0.2872 -0.1540  0.1830
 1206loPI   PO418616   3.891  18.317   4.842  0.0046  0.1034 -0.1035
 1206loPI   GL118617   3.799  18.202   5.223  0.0357  0.0071  0.1487
 1206loPI   GL218618   3.577  18.045   5.459  0.3876  0.0568  0.2329
 1206loPI   C1A18619   4.082  17.958   5.543 -0.1180 -0.0597 -0.0999
 1206loPI   C2A18620   4.221  17.788   5.934  0.1446 -0.0923 -0.1806
 1206loPI   C3A18621   4.272  17.889   6.359  0.0421  0.0727  0.0901
 1206loPI   C4A18622   4.180  17.792   6.677 -0.0702  0.4839  0.1643
 1206loPI   C5A18623   4.009  17.784   7.059  0.0465 -0.1394 -0.1018
 1206loPI   C6A18624   3.666  17.622   7.241 -0.1590 -0.0227 -0.3094
 1206loPI   C1B18625   3.237  17.969   5.667  0.0806 -0.5030 -0.1024
 1206loPI   C2B18626   3.044  18.246   5.954  0.0534  0.1129  0.2032
 1206loPI   C3B18627   2.953  18.214   6.342  0.2540 -0.1454 -0.1253
 1206loPI   C4B18628   2.927  18.059   6.823  0.0729 -0.1831  0.0248
 1207loPI    C118629   7.952  12.345   4.962  0.0879  0.0479  0.2071
 1207loPI    C218630   7.873  12.345   4.570 -0.1096  0.0271  0.2459
 1207loPI    C318631   7.586  12.440   4.832  0.0413  0.1127  0.3822
 1207loPI   PO418632   8.263  12.391   5.026 -0.2199 -0.1459 -0.2649
 1207loPI   GL118633   8.344  12.744   5.255  0.2666  0.1342 -0.3863
 1207loPI   GL218634   8.340  13.084   5.216 -0.4184 -0.0623 -0.0630
 1207loPI   C1A18635   8.612  12.736   5.616  0.0960  0.0294  0.1086
 1207loPI   C2A18636   8.672  12.623   5.997 -0.0993  0.0271 -0.0186
 1207loPI   C3A18637   8.690  12.647   6.402  0.1413 -0.0479  0.2631
 1207loPI   C4A18638   9.054  12.691   6.610 -0.2092 -0.0143 -0.0497
 1207loPI   C5A18639   9.126  12.842   7.055 -0.0198 -0.0384 -0.0488
 1207loPI   C6A18640   9.178  12.869   7.407 -0.0001 -0.1838 -0.2239
 1207loPI   C1B18641   8.188  13.019   5.653 -0.1193 -0.0272 -0.0743
 1207loPI   C2B18642   8.219  12.920   6.106 -0.0816  0.2673 -0.0148
 1207loPI   C3B18643   8.257  12.868   6.505  0.2559 -0.0110 -0.3110
 1207loPI   C4B18644   8.209  12.774   6.970  0.0882  0.0041 -0.0232
 1208loPI    C118645  12.139  14.786   4.609 -0.0129  0.0636 -0.0477
 1208loPI    C218646  12.345  14.569   4.344 -0.0414 -0.1123  0.0726
 1208loPI    C318647  12.430  14.957   4.394  0.2326 -0.1721  0.0905
 1208loPI   PO418648  12.039  14.589   4.807 -0.0686  0.0521  0.0085
 1208loPI   GL118649  11.920  14.818   5.235  0.1935 -0.0248 -0.1389
 1208loPI   GL218650  12.029  14.445   5.294 -0.0585  0.0566  0.0916
 1208loPI   C1A18651  11.978  14.796   5.710 -0.1841 -0.0516  0.2405
 1208loPI   C2A18652  12.055  15.019   6.100  0.0176  0.1072  0.2242
 1208loPI   C3A18653  11.996  15.318   6.460  0.1138  0.0192 -0.0043
 1208loPI   C4A18654  11.712  15.420   6.827  0.0785 -0.0029 -0.0445
 1208loPI   C5A18655  11.398  15.584   7.007  0.1846  0.1865 -0.0781
 1208loPI   C6A18656  11.131  15.903   7.181  0.2363 -0.0537 -0.0198
 1208loPI   C1B18657  12.046  14.300   5.656 -0.0658  0.2314 -0.0700
 1208loPI   C2B18658  12.062  14.353   6.173 -0.0985 -0.2330 -0.1408
 1208loPI   C3B18659  12.116  14.643   6.500  0.0126  0.0644 -0.1043
 1208loPI   C4B18660  12.147  14.559   6.884  0.1648  0.0922  0.0099
 1209loPI    C118661   6.777   4.702   4.892  0.2937 -0.3747 -0.0688
 1209loPI    C218662   6.835   4.844   4.522 -0.0473  0.0623  0.0366
 1209loPI    C318663   7.106   4.914   4.809 -0.0070  0.1265 -0.0170
 1209loPI   PO418664   6.470   4.802   4.994  0.0602  0.1980 -0.0885
 1209loPI   GL118665   6.321   5.016   5.344  0.4312 -0.2645 -0.1973
 1209loPI   GL218666   6.058   5.151   5.289  0.0596  0.0810  0.0346
 1209loPI   C1A18667   6.346   4.778   5.665 -0.0942  0.1746 -0.1252
 1209loPI   C2A18668   6.268   4.674   6.076  0.2889 -0.2185  0.0529
 1209loPI   C3A18669   6.467   4.616   6.464 -0.1859 -0.2071 -0.2092
 1209loPI   C4A18670   6.458   4.675   6.892 -0.4788  0.0207  0.1166
 1209loPI   C5A18671   6.323   4.525   7.375  0.1997  0.0018 -0.0927
 1209loPI   C6A18672   6.180   4.257   7.616  0.0325 -0.1349 -0.1478
 1209loPI   C1B18673   5.998   5.089   5.750 -0.3092 -0.1901 -0.1605
 1209loPI   C2B18674   5.957   5.259   6.098 -0.2249 -0.1274  0.2413
 1209loPI   C3B18675   5.723   5.332   6.407 -0.0168  0.0171 -0.0844
 1209loPI   C4B18676   5.713   5.528   6.848 -0.3074 -0.1051  0.1513
 1210loPI    C118677   3.777   4.227   4.538 -0.1874  0.0347  0.2996
 1210loPI    C218678   3.761   4.035   4.187 -0.0984  0.1218  0.2472
 1210loPI    C318679   3.892   4.412   4.202 -0.0014  0.0831  0.3887
 1210loPI   PO418680   3.956   4.131   4.756 -0.0103 -0.0454  0.1168
 1210loPI   GL118681   3.917   4.075   5.159 -0.0401  0.2881 -0.0771
 1210loPI   GL218682   3.612   3.951   5.295 -0.1656  0.1161 -0.1822
 1210loPI   C1A18683   3.969   4.241   5.527  0.0713 -0.0830  0.3070
 1210loPI   C2A18684   4.086   4.481   5.744  0.1356  0.2082 -0.1265
 1210loPI   C3A18685   4.059   4.590   6.243 -0.1426  0.0075  0.1038
 1210loPI   C4A18686   3.936   4.526   6.641  0.0368  0.0740  0.1393
 1210loPI   C5A18687   3.753   4.214   6.882 -0.0920 -0.1190 -0.0301
 1210loPI   C6A18688   3.661   4.008   7.343 -0.1335 -0.3194  0.2943
 1210loPI   C1B18689   3.472   3.874   5.642 -0.1027  0.1929 -0.5006
 1210loPI   C2B18690   3.422   3.824   6.078  0.3324 -0.2891  0.1289
 1210loPI   C3B18691   3.591   3.461   6.280  0.4023 -0.2415 -0.2996
 1210loPI   C4B18692   3.548   3.301   6.696 -0.3310 -0.0776  0.0885
 1211loPI    C118693   1.919  14.984   5.170 -0.0135  0.2634 -0.1578
 1211loPI    C218694   2.115  14.927   4.826 -0.4012 -0.0561 -0.3331
 1211loPI    C318695   1.722  15.002   4.823 -0.3951  0.0092  0.0387
 1211loPI   PO418696   2.129  15.129   5.320  0.3010  0.2016 -0.1973
 1211loPI   GL118697   2.262  15.136   5.715 -0.2896  0.0580  0.0442
 1211loPI   GL218698   2.602  15.055   5.754  0.1136  0.1607  0.1011
 1211loPI   C1A18699   2.132  14.896   6.022  0.3361 -0.1490 -0.1323
 1211loPI   C2A18700   2.240  14.792   6.422 -0.1339 -0.0088 -0.0556
 1211loPI   C3A18701   2.292  14.810   6.793  0.3783  0.0650 -0.1901
 1211loPI   C4A18702   2.179  14.610   7.185 -0.0455  0.0335  0.1368
 1211loPI   C5A18703   2.039  14.204   7.368 -0.1400 -0.2187 -0.1383
 1211loPI   C6A18704   1.773  13.935   7.536 -0.0083  0.3401  0.0257
 1211loPI   C1B18705   2.682  15.009   6.164 -0.0202  0.0693 -0.2045
 1211loPI   C2B18706   2.698  15.002   6.589  0.1381  0.2290 -0.6810
 1211loPI   C3B18707   2.641  15.057   7.068 -0.0957 -0.0171 -0.2358
 1211loPI   C4B18708   2.503  14.926   7.441 -0.0921 -0.1049  0.0168
 1212loPI    C118709   9.012   0.315   4.975 -0.1053 -0.0794 -0.1239
 1212loPI    C218710   9.045   0.178   4.601  0.0469 -0.1557 -0.0833
 1212loPI    C318711   9.126   0.561   4.681 -0.0450 -0.1245 -0.1384
 1212loPI   PO418712   8.831   0.192   5.104  0.1346 -0.1823  0.1302
 1212loPI   GL118713   8.624   0.308   5.362  0.0744 -0.2799 -0.1924
 1212loPI   GL218714   8.887   0.238   5.643 -0.1571 -0.1383  0.2189
 1212loPI   C1A18715   8.460  -0.004   5.664  0.1690  0.0815 -0.0710
 1212loPI   C2A18716   8.376  -0.473   5.617 -0.4125  0.0032 -0.1082
 1212loPI   C3A18717   7.957  -0.730   5.613 -0.0529  0.0085 -0.6256
 1212loPI   C4A18718   7.592  -0.433   5.821  0.1243 -0.4277  0.5097
 1212loPI   C5A18719   7.476  -0.356   6.263 -0.0573  0.1959  0.0116
 1212loPI   C6A18720   7.348  -0.502   6.693 -0.1032 -0.1415 -0.2315
 1212loPI   C1B18721   8.540   0.527   5.915 -0.0724 -0.1456 -0.1876
 1212loPI   C2B18722   8.503   0.538   6.343 -0.0325 -0.0122  0.3410
 1212loPI   C3B18723   8.555   0.225   6.662  0.2897 -0.2577  0.0072
 1212loPI   C4B18724   8.788   0.081   7.109  0.1667  0.0136  0.3245
 1213loPI    C118725   0.326  13.186   4.855  0.0050  0.1110 -0.1409
 1213loPI    C218726  -0.011  13.131   4.646  0.0503 -0.0934 -0.1620
 1213loPI    C318727   0.309  12.903   4.573  0.2330  0.1779 -0.2234
 1213loPI   PO418728   0.265  13.229   5.072 -0.0008 -0.1881 -0.0537
 1213loPI   GL118729   0.377  13.273   5.517 -0.1480  0.3606 -0.2217
 1213loPI   GL218730   0.563  12.920   5.499  0.3927 -0.0943  0.1989
 1213loPI   C1A18731   0.422  13.328   5.901 -0.3355  0.2461  0.5731
 1213loPI   C2A18732   0.520  13.173   6.310 -0.2256  0.3004  0.0644
 1213loPI   C3A18733   0.558  13.269   6.638 -0.1669  0.1014 -0.0570
 1213loPI   C4A18734   0.621  13.192   6.986  0.0572 -0.2116 -0.2537
 1213loPI   C5A18735   0.501  12.899   7.338 -0.1617 -0.1566  0.1619
 1213loPI   C6A18736   0.706  12.704   7.757 -0.0293 -0.2486 -0.2705
 1213loPI   C1B18737   0.736  12.790   5.885 -0.1044  0.2199  0.1827
 1213loPI   C2B18738   0.945  12.762   6.273 -0.2144 -0.0092  0.1507
 1213loPI   C3B18739   1.202  12.655   6.454  0.4038 -0.2189 -0.3683
 1213loPI   C4B18740   1.563  12.453   6.622 -0.0117 -0.1934 -0.1832
 1214POPI    C118741   3.294   6.318   4.820  0.2006 -0.0845  0.0761
 1214POPI    C218742   3.612   6.161   5.005  0.2565  0.2320  0.2552
 1214POPI    C318743   3.663   6.414   4.699  0.1741  0.1779  0.1965
 1214POPI   PO418744   3.140   6.419   5.022 -0.0252  0.2448  0.3481
 1214POPI   GL118745   2.934   6.393   5.390  0.1151 -0.0382 -0.0819
 1214POPI   GL218746   2.660   6.530   5.491  0.2697  0.3852 -0.1660
 1214POPI   C1A18747   2.886   6.062   5.660  0.0443 -0.1758 -0.0013
 1214POPI   D2A18748   3.140   6.051   6.083 -0.2274  0.0344 -0.1763
 1214POPI   C3A18749   3.368   6.263   6.423  0.1554  0.2284 -0.0060
 1214POPI   C4A18750   3.449   6.451   6.696  0.0901  0.1890 -0.2863
 1214POPI   C1B18751   2.872   6.498   5.904 -0.2056 -0.3163  0.0766
 1214POPI   C2B18752   2.982   6.473   6.300 -0.0186 -0.3305  0.3071
 1214POPI   C3B18753   3.011   6.753   6.593 -0.1213 -0.1285  0.0254
 1214POPI   C4B18754   3.035   6.775   7.014  0.3482 -0.2290 -0.5242
 1215POPI    C118755  12.307   9.501   4.823 -0.1259 -0.1846 -0.1436
 1215POPI    C218756  12.537   9.184   4.743  0.0723 -0.0915  0.0435
 1215POPI    C318757  12.544   9.502   4.501  0.0904 -0.1153  0.0126
 1215POPI   PO418758  12.374   9.483   5.128 -0.1093  0.1600  0.3056
 1215POPI   GL118759  12.490   9.549   5.442  0.2331 -0.1258  0.1256
 1215POPI   GL218760  12.828   9.594   5.449  0.1868  0.0923  0.5073
 1215POPI   C1A18761  12.350   9.538   5.800 -0.1464 -0.4584  0.3488
 1215POPI   D2A18762  12.316   9.467   6.140 -0.0707  0.1026  0.2086
 1215POPI   C3A18763  12.085   9.293   6.416  0.0331  0.3457 -0.0869
 1215POPI   C4A18764  11.875   9.103   6.704 -0.1784  0.1785  0.3538
 1215POPI   C1B18765  13.116   9.673   5.819 -0.1817  0.3790  0.1883
 1215POPI   C2B18766  13.186   9.768   6.284 -0.0301  0.1804 -0.2297
 1215POPI   C3B18767  13.211   9.737   6.684 -0.1684 -0.3475  0.1023
 1215POPI   C4B18768  13.307   9.534   7.096  0.3688  0.0257  0.1899
 1216POPI    C118769   2.254   5.664   4.990  0.0803  0.1197  0.1350
 1216POPI    C218770   2.265   6.046   4.872  0.2701  0.0730 -0.0038
 1216POPI    C318771   2.547   5.790   4.748 -0.0649 -0.2009 -0.2185
 1216POPI   PO418772   2.208   5.674   5.214  0.0160 -0.0498 -0.0570
 1216POPI   GL118773   2.178   5.860   5.644  0.1442 -0.0071 -0.1870
 1216POPI   GL218774   1.917   6.103   5.727 -0.1452 -0.0913  0.1551
 1216POPI   C1A18775   2.232   5.784   6.170  0.1066  0.1055 -0.4895
 1216POPI   D2A18776   2.156   5.583   6.608 -0.0371 -0.0580  0.1648
 1216POPI   C3A18777   2.370   5.781   6.905 -0.1334  0.3018  0.1114
 1216POPI   C4A18778   2.862   5.806   6.938 -0.0864  0.3613 -0.2424
 1216POPI   C1B18779   1.855   6.145   6.231  0.1982  0.0747 -0.0733
 1216POPI   C2B18780   1.836   5.931   6.640  0.0779  0.2754  0.1080
 1216POPI   C3B18781   1.927   5.701   7.057  0.1007  0.2603 -0.4213
 1216POPI   C4B18782   2.077   5.579   7.383  0.1783 -0.3522 -0.2834
 1217POPI    C118783  14.435  14.803   4.597 -0.1117 -0.0766  0.0503
 1217POPI    C218784  14.653  14.516   4.423 -0.0388 -0.0341  0.0713
 1217POPI    C318785  14.518  14.824   4.206 -0.1836 -0.1238  0.0322
 1217POPI   PO418786  14.387  14.740   4.873  0.2028 -0.0299 -0.0843
 1217POPI   GL118787  14.398  14.914   5.272  0.1936 -0.0292  0.1405
 1217POPI   GL218788  14.709  14.945   5.308  0.3803 -0.1721 -0.0039
 1217POPI   C1A18789  14.290  15.094   5.589 -0.1717  0.4028 -0.0809
 1217POPI   D2A18790  14.336  15.429   5.789 -0.1943 -0.0916 -0.0899
 1217POPI   C3A18791  14.531  15.480   6.110 -0.0320 -0.2256  0.1018
 1217POPI   C4A18792  14.616  15.303   6.478 -0.2075  0.1460 -0.0140
 1217POPI   C1B18793  14.625  14.645   5.674  0.1548 -0.0568  0.1539
 1217POPI   C2B18794  14.922  14.629   6.051 -0.2273 -0.1935 -0.1145
 1217POPI   C3B18795  14.925  14.877   6.334  0.2322  0.1223 -0.0529
 1217POPI   C4B18796  14.871  14.928   6.811  0.1183 -0.1860 -0.1328
 1218POPI    C118797  16.849  16.634   4.687 -0.0826 -0.0783  0.2107
 1218POPI    C218798  17.051  16.739   4.359  0.0996 -0.4913  0.1842
 1218POPI    C318799  16.837  17.012   4.558  0.0347 -0.2230 -0.2409
 1218POPI   PO418800  16.980  16.454   4.845 -0.1157 -0.0146  0.4272
 1218POPI   GL118801  16.839  16.163   5.169 -0.2286  0.1467  0.1570
 1218POPI   GL218802  16.991  15.963   5.330  0.0938  0.3228  0.1602
 1218POPI   C1A18803  16.756  16.324   5.536 -0.1049 -0.0844 -0.1239
 1218POPI   D2A18804  16.842  16.460   5.841  0.1119 -0.1308 -0.0030
 1218POPI   C3A18805  16.980  16.134   6.024  0.1631  0.2901  0.0610
 1218POPI   C4A18806  16.958  15.989   6.455 -0.2046 -0.0108  0.1972
 1218POPI   C1B18807  17.322  15.904   5.680  0.1805 -0.3044  0.2030
 1218POPI   C2B18808  17.405  15.967   6.168  0.0131 -0.0148  0.4975
 1218POPI   C3B18809  17.444  15.901   6.670  0.1215  0.1711  0.2203
 1218POPI   C4B18810  17.427  16.166   7.125  0.3896 -0.2111  0.3315
 1219POPI    C118811   1.995  14.433   4.844 -0.1686 -0.0054 -0.0173
 1219POPI    C218812   1.799  14.513   5.183 -0.0135 -0.0865  0.0933
 1219POPI    C318813   1.598  14.474   4.839 -0.1590  0.1188  0.1530
 1219POPI   PO418814   2.211  14.430   4.954 -0.2928  0.1748  0.0323
 1219POPI   GL118815   2.245  14.339   5.428  0.3278  0.1062 -0.0391
 1219POPI   GL218816   2.172  14.671   5.495 -0.1687  0.3441 -0.0134
 1219POPI   C1A18817   2.332  14.089   5.833  0.1344 -0.1475  0.2603
 1219POPI   D2A18818   2.638  14.105   6.018 -0.0415  0.2428  0.0780
 1219POPI   C3A18819   2.620  14.027   6.455 -0.0029  0.1466  0.3414
 1219POPI   C4A18820   2.725  13.910   6.855  0.3194 -0.2137 -0.2800
 1219POPI   C1B18821   1.918  14.463   5.838 -0.1210  0.0204 -0.2465
 1219POPI   C2B18822   2.155  14.391   6.167  0.2154 -0.0896 -0.0283
 1219POPI   C3B18823   2.178  14.290   6.575  0.1085 -0.2667 -0.4307
 1219POPI   C4B18824   2.347  14.165   6.927  0.0801 -0.1016 -0.0414
 1220POPI    C118825  11.310  13.058   4.664  0.0746  0.2395 -0.2106
 1220POPI    C218826  11.572  12.794   4.516  0.0664  0.1609 -0.0866
 1220POPI    C318827  11.282  12.941   4.282  0.0400  0.0215 -0.1428
 1220POPI   PO418828  11.230  13.012   4.884  0.1951  0.0022 -0.1992
 1220POPI   GL118829  11.181  13.115   5.281  0.3129 -0.3797 -0.1768
 1220POPI   GL218830  11.432  12.834   5.342 -0.1707 -0.0480 -0.3624
 1220POPI   C1A18831  11.084  13.288   5.708 -0.1942 -0.2506 -0.2332
 1220POPI   D2A18832  10.998  13.436   6.096 -0.2358 -0.4281 -0.2379
 1220POPI   C3A18833  10.596  13.356   6.300 -0.3834  0.0672  0.0707
 1220POPI   C4A18834  10.265  13.286   6.087 -0.3139 -0.0949 -0.4944
 1220POPI   C1B18835  11.360  12.921   5.862 -0.1587 -0.1860  0.0752
 1220POPI   C2B18836  11.383  13.105   6.307  0.1406  0.2551  0.2893
 1220POPI   C3B18837  11.468  13.127   6.757  0.0357 -0.2437  0.2113
 1220POPI   C4B18838  11.390  13.257   7.229 -0.0938 -0.1879  0.2157
 1221POPI    C118839   6.591  17.397   4.797 -0.0826 -0.1465 -0.1165
 1221POPI    C218840   6.268  17.448   4.568 -0.0282 -0.3748 -0.2471
 1221POPI    C318841   6.629  17.557   4.432 -0.0694  0.0596 -0.0263
 1221POPI   PO418842   6.647  17.500   5.120  0.2118 -0.1639  0.0433
 1221POPI   GL118843   6.530  17.650   5.494 -0.0701  0.1358  0.2075
 1221POPI   GL218844   6.594  18.000   5.334  0.0731  0.3304  0.3171
 1221POPI   C1A18845   6.471  17.584   5.972 -0.2781  0.1127 -0.3901
 1221POPI   D2A18846   6.375  17.599   6.394 -0.2668  0.0069  0.3748
 1221POPI   C3A18847   6.574  17.586   6.858  0.2082 -0.0344  0.2085
 1221POPI   C4A18848   6.502  17.659   7.360  0.2821  0.2337 -0.1231
 1221POPI   C1B18849   6.414  18.072   5.687  0.3330  0.0281 -0.2767
 1221POPI   C2B18850   6.276  18.004   6.126 -0.0207  0.0380 -0.2230
 1221POPI   C3B18851   6.045  18.079   6.403  0.0245 -0.1954 -0.0264
 1221POPI   C4B18852   6.047  17.925   6.888 -0.0823 -0.0063  0.0007
 1222POPI    C118853   4.680   2.762   4.769 -0.0628  0.4061  0.3694
 1222POPI    C218854   5.030   2.790   4.961  0.0484  0.0079  0.2328
 1222POPI    C318855   5.016   2.834   4.564 -0.0350 -0.1030  0.2229
 1222POPI   PO418856   4.512   3.004   4.961 -0.2325 -0.1923 -0.4282
 1222POPI   GL118857   4.784   3.108   5.297 -0.3366  0.4462 -0.0689
 1222POPI   GL218858   4.671   2.790   5.370  0.1422  0.1692  0.0686
 1222POPI   C1A18859   4.801   3.131   5.699  0.1340 -0.1370 -0.0166
 1222POPI   D2A18860   4.629   3.294   6.144 -0.1502 -0.0152 -0.3401
 1222POPI   C3A18861   4.669   3.178   6.530  0.3815  0.0207  0.0127
 1222POPI   C4A18862   4.413   2.825   6.695  0.1014 -0.1540 -0.1398
 1222POPI   C1B18863   4.388   2.882   5.754  0.1631 -0.3833 -0.0186
 1222POPI   C2B18864   4.198   2.760   6.099 -0.0549  0.5224  0.1171
 1222POPI   C3B18865   4.034   2.451   6.411 -0.1210 -0.3342 -0.0606
 1222POPI   C4B18866   4.015   2.486   6.901  0.0429 -0.0860 -0.1878
 1223POPI    C118867   2.315   1.556   4.613 -0.0452 -0.0137  0.1077
 1223POPI    C218868   2.487   1.294   4.365 -0.1105 -0.0108  0.0591
 1223POPI    C318869   2.165   1.500   4.246  0.0104  0.1777  0.0542
 1223POPI   PO418870   2.321   1.480   4.867  0.0714  0.4900  0.1979
 1223POPI   GL118871   2.053   1.136   5.147  0.3106 -0.0603 -0.1525
 1223POPI   GL218872   1.909   1.449   5.187 -0.2366 -0.3053 -0.0540
 1223POPI   C1A18873   2.207   0.930   5.578 -0.0989  0.0291 -0.0295
 1223POPI   D2A18874   2.021   0.750   6.010  0.2740 -0.1726 -0.1419
 1223POPI   C3A18875   2.352   0.796   6.188  0.1668  0.0865 -0.1183
 1223POPI   C4A18876   2.628   0.961   6.482  0.0627  0.1510 -0.1517
 1223POPI   C1B18877   1.989   1.423   5.638 -0.1582  0.1248  0.0398
 1223POPI   C2B18878   1.966   1.267   6.040 -0.1222  0.1621  0.0489
 1223POPI   C3B18879   1.907   1.282   6.458  0.1424 -0.0345 -0.3711
 1223POPI   C4B18880   1.602   1.447   6.852  0.2304  0.0341  0.0442
 1224POPI    C118881  16.368  17.777   4.383 -0.1589  0.2561 -0.1169
 1224POPI    C218882  16.235  18.079   4.157 -0.0439  0.2248 -0.2276
 1224POPI    C318883  16.065  17.718   4.129 -0.0536  0.2302 -0.2379
 1224POPI   PO418884  16.368  17.874   4.714 -0.1105  0.0590  0.3816
 1224POPI   GL118885  16.482  17.957   5.095 -0.0559 -0.0184 -0.1635
 1224POPI   GL218886  16.706  18.215   5.019 -0.2101 -0.0947 -0.2480
 1224POPI   C1A18887  16.678  17.940   5.566  0.3354  0.2671 -0.0160
 1224POPI   D2A18888  16.808  18.061   5.887 -0.1160  0.1754 -0.0101
 1224POPI   C3A18889  17.095  18.355   5.886  0.1461  0.0091 -0.0883
 1224POPI   C4A18890  17.467  18.298   6.047  0.1769 -0.0801 -0.0659
 1224POPI   C1B18891  16.812  18.337   5.395 -0.0626  0.0041  0.1228
 1224POPI   C2B18892  16.590  18.508   5.711 -0.2079  0.0870  0.2763
 1224POPI   C3B18893  16.630  18.489   6.049 -0.1002 -0.2191 -0.1451
 1224POPI   C4B18894  16.644  18.203   6.358  0.2005 -0.1455 -0.2128
 1225POPI    C118895   4.909   7.865   4.720  0.1768 -0.0832  0.0572
 1225POPI    C218896   5.189   7.920   4.440 -0.2016  0.0097 -0.3142
 1225POPI    C318897   4.972   7.584   4.443  0.0248 -0.1408  0.0801
 1225POPI   PO418898   5.007   7.921   4.898  0.0948 -0.1860 -0.0451
 1225POPI   GL118899   4.912   8.342   5.199  0.0093 -0.1506  0.0519
 1225POPI   GL218900   4.736   8.549   5.150 -0.1628  0.2294 -0.1955
 1225POPI   C1A18901   5.142   8.461   5.624 -0.1447 -0.0400 -0.0439
 1225POPI   D2A18902   5.105   8.569   6.124 -0.0299  0.2368  0.1731
 1225POPI   C3A18903   5.450   8.490   6.401 -0.2785  0.2927  0.0825
 1225POPI   C4A18904   5.827   8.239   6.376  0.0036  0.5573 -0.0287
 1225POPI   C1B18905   4.645   8.460   5.622  0.2613  0.0894 -0.1341
 1225POPI   C2B18906   4.636   8.722   5.942 -0.1023  0.0868  0.1954
 1225POPI   C3B18907   4.692   8.808   6.361  0.2296 -0.2483 -0.1840
 1225POPI   C4B18908   4.665   8.946   6.808 -0.2680  0.2154  0.3364
 1226POPI    C118909   4.233  11.389   4.963  0.1420 -0.3778  0.0809
 1226POPI    C218910   3.949  11.146   4.821 -0.0110 -0.2739  0.2048
 1226POPI    C318911   3.854  11.433   5.082  0.1231  0.0790 -0.1242
 1226POPI   PO418912   4.471  11.151   5.091  0.2576 -0.1500  0.4667
 1226POPI   GL118913   4.508  10.946   5.474 -0.2073 -0.0687  0.3006
 1226POPI   GL218914   4.690  10.768   5.627  0.1247  0.0772  0.1670
 1226POPI   C1A18915   4.431  11.127   5.844  0.4818 -0.0599  0.0786
 1226POPI   D2A18916   4.401  11.041   6.238 -0.1532  0.0206 -0.0920
 1226POPI   C3A18917   4.444  10.789   6.675  0.0566 -0.2566  0.4712
 1226POPI   C4A18918   4.470  10.655   7.146  0.1736 -0.2345 -0.3609
 1226POPI   C1B18919   4.567  10.612   6.003  0.0563 -0.1172  0.0854
 1226POPI   C2B18920   4.437  10.372   6.349 -0.1668 -0.0357  0.2395
 1226POPI   C3B18921   4.430  10.289   6.813  0.1227  0.0484 -0.0106
 1226POPI   C4B18922   4.426  10.161   7.247  0.0208 -0.3125  0.0742
 1227POPI    C118923  14.371   2.175   4.687 -0.2462 -0.1412  0.0859
 1227POPI    C218924  14.123   2.436   4.862  0.0640  0.1647  0.0824
 1227POPI    C318925  14.099   2.370   4.468 -0.0078  0.1959  0.0813
 1227POPI   PO418926  14.604   2.238   4.936 -0.0913 -0.2747 -0.1411
 1227POPI   GL118927  14.611   1.994   5.254 -0.0001  0.0216 -0.0881
 1227POPI   GL218928  15.000   2.177   5.372 -0.1257  0.0176 -0.0113
 1227POPI   C1A18929  14.345   2.008   5.619  0.0302  0.1134 -0.1331
 1227POPI   D2A18930  14.127   2.197   5.985 -0.2248 -0.1235 -0.3698
 1227POPI   C3A18931  14.395   2.489   6.052  0.0557 -0.1230  0.1725
 1227POPI   C4A18932  14.824   2.559   6.031 -0.0191  0.2719 -0.4257
 1227POPI   C1B18933  15.283   1.888   5.659  0.0401 -0.1711 -0.1084
 1227POPI   C2B18934  15.282   1.732   6.058 -0.0527  0.0142  0.1272
 1227POPI   C3B18935  15.267   1.305   6.188 -0.2236 -0.1843 -0.1242
 1227POPI   C4B18936  15.451   1.309   6.573  0.2210 -0.4102 -0.1284
 1228POPI    C118937   3.041  10.546   4.732  0.1009 -0.0824 -0.0303
 1228POPI    C218938   2.871  10.728   4.420 -0.0633  0.2235  0.2310
 1228POPI    C318939   3.231  10.846   4.547 -0.0017  0.1071  0.1665
 1228POPI   PO418940   2.847  10.486   4.958  0.1213  0.0545  0.0245
 1228POPI   GL118941   2.572  10.602   5.300 -0.1742 -0.0648  0.1580
 1228POPI   GL218942   2.387  10.798   5.377 -0.0143 -0.0192 -0.3561
 1228POPI   C1A18943   2.782  10.216   5.525 -0.2722 -0.0692 -0.0546
 1228POPI   D2A18944   2.972  10.114   5.950 -0.0731 -0.0521 -0.0747
 1228POPI   C3A18945   2.876   9.667   5.980 -0.0679 -0.1591  0.0062
 1228POPI   C4A18946   2.874   9.453   6.335 -0.1442  0.3704  0.1871
 1228POPI   C1B18947   2.589  10.786   5.787  0.0164  0.2669  0.1003
 1228POPI   C2B18948   2.699  10.703   6.203 -0.1377  0.0191  0.1092
 1228POPI   C3B18949   2.887  10.781   6.620 -0.0841  0.1773 -0.0114
 1228POPI   C4B18950   2.874  10.751   7.076  0.0666 -0.2774  0.0010
 1229POPI    C118951  17.832   3.409   4.620 -0.0530  0.1751  0.0931
 1229POPI    C218952  18.032   3.523   4.293 -0.2200  0.1808 -0.0079
 1229POPI    C318953  17.633   3.493   4.284 -0.2000 -0.1667  0.0903
 1229POPI   PO418954  17.895   3.543   4.894 -0.1022 -0.2572  0.1715
 1229POPI   GL118955  17.938   3.446   5.311  0.2385  0.1025  0.3809
 1229POPI   GL218956  17.798   3.726   5.531 -0.0009 -0.0280 -0.4714
 1229POPI   C1A18957  18.031   3.140   5.563 -0.3760  0.0955 -0.0211
 1229POPI   D2A18958  17.900   3.091   5.917 -0.2598 -0.3568  0.3020
 1229POPI   C3A18959  17.934   2.819   6.254  0.0687 -0.2879  0.2815
 1229POPI   C4A18960  17.895   2.530   6.666  0.4036 -0.1833  0.0147
 1229POPI   C1B18961  18.023   3.812   5.911 -0.1339 -0.2409 -0.1921
 1229POPI   C2B18962  18.273   3.839   6.236 -0.2524  0.1154 -0.1789
 1229POPI   C3B18963  18.322   3.791   6.680  0.0562  0.1869  0.0161
 1229POPI   C4B18964  18.561   3.740   7.024  0.0822  0.5121 -0.1609
 1230POPI    C118965   9.036  10.251   4.796 -0.0239 -0.0594 -0.0342
 1230POPI    C218966   9.310   9.984   4.680  0.0922  0.0864 -0.0987
 1230POPI    C318967   8.921   9.909   4.624  0.1207 -0.0990 -0.0525
 1230POPI   PO418968   9.019  10.365   5.074  0.1032 -0.2434  0.1985
 1230POPI   GL118969   8.883  10.182   5.438 -0.0635  0.0989  0.0649
 1230POPI   GL218970   9.181  10.257   5.543  0.0528  0.3974 -0.0449
 1230POPI   C1A18971   8.804   9.938   5.738 -0.1831  0.1123 -0.1345
 1230POPI   D2A18972   8.797   9.814   6.177 -0.2023 -0.2871 -0.0492
 1230POPI   C3A18973   8.900   9.953   6.598  0.0225 -0.5285 -0.0761
 1230POPI   C4A18974   9.085   9.870   6.986  0.4409 -0.2293 -0.2019
 1230POPI   C1B18975   9.343  10.533   5.737  0.1464  0.1709  0.1188
 1230POPI   C2B18976   9.417  10.754   6.028  0.0487  0.2480 -0.0935
 1230POPI   C3B18977   9.341  10.786   6.459  0.0288  0.1047  0.0494
 1230POPI   C4B18978   9.538  10.837   6.818 -0.1345 -0.0574 -0.1081
 1231POPI    C118979  12.879   1.447   4.923  0.0261 -0.3165  0.1812
 1231POPI    C218980  13.061   1.182   4.685  0.2036  0.0263 -0.0732
 1231POPI    C318981  12.835   1.471   4.526 -0.0330 -0.0012  0.2048
 1231POPI   PO418982  12.720   1.370   5.127  0.1462  0.0147  0.1757
 1231POPI   GL118983  12.827   1.418   5.547  0.0365  0.2153  0.1348
 1231POPI   GL218984  12.940   1.743   5.704  0.0956 -0.4195  0.0694
 1231POPI   C1A18985  12.752   1.119   5.706 -0.0671  0.1642 -0.0288
 1231POPI   D2A18986  12.604   0.772   5.853  0.0871 -0.0237 -0.0264
 1231POPI   C3A18987  12.212   0.847   6.073 -0.0006  0.1686 -0.1100
 1231POPI   C4A18988  11.899   0.964   6.286  0.0201  0.0049 -0.0326
 1231POPI   C1B18989  13.027   1.658   6.059 -0.0107 -0.2892  0.2244
 1231POPI   C2B18990  12.935   1.462   6.384  0.2376  0.1229 -0.0274
 1231POPI   C3B18991  12.444   1.380   6.602 -0.0465 -0.0256  0.0767
 1231POPI   C4B18992  12.180   1.109   6.952 -0.1547  0.1485 -0.0377
 1232POPI    C118993   0.128   2.558   4.600 -0.2318 -0.1266 -0.1090
 1232POPI    C218994   0.340   2.857   4.440 -0.1547 -0.0347  0.1598
 1232POPI    C318995   0.258   2.532   4.222 -0.1762  0.1488 -0.1109
 1232POPI   PO418996   0.112   2.575   4.853  0.0166  0.2410  0.1199
 1232POPI   GL118997   0.216   2.663   5.230 -0.1821 -0.1898 -0.2358
 1232POPI   GL218998   0.026   2.282   5.297  0.0228  0.3246  0.0925
 1232POPI   C1A18999   0.327   2.471   5.646 -0.1064 -0.0830  0.0755
 1232POPI   D2A19000   0.167   2.344   5.974  0.3666  0.0576 -0.1427
 1232POPI   C3A19001   0.238   2.516   6.274 -0.1153 -0.1301  0.1686
 1232POPI   C4A19002   0.198   2.565   6.747  0.0670  0.1904  0.5360
 1232POPI   C1B19003  -0.225   2.169   5.749  0.1129  0.3321 -0.2279
 1232POPI   C2B19004  -0.551   2.073   6.126  0.0012  0.0391  0.3406
 1232POPI   C3B19005  -0.494   2.012   6.542 -0.1327 -0.1862  0.0621
 1232POPI   C4B19006  -0.464   1.943   6.944  0.4766 -0.0230  0.2558
 1233POPI    C119007   0.803  16.956   4.902  0.0208  0.2646 -0.0704
 1233POPI    C219008   0.472  16.921   4.680  0.0663 -0.3634 -0.0571
 1233POPI    C319009   0.815  17.038   4.511 -0.1208  0.1536 -0.0987
 1233POPI   PO419010   0.791  17.075   5.060  0.1850 -0.2613  0.2371
 1233POPI   GL119011   0.935  17.044   5.450  0.0689 -0.3426 -0.2333
 1233POPI   GL219012   0.731  16.871   5.497  0.0191  0.0244 -0.2302
 1233POPI   C1A19013   0.818  17.237   5.905  0.1715  0.3244 -0.4781
 1233POPI   D2A19014   0.492  17.602   6.079 -0.1073  0.2144  0.2697
 1233POPI   C3A19015   0.392  17.725   6.566  0.1489  0.1311  0.0863
 1233POPI   C4A19016   0.453  17.979   6.846 -0.0802 -0.2805  0.2661
 1233POPI   C1B19017   0.510  16.890   5.903 -0.3569  0.0425 -0.1366
 1233POPI   C2B19018   0.450  17.147   6.302 -0.2058 -0.0400 -0.0049
 1233POPI   C3B19019   0.632  17.295   6.657  0.0591  0.0907  0.0430
 1233POPI   C4B19020   0.558  17.563   7.039  0.0636 -0.0066  0.1350
 1234POPI    C119021   1.252  11.980   5.101 -0.1169 -0.1287  0.1111
 1234POPI    C219022   1.634  12.062   5.012 -0.0791 -0.0771  0.3162
 1234POPI    C319023   1.340  12.203   4.780  0.0341 -0.2935  0.0365
 1234POPI   PO419024   1.246  12.033   5.319 -0.1986 -0.0678 -0.0116
 1234POPI   GL119025   1.249  11.780   5.688 -0.1221 -0.1171 -0.5341
 1234POPI   GL219026   1.460  12.082   5.804  0.0655 -0.2657 -0.0225
 1234POPI   C1A19027   0.892  11.887   6.062 -0.0307 -0.2160 -0.0159
 1234POPI   D2A19028   0.578  11.627   6.309  0.0519  0.0893  0.2041
 1234POPI   C3A19029   0.522  11.724   6.658 -0.2353 -0.2594 -0.0470
 1234POPI   C4A19030   0.632  11.640   7.066  0.0286 -0.1595 -0.3001
 1234POPI   C1B19031   1.590  12.139   6.277  0.2207  0.2281 -0.0900
 1234POPI   C2B19032   1.588  11.932   6.616  0.1781 -0.4868 -0.3469
 1234POPI   C3B19033   1.667  12.110   7.017  0.1565  0.1112  0.0962
 1234POPI   C4B19034   1.431  12.132   7.360  0.1501  0.2818  0.1600
 1235POPI    C119035   6.153   3.584   4.731  0.4068  0.0475  0.0961
 1235POPI    C219036   5.968   3.343   4.471 -0.0472  0.0291  0.4242
 1235POPI    C319037   6.335   3.479   4.391 -0.2699  0.2287 -0.3415
 1235POPI   PO419038   6.230   3.456   4.981  0.2224  0.3459  0.1780
 1235POPI   GL119039   6.333   3.427   5.414  0.0555  0.0830  0.0023
 1235POPI   GL219040   5.972   3.588   5.464 -0.1627  0.1380 -0.2117
 1235POPI   C1A19041   6.320   3.146   5.827  0.1552  0.0222  0.1582
 1235POPI   D2A19042   6.432   3.260   6.241 -0.1748 -0.0671 -0.0445
 1235POPI   C3A19043   6.507   3.148   6.603 -0.1185  0.1955  0.0199
 1235POPI   C4A19044   6.240   3.068   6.882  0.1848 -0.0557 -0.1141
 1235POPI   C1B19045   5.577   3.705   5.748  0.2445 -0.2281  0.4531
 1235POPI   C2B19046   5.538   3.753   6.106  0.2322 -0.0859  0.0570
 1235POPI   C3B19047   5.738   3.900   6.478  0.0246  0.1228 -0.2357
 1235POPI   C4B19048   5.594   3.658   6.877 -0.1784  0.0507  0.0057
 1236POPI    C119049   6.848  15.331   4.588 -0.0618 -0.0584 -0.0920
 1236POPI    C219050   6.640  15.124   4.316 -0.1547 -0.0618 -0.0190
 1236POPI    C319051   6.675  15.521   4.281 -0.2345 -0.0522  0.0074
 1236POPI   PO419052   6.829  15.105   4.794 -0.1183 -0.3458 -0.1859
 1236POPI   GL119053   6.647  15.214   5.298  0.0896 -0.2721  0.1059
 1236POPI   GL219054   6.973  15.350   5.193 -0.0293 -0.2331  0.0219
 1236POPI   C1A19055   6.931  15.153   5.674 -0.0049 -0.2163  0.0405
 1236POPI   D2A19056   7.069  15.161   6.047 -0.0913 -0.0442  0.1879
 1236POPI   C3A19057   7.284  14.939   6.199  0.0064  0.2316 -0.1397
 1236POPI   C4A19058   7.526  14.521   6.113 -0.1120  0.0256  0.0845
 1236POPI   C1B19059   7.243  15.552   5.556  0.2362  0.0404 -0.0358
 1236POPI   C2B19060   7.451  15.492   6.012 -0.3046  0.0032 -0.1004
 1236POPI   C3B19061   7.474  15.494   6.428  0.1372  0.2510  0.0781
 1236POPI   C4B19062   7.139  15.594   6.825 -0.0495 -0.1945  0.0656
 1237POPI    C119063   8.687  13.807   4.701 -0.0018  0.0750 -0.1923
 1237POPI    C219064   8.356  13.706   4.903 -0.1152  0.4433 -0.1876
 1237POPI    C319065   8.332  13.805   4.516  0.0515  0.0785 -0.2951
 1237POPI   PO419066   8.836  13.768   4.930 -0.0192  0.1055  0.1159
 1237POPI   GL119067   8.939  13.977   5.349  0.2315  0.2249 -0.0883
 1237POPI   GL219068   9.039  13.666   5.345  0.2168  0.1744 -0.2699
 1237POPI   C1A19069   8.850  13.839   5.773 -0.0734 -0.3082  0.0313
 1237POPI   D2A19070   8.431  13.826   5.884 -0.4184  0.0544  0.1835
 1237POPI   C3A19071   8.321  13.914   6.218  0.3959 -0.0571  0.0699
 1237POPI   C4A19072   8.138  13.917   6.518 -0.0544  0.3415  0.0973
 1237POPI   C1B19073   9.332  13.826   5.758 -0.0546  0.0720  0.5862
 1237POPI   C2B19074   9.708  13.676   5.742 -0.1889  0.2393 -0.0245
 1237POPI   C3B19075  10.077  13.506   5.660 -0.1836  0.0250 -0.0579
 1237POPI   C4B19076  10.538  13.253   5.690  0.3561  0.1389  0.0879
 1238POPI    C119077  15.817   0.619   4.676 -0.1621  0.0030 -0.2838
 1238POPI    C219078  16.078   0.331   4.583  0.1348  0.0823  0.2666
 1238POPI    C319079  16.044   0.653   4.349  0.2235 -0.1241 -0.0357
 1238POPI   PO419080  15.737   0.666   4.909  0.0782 -0.2959  0.2038
 1238POPI   GL119081  15.545   0.588   5.275  0.0085 -0.0835  0.1141
 1238POPI   GL219082  15.455   0.842   5.497  0.1188  0.1199  0.3055
 1238POPI   C1A19083  15.840   0.232   5.520  0.1968 -0.1899 -0.0468
 1238POPI   D2A19084  16.030   0.370   5.834  0.0187  0.1171  0.0621
 1238POPI   C3A19085  16.167   0.800   5.882 -0.1267 -0.1295  0.1855
 1238POPI   C4A19086  16.021   1.214   5.931  0.0747 -0.1903  0.2425
 1238POPI   C1B19087  15.646   0.731   5.829 -0.1130  0.1468  0.0179
 1238POPI   C2B19088  15.636   0.888   6.237  0.1424 -0.0133  0.0894
 1238POPI   C3B19089  15.670   0.808   6.628  0.3120  0.2489 -0.0796
 1238POPI   C4B19090  16.016   0.701   6.886  0.0914 -0.3437 -0.1456
 1239POPI    C119091  14.909  12.028   5.182  0.0480 -0.0175  0.0092
 1239POPI    C219092  14.558  12.018   5.374  0.1286  0.1120  0.1662
 1239POPI    C319093  14.567  12.031   4.974 -0.0395 -0.2526  0.1463
 1239POPI   PO419094  15.039  12.114   5.418  0.1628  0.0254  0.0212
 1239POPI   GL119095  15.004  12.548   5.681  0.1243  0.0844  0.0566
 1239POPI   GL219096  14.724  12.397   5.747  0.1562 -0.1098  0.4800
 1239POPI   C1A19097  15.006  12.736   6.125 -0.1081 -0.1122 -0.1678
 1239POPI   D2A19098  14.783  12.800   6.507  0.2541  0.2260  0.0273
 1239POPI   C3A19099  14.643  13.134   6.464 -0.2250 -0.0493  0.1411
 1239POPI   C4A19100  14.668  13.357   6.157 -0.1432  0.6204  0.2203
 1239POPI   C1B19101  14.736  12.295   6.123 -0.1579 -0.1835 -0.2530
 1239POPI   C2B19102  14.676  12.301   6.538  0.0134  0.3006 -0.2029
 1239POPI   C3B19103  14.533  12.391   6.929  0.1897 -0.2593  0.3278
 1239POPI   C4B19104  14.379  12.296   7.351  0.1154 -0.1087  0.2434
 1240POPI    C119105   9.076   2.990   4.793 -0.0467 -0.0201  0.0192
 1240POPI    C219106   8.804   2.699   4.831  0.0851 -0.1323  0.1138
 1240POPI    C319107   8.935   2.804   4.468 -0.1003 -0.0617  0.0660
 1240POPI   PO419108   9.036   3.067   5.042 -0.0801 -0.1134  0.1083
 1240POPI   GL119109   9.438   3.219   5.292  0.0134  0.0994  0.3196
 1240POPI   GL219110   9.240   3.449   5.332 -0.1888 -0.0217 -0.1896
 1240POPI   C1A19111   9.645   3.031   5.615  0.0637  0.3120 -0.0774
 1240POPI   D2A19112   9.998   2.987   5.865 -0.1611  0.0999  0.1166
 1240POPI   C3A19113  10.003   2.972   6.300 -0.1435 -0.1484  0.2526
 1240POPI   C4A19114   9.969   2.871   6.732  0.0373 -0.0354 -0.0127
 1240POPI   C1B19115   9.175   3.380   5.826  0.0756  0.0667  0.2673
 1240POPI   C2B19116   9.105   3.322   6.167  0.0003 -0.0380  0.4809
 1240POPI   C3B19117   9.124   3.177   6.529  0.0768 -0.0935 -0.0461
 1240POPI   C4B19118   9.291   3.433   6.825  0.1108 -0.0397 -0.1452
 1241POPI    C119119  18.200  15.316   4.598  0.2760 -0.0257  0.0583
 1241POPI    C219120  18.388  15.059   4.355  0.1299  0.0390 -0.1256
 1241POPI    C319121  17.988  15.075   4.359  0.1309  0.0472  0.1121
 1241POPI   PO419122  18.287  15.277   4.853  0.1043  0.0441  0.0340
 1241POPI   GL119123  18.340  15.455   5.167 -0.2450 -0.0908 -0.1478
 1241POPI   GL219124  18.227  15.218   5.425 -0.1972  0.0587 -0.1850
 1241POPI   C1A19125  18.637  15.475   5.568  0.4430 -0.1286 -0.0084
 1241POPI   D2A19126  18.732  15.486   6.064 -0.2818  0.2538 -0.0030
 1241POPI   C3A19127  19.067  15.539   6.314  0.0029 -0.0962 -0.0805
 1241POPI   C4A19128  19.266  15.345   6.732  0.0863 -0.0519  0.1955
 1241POPI   C1B19129  18.205  15.226   5.840 -0.2491  0.2278  0.0310
 1241POPI   C2B19130  18.241  15.347   6.240  0.0441 -0.0711  0.1968
 1241POPI   C3B19131  18.330  15.564   6.636 -0.1815 -0.0371  0.1437
 1241POPI   C4B19132  18.299  15.774   7.089 -0.0864 -0.3079  0.0568
 1242POPI    C119133   3.284  14.205   4.559  0.1242 -0.0302  0.0465
 1242POPI    C219134   3.040  14.508   4.467  0.0619 -0.0980 -0.0133
 1242POPI    C319135   2.954  14.138   4.343  0.1945 -0.1225 -0.0332
 1242POPI   PO419136   3.373  14.280   4.882  0.1690  0.0648  0.0538
 1242POPI   GL119137   3.495  14.244   5.259  0.2277  0.1219 -0.0332
 1242POPI   GL219138   3.158  14.300   5.326  0.0047 -0.3984  0.0293
 1242POPI   C1A19139   3.691  13.911   5.654  0.1078 -0.1147  0.2263
 1242POPI   D2A19140   3.500  13.886   6.049 -0.1495 -0.0703 -0.1719
 1242POPI   C3A19141   3.457  13.581   6.334 -0.0362 -0.1758 -0.0482
 1242POPI   C4A19142   3.556  13.555   6.720  0.5781 -0.1318  0.1474
 1242POPI   C1B19143   3.285  14.338   5.706  0.0953  0.0508 -0.0426
 1242POPI   C2B19144   3.199  14.328   6.152 -0.1209  0.0815 -0.3248
 1242POPI   C3B19145   3.081  14.287   6.572 -0.0890 -0.0029 -0.1628
 1242POPI   C4B19146   3.110  14.253   6.952  0.0235 -0.3628 -0.0206
 1243POPI    C119147  14.641  17.335   4.531 -0.0391  0.0504  0.0410
 1243POPI    C219148  14.689  16.961   4.398 -0.1519  0.1497 -0.2866
 1243POPI    C319149  14.329  17.085   4.520  0.0042 -0.0259  0.3963
 1243POPI   PO419150  14.818  17.339   4.699  0.0255  0.3230  0.0574
 1243POPI   GL119151  14.761  17.470   5.158  0.1960 -0.2477  0.0546
 1243POPI   GL219152  14.677  17.675   5.363 -0.0725 -0.2559  0.1646
 1243POPI   C1A19153  14.639  17.153   5.460  0.1584  0.1521  0.1525
 1243POPI   D2A19154  14.554  17.236   5.828 -0.1289 -0.1603  0.0077
 1243POPI   C3A19155  14.724  17.468   6.193 -0.0340  0.0050 -0.1148
 1243POPI   C4A19156  15.195  17.741   6.184  0.0877 -0.3671  0.2267
 1243POPI   C1B19157  15.058  17.797   5.477  0.2796  0.0420 -0.2382
 1243POPI   C2B19158  15.384  17.826   5.768 -0.3315 -0.3965  0.0315
 1243POPI   C3B19159  15.538  17.496   5.822 -0.1148 -0.0802  0.0658
 1243POPI   C4B19160  15.908  17.297   5.823 -0.2879  0.2789 -0.0923
 1244POPI    C119161  12.695  11.997   4.978  0.0689 -0.0959  0.1545
 1244POPI    C219162  12.535  11.642   4.888  0.3289 -0.1310 -0.1908
 1244POPI    C319163  12.370  11.977   4.746  0.0342 -0.1017  0.2034
 1244POPI   PO419164  12.737  12.011   5.308 -0.1818  0.1666 -0.0160
 1244POPI   GL119165  13.141  11.978   5.567 -0.1855  0.0363  0.1926
 1244POPI   GL219166  12.891  12.297   5.687 -0.2187 -0.0907 -0.0927
 1244POPI   C1A19167  13.045  11.556   5.876 -0.2097 -0.0678  0.3813
 1244POPI   D2A19168  13.249  11.303   6.158  0.2024 -0.3966  0.0191
 1244POPI   C3A19169  13.155  11.276   6.544  0.0251 -0.1163  0.2899
 1244POPI   C4A19170  13.355  11.589   6.725  0.1238  0.1206 -0.2830
 1244POPI   C1B19171  12.742  12.542   6.068 -0.0084  0.0450  0.2312
 1244POPI   C2B19172  12.473  12.477   6.508 -0.1277 -0.2039  0.0384
 1244POPI   C3B19173  12.489  12.336   6.995  0.0664 -0.0323  0.1545
 1244POPI   C4B19174  12.203  12.140   7.396 -0.0846 -0.0212  0.2877
 1245POPI    C119175  16.585   0.218   4.623 -0.2212  0.0511  0.0259
 1245POPI    C219176  16.891   0.195   4.367 -0.0620  0.0935  0.2100
 1245POPI    C319177  16.556   0.388   4.262  0.1359  0.4189  0.1629
 1245POPI   PO419178  16.703   0.302   4.859  0.0047  0.1521 -0.2052
 1245POPI   GL119179  16.789   0.580   5.234  0.2033 -0.2339 -0.1181
 1245POPI   GL219180  16.498   0.420   5.445  0.2102  0.0054 -0.1339
 1245POPI   C1A19181  17.158   0.558   5.458  0.2453  0.0366 -0.1072
 1245POPI   D2A19182  17.209   0.775   5.971  0.1107  0.1603 -0.2213
 1245POPI   C3A19183  16.880   0.753   6.309 -0.1423 -0.3373  0.5420
 1245POPI   C4A19184  17.010   0.606   6.604 -0.2177 -0.3512  0.0758
 1245POPI   C1B19185  16.845   0.290   5.804 -0.2027  0.2704  0.1137
 1245POPI   C2B19186  16.923   0.293   6.179  0.1275  0.2314 -0.1705
 1245POPI   C3B19187  16.581   0.268   6.541 -0.3550  0.2276  0.0347
 1245POPI   C4B19188  16.456   0.110   6.898  0.3520  0.0702  0.1822
 1246POPI    C119189   0.011   5.819   5.197  0.2302 -0.0918 -0.0656
 1246POPI    C219190  -0.346   5.954   5.076  0.2112 -0.1131 -0.0335
 1246POPI    C319191  -0.010   6.119   4.933  0.1881  0.0804  0.1316
 1246POPI   PO419192   0.049   5.746   5.424  0.1234 -0.0032 -0.0003
 1246POPI   GL119193  -0.127   5.725   5.696 -0.0310  0.0114  0.1144
 1246POPI   GL219194  -0.496   5.598   5.686  0.0762 -0.0622 -0.0806
 1246POPI   C1A19195   0.023   5.901   6.190 -0.0241 -0.0082 -0.1201
 1246POPI   D2A19196  -0.192   5.860   6.641 -0.4622 -0.0447 -0.0265
 1246POPI   C3A19197  -0.174   5.615   6.980  0.0141  0.1350 -0.0109
 1246POPI   C4A19198  -0.402   5.794   7.415 -0.3310  0.0488 -0.1657
 1246POPI   C1B19199  -0.365   5.594   6.157  0.0171  0.0184  0.1082
 1246POPI   C2B19200  -0.417   5.460   6.495  0.0365  0.1215  0.0466
 1246POPI   C3B19201  -0.487   5.198   6.811 -0.0507 -0.1663  0.2834
 1246POPI   C4B19202  -0.276   4.840   6.900  0.3028 -0.1713 -0.0516
 1247DPPI    C119203  14.969  11.138   5.231  0.0086 -0.0191  0.0944
 1247DPPI    C219204  15.085  11.028   4.864  0.3269  0.0514  0.1709
 1247DPPI    C319205  14.843  10.791   5.077  0.1611 -0.0016 -0.0730
 1247DPPI   PO419206  15.164  11.192   5.421 -0.2343 -0.3163  0.1625
 1247DPPI   GL119207  15.200  11.269   5.882 -0.0292 -0.1679  0.1776
 1247DPPI   GL219208  14.871  11.276   5.872 -0.2264 -0.1569  0.0304
 1247DPPI   C1A19209  15.133  11.391   6.330  0.1138  0.1269 -0.2418
 1247DPPI   C2A19210  15.116  11.210   6.750  0.1044 -0.0590  0.0957
 1247DPPI   C3A19211  15.326  11.209   7.052 -0.0917  0.1796 -0.2238
 1247DPPI   C4A19212  15.678  11.011   7.287 -0.0134 -0.0556 -0.2325
 1247DPPI   C1B19213  14.601  11.391   6.078 -0.0083  0.2732 -0.0409
 1247DPPI   C2B19214  14.597  11.409   6.544  0.3047  0.2613 -0.0131
 1247DPPI   C3B19215  14.725  11.446   6.919 -0.2325  0.2346 -0.0325
 1247DPPI   C4B19216  15.113  11.581   7.218 -0.0586 -0.0279  0.4096
 1248DPPI    C119217  13.679  12.385   5.201 -0.0453  0.0750 -0.0370
 1248DPPI    C219218  13.490  12.502   4.868 -0.0127  0.0421 -0.0671
 1248DPPI    C319219  13.826  12.285   4.842 -0.0372 -0.0023 -0.0123
 1248DPPI   PO419220  13.572  12.258   5.370 -0.2176 -0.1194 -0.2989
 1248DPPI   GL119221  13.406  12.440   5.653 -0.2186  0.0475  0.1867
 1248DPPI   GL219222  13.229  12.690   5.791  0.1796  0.1187  0.2214
 1248DPPI   C1A19223  13.405  12.141   5.999 -0.2216  0.3962 -0.1073
 1248DPPI   C2A19224  13.082  11.953   6.123  0.2015 -0.0816  0.1267
 1248DPPI   C3A19225  12.805  11.566   6.303 -0.0334  0.0871 -0.1370
 1248DPPI   C4A19226  12.476  11.277   6.484 -0.1453 -0.3407  0.0013
 1248DPPI   C1B19227  13.222  12.503   6.179  0.1799 -0.1512 -0.1123
 1248DPPI   C2B19228  13.001  12.495   6.509  0.0098 -0.0429 -0.3189
 1248DPPI   C3B19229  12.987  12.272   7.000  0.0504  0.3514  0.0877
 1248DPPI   C4B19230  12.950  12.312   7.317 -0.0462  0.1066  0.0964
 1249DPPI    C119231   2.486  15.186   4.634 -0.1954 -0.2602 -0.1670
 1249DPPI    C219232   2.706  14.854   4.670  0.1395 -0.0250  0.0055
 1249DPPI    C319233   2.748  15.087   4.348  0.1067 -0.0055  0.0153
 1249DPPI   PO419234   2.413  15.315   4.895 -0.1219  0.1546  0.0810
 1249DPPI   GL119235   2.542  15.405   5.382  0.1812 -0.0595  0.0161
 1249DPPI   GL219236   2.293  15.571   5.429  0.0343 -0.2121  0.1394
 1249DPPI   C1A19237   2.883  15.479   5.621 -0.0232 -0.2816 -0.0343
 1249DPPI   C2A19238   2.988  15.479   5.970 -0.2496 -0.1615 -0.3102
 1249DPPI   C3A19239   2.987  15.364   6.302 -0.0574  0.1855  0.0322
 1249DPPI   C4A19240   3.011  15.311   6.869 -0.0517  0.2813  0.0395
 1249DPPI   C1B19241   2.434  15.707   5.846  0.2095 -0.1855  0.0817
 1249DPPI   C2B19242   2.479  15.542   6.131 -0.3512  0.1134  0.1552
 1249DPPI   C3B19243   2.353  15.325   6.486  0.1654  0.0167  0.2118
 1249DPPI   C4B19244   2.151  15.315   6.825  0.1628  0.1412 -0.2040
 1250DPPI    C119245   2.230  16.462   4.593  0.0670 -0.1462 -0.0690
 1250DPPI    C219246   2.575  16.514   4.398  0.0526 -0.0341 -0.0652
 1250DPPI    C319247   2.356  16.186   4.332  0.2769 -0.2229  0.1102
 1250DPPI   PO419248   2.363  16.643   4.831 -0.3734  0.1825  0.0991
 1250DPPI   GL119249   2.211  16.746   5.287 -0.1700 -0.1407 -0.4652
 1250DPPI   GL219250   2.465  17.016   5.327  0.1592  0.0718  0.3561
 1250DPPI   C1A19251   2.415  16.720   5.754 -0.1171 -0.1598 -0.1681
 1250DPPI   C2A19252   2.403  16.556   6.209  0.2280 -0.1577 -0.1041
 1250DPPI   C3A19253   2.367  16.419   6.659 -0.2608 -0.0887 -0.0578
 1250DPPI   C4A19254   2.476  16.091   6.867 -0.1576 -0.3088 -0.2134
 1250DPPI   C1B19255   2.629  17.190   5.710  0.1080 -0.0644 -0.0081
 1250DPPI   C2B19256   2.615  17.110   6.139 -0.1186 -0.1150 -0.1969
 1250DPPI   C3B19257   2.468  16.896   6.573  0.0554 -0.1607 -0.0702
 1250DPPI   C4B19258   2.560  17.016   6.956 -0.0393 -0.3475  0.1850
 1251DPPI    C119259   1.840   8.218   5.239  0.3666  0.0277  0.0907
 1251DPPI    C219260   1.956   8.591   5.326  0.1210  0.1227  0.0177
 1251DPPI    C319261   1.922   8.476   4.944 -0.1092  0.1249  0.0362
 1251DPPI   PO419262   1.980   8.092   5.386 -0.2670  0.2665 -0.0811
 1251DPPI   GL119263   2.226   8.253   5.671  0.0899  0.1425  0.3808
 1251DPPI   GL219264   1.964   7.982   5.849 -0.0586  0.1541 -0.0367
 1251DPPI   C1A19265   2.491   8.228   6.035 -0.1556  0.3854  0.2649
 1251DPPI   C2A19266   2.671   7.911   6.338  0.2802 -0.2647  0.0766
 1251DPPI   C3A19267   2.587   7.889   6.767  0.1229  0.0403  0.0094
 1251DPPI   C4A19268   2.671   7.839   7.173  0.2111  0.2160 -0.0011
 1251DPPI   C1B19269   1.991   8.276   6.128  0.0909 -0.0063  0.3659
 1251DPPI   C2B19270   1.827   8.435   6.426  0.1938  0.0425 -0.0235
 1251DPPI   C3B19271   1.893   8.499   6.879  0.0208  0.0151 -0.0991
 1251DPPI   C4B19272   2.096   8.904   7.087 -0.0344 -0.4879  0.2201
 1252DPPI    C119273  15.391   3.028   4.655 -0.3335  0.1230 -0.0012
 1252DPPI    C219274  15.059   2.850   4.519 -0.1934 -0.0853 -0.0766
 1252DPPI    C319275  15.339   2.976   4.262 -0.1816  0.0273 -0.0096
 1252DPPI   PO419276  15.346   2.923   4.904  0.2023 -0.1105 -0.3860
 1252DPPI   GL119277  15.338   2.625   5.221  0.2204 -0.0625  0.0365
 1252DPPI   GL219278  15.436   2.450   5.533 -0.1004  0.1731  0.0915
 1252DPPI   C1A19279  14.986   2.755   5.553 -0.0458  0.1119  0.0381
 1252DPPI   C2A19280  14.787   3.002   5.839  0.0895 -0.1631 -0.1616
 1252DPPI   C3A19281  14.798   3.001   6.301 -0.2313 -0.0828  0.1123
 1252DPPI   C4A19282  14.777   2.580   6.547  0.0358 -0.3021 -0.1823
 1252DPPI   C1B19283  15.417   2.827   5.808  0.0354  0.0296  0.2107
 1252DPPI   C2B19284  15.258   2.770   6.181 -0.0586 -0.0863  0.1235
 1252DPPI   C3B19285  15.285   2.801   6.662  0.1336  0.0418  0.3738
 1252DPPI   C4B19286  15.582   2.999   6.842 -0.1492  0.0853  0.2691
 1253DPPI    C119287   5.171  14.779   5.049 -0.1249 -0.0749  0.1227
 1253DPPI    C219288   5.007  15.118   4.913 -0.1517 -0.1028  0.0854
 1253DPPI    C319289   5.120  14.833   4.656  0.4388  0.1330  0.0690
 1253DPPI   PO419290   5.038  14.708   5.270  0.1850  0.1064  0.3371
 1253DPPI   GL119291   5.179  14.502   5.639 -0.0684  0.1079  0.0856
 1253DPPI   GL219292   5.335  14.193   5.597  0.1646  0.0802  0.0693
 1253DPPI   C1A19293   5.051  14.596   6.042 -0.2426  0.0566 -0.0610
 1253DPPI   C2A19294   4.771  14.495   6.354  0.0769 -0.2328 -0.0968
 1253DPPI   C3A19295   4.681  14.406   6.746 -0.2734  0.0447 -0.0405
 1253DPPI   C4A19296   4.359  14.217   7.000 -0.4098  0.1694 -0.2130
 1253DPPI   C1B19297   5.069  14.064   5.923 -0.0652 -0.2421  0.1986
 1253DPPI   C2B19298   5.056  14.038   6.368  0.0821 -0.0651  0.2101
 1253DPPI   C3B19299   4.969  13.994   6.752  0.0694 -0.3353  0.0720
 1253DPPI   C4B19300   4.809  14.109   7.177  0.1949 -0.0997 -0.2821
 1254DPPI    C119301   8.724   1.831   4.742 -0.0070  0.2974 -0.2593
 1254DPPI    C219302   8.793   1.466   4.594 -0.0778  0.1614  0.0361
 1254DPPI    C319303   9.073   1.750   4.563  0.0773  0.0092  0.0262
 1254DPPI   PO419304   8.592   1.772   5.043  0.1402 -0.0051 -0.1329
 1254DPPI   GL119305   8.757   1.660   5.409  0.1794  0.2720 -0.2206
 1254DPPI   GL219306   8.816   2.008   5.524 -0.3051  0.4994  0.1790
 1254DPPI   C1A19307   8.516   1.599   5.800  0.3804 -0.0043  0.2289
 1254DPPI   C2A19308   8.459   1.437   6.155  0.0406  0.1295  0.1933
 1254DPPI   C3A19309   8.386   1.441   6.615  0.0499  0.0012  0.3303
 1254DPPI   C4A19310   8.489   1.362   7.004  0.3465 -0.0424 -0.1418
 1254DPPI   C1B19311   8.659   2.032   5.914 -0.1264 -0.0321 -0.0461
 1254DPPI   C2B19312   8.637   1.968   6.353  0.0573  0.3928  0.1387
 1254DPPI   C3B19313   8.670   1.813   6.765  0.1550  0.0596 -0.1604
 1254DPPI   C4B19314   8.870   1.851   7.168 -0.0304  0.2397  0.0534
 1255DPPI    C119315  10.492   4.368   4.975 -0.0375  0.1924 -0.1757
 1255DPPI    C219316  10.325   4.121   4.708  0.2382 -0.1137 -0.0714
 1255DPPI    C319317  10.723   4.138   4.743  0.2246  0.3598 -0.0852
 1255DPPI   PO419318  10.246   4.360   5.110 -0.0337 -0.0860 -0.0220
 1255DPPI   GL119319  10.215   4.276   5.479  0.1322  0.1514 -0.1833
 1255DPPI   GL219320  10.045   3.964   5.526 -0.2008 -0.2144  0.3266
 1255DPPI   C1A19321  10.147   4.330   5.845  0.1133  0.0544  0.1659
 1255DPPI   C2A19322  10.086   4.224   6.284  0.0166 -0.1190 -0.1848
 1255DPPI   C3A19323   9.969   4.210   6.668  0.1255  0.0167 -0.1169
 1255DPPI   C4A19324   9.667   3.899   6.746  0.0389  0.1683  0.3787
 1255DPPI   C1B19325   9.907   3.828   5.991 -0.1177  0.2765 -0.1176
 1255DPPI   C2B19326  10.102   3.643   6.348 -0.1436  0.3512 -0.0449
 1255DPPI   C3B19327  10.246   3.304   6.603 -0.3986  0.1336 -0.0590
 1255DPPI   C4B19328  10.491   2.922   6.854 -0.0182 -0.1337  0.0957
 1256DPPI    C119329  15.167   9.819   5.064 -0.0145  0.1987 -0.1579
 1256DPPI    C219330  15.522   9.869   5.242 -0.0641 -0.1018  0.0325
 1256DPPI    C319331  15.503   9.804   4.847  0.0929 -0.0859  0.0218
 1256DPPI   PO419332  15.018   9.778   5.288 -0.0948 -0.2526 -0.3409
 1256DPPI   GL119333  14.942   9.562   5.603  0.0828 -0.1653 -0.3889
 1256DPPI   GL219334  14.947   9.222   5.647  0.1609 -0.1201  0.1697
 1256DPPI   C1A19335  14.794   9.450   6.073  0.0488 -0.0760 -0.0166
 1256DPPI   C2A19336  14.702   9.466   6.531  0.1044 -0.2587  0.2276
 1256DPPI   C3A19337  14.871   9.645   6.859 -0.1310  0.1985  0.2062
 1256DPPI   C4A19338  14.801   9.579   7.267  0.2820 -0.2830  0.2137
 1256DPPI   C1B19339  15.302   9.372   5.981 -0.1115 -0.0535  0.0300
 1256DPPI   C2B19340  15.548   9.277   6.350 -0.0083 -0.1533 -0.0973
 1256DPPI   C3B19341  15.552   9.316   6.879 -0.0480 -0.1327  0.0072
 1256DPPI   C4B19342  15.330   9.609   7.159 -0.2290 -0.5152  0.2828
 1257DPPI    C119343   2.725   2.900   5.250 -0.0487 -0.0715  0.1938
 1257DPPI    C219344   3.027   3.013   5.014  0.0142 -0.0936  0.2635
 1257DPPI    C319345   2.688   3.226   5.021  0.0125 -0.0923  0.1543
 1257DPPI   PO419346   2.658   2.632   5.117  0.0663  0.1048  0.1851
 1257DPPI   GL119347   2.387   2.308   5.324 -0.3522  0.2139 -0.1134
 1257DPPI   GL219348   2.311   2.610   5.490 -0.0598  0.3141  0.3426
 1257DPPI   C1A19349   2.507   2.255   5.816  0.0671 -0.3381 -0.1179
 1257DPPI   C2A19350   2.661   1.946   6.086 -0.4330 -0.2793 -0.0731
 1257DPPI   C3A19351   2.711   1.921   6.442  0.1976 -0.2107 -0.0662
 1257DPPI   C4A19352   2.526   1.782   6.854 -0.4551  0.2510 -0.1313
 1257DPPI   C1B19353   2.276   2.764   5.962  0.1389  0.2014 -0.1069
 1257DPPI   C2B19354   2.175   2.697   6.413 -0.0466  0.0438  0.0832
 1257DPPI   C3B19355   2.165   2.788   6.857  0.2566  0.0730  0.1536
 1257DPPI   C4B19356   2.443   2.685   7.157 -0.1313 -0.2426  0.1963
 1258DPPI    C119357  18.847   3.940   4.660 -0.4184  0.1002 -0.3991
 1258DPPI    C219358  19.179   4.107   4.512 -0.2046 -0.0001 -0.0461
 1258DPPI    C319359  18.869   4.337   4.617 -0.0158  0.1539  0.1841
 1258DPPI   PO419360  18.900   3.788   4.926 -0.0393  0.1942 -0.3563
 1258DPPI   GL119361  18.785   3.839   5.378 -0.0909 -0.1113 -0.0163
 1258DPPI   GL219362  18.686   3.567   5.352 -0.1533 -0.0294 -0.1197
 1258DPPI   C1A19363  18.938   3.854   5.764  0.2595 -0.0567  0.3059
 1258DPPI   C2A19364  18.862   3.871   6.211 -0.3713 -0.3549 -0.4102
 1258DPPI   C3A19365  18.780   4.032   6.567 -0.0456 -0.0031  0.3522
 1258DPPI   C4A19366  18.848   4.298   6.820  0.1445 -0.1337 -0.1035
 1258DPPI   C1B19367  18.436   3.456   5.670  0.2998 -0.0374  0.0698
 1258DPPI   C2B19368  18.246   3.302   6.210 -0.1274 -0.1505  0.0819
 1258DPPI   C3B19369  17.849   3.504   6.284 -0.0329  0.2035  0.4042
 1258DPPI   C4B19370  17.523   3.503   6.450  0.0706  0.0313 -0.0632
 1259DPPI    C119371   6.973  13.669   4.554 -0.0150  0.0470  0.1051
 1259DPPI    C219372   6.632  13.483   4.458 -0.0843  0.2235  0.0040
 1259DPPI    C319373   6.980  13.287   4.437 -0.2109 -0.0619  0.4370
 1259DPPI   PO419374   6.875  13.862   4.813 -0.2445  0.2972  0.0598
 1259DPPI   GL119375   6.851  13.868   5.181 -0.2617 -0.1306 -0.1414
 1259DPPI   GL219376   7.233  13.828   5.177  0.1636  0.2463 -0.0096
 1259DPPI   C1A19377   7.016  13.802   5.622  0.1391 -0.0424  0.0512
 1259DPPI   C2A19378   7.092  13.623   6.046 -0.1751 -0.1580 -0.2166
 1259DPPI   C3A19379   7.104  13.652   6.417 -0.3341  0.3382 -0.0754
 1259DPPI   C4A19380   7.187  13.834   6.744  0.0566 -0.2734 -0.0696
 1259DPPI   C1B19381   7.552  13.723   5.509 -0.1006 -0.0121  0.6347
 1259DPPI   C2B19382   7.560  13.609   5.849  0.2639 -0.0500 -0.0795
 1259DPPI   C3B19383   7.519  13.499   6.276  0.0413 -0.0417  0.0632
 1259DPPI   C4B19384   7.714  13.564   6.661  0.1124  0.1089  0.2635
 1260DPPI    C119385  12.543  19.080   4.584  0.1120 -0.1367 -0.1116
 1260DPPI    C219386  12.545  18.875   4.240  0.0086 -0.0135 -0.1865
 1260DPPI    C319387  12.272  19.160   4.301  0.0637  0.0059 -0.0257
 1260DPPI   PO419388  12.581  18.919   4.809 -0.2570  0.0755  0.0051
 1260DPPI   GL119389  12.627  18.436   5.154  0.0721  0.0624 -0.3194
 1260DPPI   GL219390  12.919  18.370   5.375  0.0084 -0.0225  0.2031
 1260DPPI   C1A19391  12.391  18.461   5.545  0.0618  0.0144 -0.0387
 1260DPPI   C2A19392  12.345  18.381   5.940 -0.0145  0.1439  0.0404
 1260DPPI   C3A19393  12.615  18.413   6.261 -0.3142 -0.0367  0.2786
 1260DPPI   C4A19394  12.283  18.502   6.507 -0.0656  0.0522 -0.1578
 1260DPPI   C1B19395  12.843  18.196   5.788 -0.3100  0.1449  0.0329
 1260DPPI   C2B19396  12.954  18.100   6.127  0.0068 -0.0131  0.0780
 1260DPPI   C3B19397  13.119  18.174   6.563  0.0671 -0.2142 -0.3022
 1260DPPI   C4B19398  13.395  17.948   6.873 -0.3015 -0.0913  0.1493
 1261DPPI    C119399  13.545   9.903   5.190  0.0672 -0.1244  0.3676
 1261DPPI    C219400  13.158   9.938   5.285  0.0223  0.0802  0.1218
 1261DPPI    C319401  13.342   9.585   5.324 -0.3305 -0.1552 -0.2650
 1261DPPI   PO419402  13.714  10.163   5.368 -0.0766  0.2980  0.0478
 1261DPPI   GL119403  13.979  10.308   5.627  0.1803 -0.0137 -0.0400
 1261DPPI   GL219404  14.196  10.097   5.565  0.1044 -0.1461  0.2191
 1261DPPI   C1A19405  13.958  10.072   6.010 -0.2325  0.2190  0.1738
 1261DPPI   C2A19406  14.063  10.036   6.419 -0.1161 -0.1385 -0.0434
 1261DPPI   C3A19407  14.027  10.184   6.806  0.0435 -0.0017 -0.3225
 1261DPPI   C4A19408  13.999  10.115   7.245  0.1031 -0.0277  0.1089
 1261DPPI   C1B19409  14.492  10.020   5.849  0.2308 -0.1923 -0.3480
 1261DPPI   C2B19410  14.525   9.909   6.221 -0.1114 -0.1279  0.2780
 1261DPPI   C3B19411  14.484  10.024   6.685 -0.3837  0.1534  0.0635
 1261DPPI   C4B19412  14.536   9.991   7.098 -0.0971  0.0340 -0.1363
 1262DPPI    C119413   3.118   0.768   4.885  0.0830  0.0733 -0.0862
 1262DPPI    C219414   3.120   0.378   4.798  0.1210  0.0428  0.0486
 1262DPPI    C319415   3.392   0.621   4.634 -0.0136  0.0449 -0.1756
 1262DPPI   PO419416   3.089   0.780   5.169 -0.0232  0.0814  0.0748
 1262DPPI   GL119417   2.780   0.947   5.473  0.1872 -0.1645 -0.1935
 1262DPPI   GL219418   3.016   1.241   5.495  0.0311 -0.2502  0.0921
 1262DPPI   C1A19419   2.771   0.805   5.888 -0.2030  0.1858  0.1366
 1262DPPI   C2A19420   2.825   0.545   6.342 -0.0998 -0.0698  0.1273
 1262DPPI   C3A19421   3.013   0.655   6.782  0.1226  0.1478 -0.1146
 1262DPPI   C4A19422   3.037   1.164   6.774 -0.0675  0.2211 -0.0921
 1262DPPI   C1B19423   3.154   1.085   5.994 -0.1865  0.2076  0.1649
 1262DPPI   C2B19424   3.218   0.972   6.336 -0.1187  0.0224  0.3257
 1262DPPI   C3B19425   3.507   0.845   6.727 -0.3377  0.1436 -0.1084
 1262DPPI   C4B19426   3.343   0.860   7.126  0.1413  0.0982 -0.0858
 1263DPPI    C119427   2.760   9.171   4.999  0.2610 -0.1312  0.1192
 1263DPPI    C219428   2.812   8.806   5.155 -0.1344 -0.2360  0.0171
 1263DPPI    C319429   2.822   8.857   4.759  0.0528 -0.1103  0.0363
 1263DPPI   PO419430   2.545   9.227   5.147  0.4382  0.0471 -0.0598
 1263DPPI   GL119431   2.573   9.137   5.566 -0.2750 -0.0061  0.2164
 1263DPPI   GL219432   2.403   8.819   5.475  0.0215 -0.1949 -0.1549
 1263DPPI   C1A19433   2.617   9.185   5.986  0.1356  0.0214  0.1323
 1263DPPI   C2A19434   2.722   9.004   6.350  0.0159  0.1769 -0.1111
 1263DPPI   C3A19435   2.827   9.159   6.753  0.0411  0.0304  0.2382
 1263DPPI   C4A19436   3.019   9.231   7.221  0.2131 -0.2834 -0.0719
 1263DPPI   C1B19437   2.111   8.756   5.851 -0.0213 -0.0821 -0.0663
 1263DPPI   C2B19438   2.316   8.721   6.237 -0.1343 -0.1716 -0.3741
 1263DPPI   C3B19439   2.391   8.785   6.672  0.1696  0.2237  0.1142
 1263DPPI   C4B19440   2.643   8.801   7.094  0.2382 -0.0639 -0.0311
 1264DPPI    C119441   2.742  14.421   4.870 -0.1187  0.2214 -0.3517
 1264DPPI    C219442   2.766  14.038   4.757  0.2802  0.1971 -0.2036
 1264DPPI    C319443   2.519  14.289   4.566 -0.3341 -0.2346 -0.0085
 1264DPPI   PO419444   2.684  14.417   5.181  0.0991 -0.2269  0.1206
 1264DPPI   GL119445   2.760  14.593   5.605  0.2910  0.0425  0.0907
 1264DPPI   GL219446   2.962  14.821   5.473 -0.1152 -0.0390 -0.2909
 1264DPPI   C1A19447   2.476  14.559   5.832  0.0028  0.2259 -0.1159
 1264DPPI   C2A19448   2.654  14.542   6.297 -0.0844 -0.1354 -0.0140
 1264DPPI   C3A19449   2.646  14.479   6.708  0.1135 -0.0916  0.3012
 1264DPPI   C4A19450   2.711  14.552   7.126 -0.3554 -0.2292  0.3707
 1264DPPI   C1B19451   3.129  14.801   5.962 -0.0024 -0.0559 -0.2156
 1264DPPI   C2B19452   3.102  14.771   6.432 -0.2028 -0.2202 -0.1510
 1264DPPI   C3B19453   3.056  14.806   6.899  0.0275 -0.1353 -0.0299
 1264DPPI   C4B19454   3.246  14.671   7.320  0.1826  0.1981  0.0902
 1265DPPI    C119455  10.623   5.770   4.770 -0.1127  0.0780  0.0576
 1265DPPI    C219456  11.005   5.812   4.661 -0.0806  0.1702  0.2040
 1265DPPI    C319457  10.719   5.797   4.383  0.0085  0.3198  0.1031
 1265DPPI   PO419458  10.591   5.912   5.007 -0.0883  0.0086  0.2029
 1265DPPI   GL119459  10.397   5.750   5.408  0.0482  0.2215 -0.3480
 1265DPPI   GL219460  10.023   5.754   5.349 -0.0725  0.0005  0.0543
 1265DPPI   C1A19461  10.474   5.623   5.862 -0.3164 -0.1686  0.3653
 1265DPPI   C2A19462  10.394   5.540   6.260 -0.0273  0.1270  0.0387
 1265DPPI   C3A19463  10.625   5.582   6.569 -0.1295  0.1053 -0.0367
 1265DPPI   C4A19464  10.800   5.410   6.861 -0.1469  0.4123 -0.0280
 1265DPPI   C1B19465   9.899   5.656   5.721  0.1498 -0.2433  0.1355
 1265DPPI   C2B19466   9.896   5.636   6.152  0.1160 -0.0708  0.0791
 1265DPPI   C3B19467   9.991   5.657   6.553 -0.0728  0.2036  0.2150
 1265DPPI   C4B19468  10.172   5.405   6.757  0.2565 -0.2083  0.0140
 1266DPPI    C119469  13.128  16.707   4.602  0.1448 -0.0629 -0.1415
 1266DPPI    C219470  13.325  17.053   4.641  0.1494 -0.0976  0.1694
 1266DPPI    C319471  12.942  17.052   4.525  0.1391  0.0140  0.2022
 1266DPPI   PO419472  13.163  16.598   4.820  0.3958 -0.2399 -0.3041
 1266DPPI   GL119473  12.911  16.596   5.182 -0.0995 -0.2264  0.1638
 1266DPPI   GL219474  13.153  16.800   5.348 -0.2136  0.0052  0.1355
 1266DPPI   C1A19475  12.721  16.760   5.560  0.1316 -0.1404 -0.1125
 1266DPPI   C2A19476  12.708  16.974   5.887  0.0341 -0.0589 -0.0119
 1266DPPI   C3A19477  12.653  17.015   6.293  0.0363  0.0264 -0.1412
 1266DPPI   C4A19478  12.566  17.327   6.567  0.0833 -0.0814 -0.2738
 1266DPPI   C1B19479  13.206  16.952   5.834 -0.0648  0.1246  0.1400
 1266DPPI   C2B19480  13.258  16.927   6.194 -0.2689 -0.3901  0.2158
 1266DPPI   C3B19481  13.019  16.736   6.507 -0.2134 -0.0172 -0.4290
 1266DPPI   C4B19482  13.051  16.682   6.978  0.2246 -0.0678 -0.0475
 1267PYPI    C119483   1.860   4.653   4.742  0.0859  0.0247 -0.0167
 1267PYPI    C219484   1.727   4.953   4.513 -0.0324  0.0473  0.0808
 1267PYPI    C319485   1.667   4.574   4.401 -0.2365  0.0567  0.1551
 1267PYPI   PO419486   2.074   4.778   4.858 -0.1839 -0.2289  0.3316
 1267PYPI   GL119487   2.245   4.679   5.175  0.1675  0.1041  0.3406
 1267PYPI   GL219488   2.487   4.638   5.332  0.0357  0.4534  0.3618
 1267PYPI   C1A19489   2.083   4.774   5.645  0.0661 -0.2030  0.1919
 1267PYPI   C2A19490   2.138   4.685   6.103  0.1600  0.1481 -0.3165
 1267PYPI   D3A19491   2.318   4.586   6.460  0.0070  0.1551 -0.0152
 1267PYPI   C4A19492   2.252   4.431   6.847 -0.0887 -0.1221  0.3041
 1267PYPI   C1B19493   2.525   4.562   5.792  0.0486  0.0410  0.1188
 1267PYPI   C2B19494   2.796   4.495   6.134 -0.1863  0.0396 -0.3327
 1267PYPI   C3B19495   2.775   4.385   6.596  0.1360 -0.1202  0.1424
 1267PYPI   C4B19496   2.710   4.451   7.074  0.0703  0.0913  0.0600
 1268PYPI    C119497   2.458  10.798   4.822  0.0202 -0.0226 -0.0474
 1268PYPI    C219498   2.385  10.961   4.464  0.0145 -0.0171 -0.0438
 1268PYPI    C319499   2.101  10.747   4.649 -0.0757  0.2056  0.0785
 1268PYPI   PO419500   2.576  11.079   5.015  0.0728 -0.1380 -0.1853
 1268PYPI   GL119501   2.797  11.103   5.453  0.2273  0.2187  0.0878
 1268PYPI   GL219502   2.580  11.270   5.555 -0.0359  0.1949 -0.1702
 1268PYPI   C1A19503   3.037  11.028   5.823 -0.1191 -0.2252  0.0817
 1268PYPI   C2A19504   3.096  11.054   6.177 -0.2810 -0.0680 -0.1678
 1268PYPI   D3A19505   3.197  11.230   6.498 -0.1461  0.1810  0.1466
 1268PYPI   C4A19506   3.181  11.678   6.710 -0.2535  0.2551 -0.0064
 1268PYPI   C1B19507   2.622  11.317   6.025  0.0305  0.0459 -0.1530
 1268PYPI   C2B19508   2.686  11.198   6.498  0.1494 -0.1528  0.0811
 1268PYPI   C3B19509   2.698  11.227   6.998  0.0253  0.0562  0.0794
 1268PYPI   C4B19510   2.945  11.267   7.392  0.0103 -0.0710  0.2801
 1269PYPI    C119511  10.318  16.045   4.557 -0.1844 -0.1372 -0.0998
 1269PYPI    C219512  10.656  16.080   4.346 -0.1502 -0.0415 -0.0299
 1269PYPI    C319513  10.303  16.061   4.158 -0.1185  0.0223 -0.0966
 1269PYPI   PO419514  10.473  16.059   4.858  0.1158 -0.1123 -0.0406
 1269PYPI   GL119515  10.623  15.838   5.207  0.1808 -0.2261  0.1264
 1269PYPI   GL219516  10.423  15.612   5.315  0.0950  0.0995 -0.2933
 1269PYPI   C1A19517  10.576  15.924   5.709  0.4538  0.1497  0.1207
 1269PYPI   C2A19518  10.277  15.823   5.954 -0.0161 -0.1412 -0.2661
 1269PYPI   D3A19519  10.243  15.734   6.374  0.0781  0.0956  0.3396
 1269PYPI   C4A19520  10.432  15.903   6.682  0.1264  0.0745 -0.0176
 1269PYPI   C1B19521  10.398  15.431   5.708  0.0028  0.0375 -0.0849
 1269PYPI   C2B19522  10.528  15.379   6.169 -0.1029 -0.1815  0.2783
 1269PYPI   C3B19523  10.535  15.340   6.584 -0.2086 -0.0269 -0.2752
 1269PYPI   C4B19524  10.869  15.503   6.871 -0.2805  0.0633 -0.0098
 1270PYPI    C119525  16.051  12.996   5.199  0.0005  0.0369  0.1144
 1270PYPI    C219526  15.663  12.957   5.292 -0.0622  0.0470 -0.1369
 1270PYPI    C319527  15.838  12.695   5.046  0.0662  0.0988 -0.1020
 1270PYPI   PO419528  16.121  13.170   5.373  0.0060 -0.3955  0.3663
 1270PYPI   GL119529  16.277  13.074   5.756  0.2328 -0.0637  0.0974
 1270PYPI   GL219530  16.546  13.297   5.860  0.0703 -0.3394  0.0470
 1270PYPI   C1A19531  16.181  12.919   6.128 -0.0696 -0.1068  0.0814
 1270PYPI   C2A19532  16.028  12.961   6.553  0.1015 -0.3457  0.1742
 1270PYPI   D3A19533  15.911  12.899   7.057  0.2540 -0.1083  0.2479
 1270PYPI   C4A19534  15.709  12.761   7.344 -0.0945  0.6200 -0.0303
 1270PYPI   C1B19535  16.787  13.487   6.207  0.1781 -0.0144 -0.2044
 1270PYPI   C2B19536  16.582  13.555   6.673  0.3664  0.2192 -0.3704
 1270PYPI   C3B19537  16.483  13.510   7.190  0.2744  0.0587 -0.0400
 1270PYPI   C4B19538  16.533  13.791   7.597 -0.2350  0.1872 -0.2810
 1271PYPI    C119539  16.066   2.253   5.036 -0.1097 -0.1661 -0.1798
 1271PYPI    C219540  16.027   2.316   4.643  0.0084  0.1663 -0.1417
 1271PYPI    C319541  15.827   2.018   4.819 -0.1368  0.0890 -0.4322
 1271PYPI   PO419542  15.982   2.412   5.219  0.3682 -0.2616 -0.1526
 1271PYPI   GL119543  15.871   2.285   5.637  0.4973  0.1895  0.2271
 1271PYPI   GL219544  15.760   2.033   5.797  0.0701  0.0004  0.0076
 1271PYPI   C1A19545  15.872   2.400   6.129 -0.0775 -0.0025  0.0313
 1271PYPI   C2A19546  15.773   2.667   6.407 -0.0238  0.1294 -0.0701
 1271PYPI   D3A19547  15.612   3.072   6.341  0.0252  0.3318 -0.1018
 1271PYPI   C4A19548  15.800   3.295   6.079 -0.1946  0.0866  0.1187
 1271PYPI   C1B19549  15.431   2.257   5.984 -0.0007 -0.1563  0.0943
 1271PYPI   C2B19550  15.398   2.338   6.410  0.2263 -0.0478 -0.2621
 1271PYPI   C3B19551  15.166   2.257   6.765 -0.0429 -0.0487 -0.1955
 1271PYPI   C4B19552  14.884   1.968   6.824 -0.0165 -0.1871 -0.2431
 1272PYPI    C119553  18.688   5.038   5.020  0.0959 -0.0754 -0.1288
 1272PYPI    C219554  18.405   5.007   4.739 -0.2146  0.0020  0.1677
 1272PYPI    C319555  18.688   5.288   4.708 -0.1077 -0.1379 -0.1806
 1272PYPI   PO419556  18.549   5.028   5.193 -0.0854  0.1431  0.1110
 1272PYPI   GL119557  18.366   4.980   5.593  0.0326  0.3078  0.2214
 1272PYPI   GL219558  18.220   4.744   5.630  0.0026 -0.0844 -0.0428
 1272PYPI   C1A19559  18.241   5.357   5.819 -0.0564 -0.1763  0.1604
 1272PYPI   C2A19560  18.146   5.598   6.253  0.1078  0.0623 -0.2386
 1272PYPI   D3A19561  17.982   5.949   6.475 -0.1114 -0.2617 -0.0073
 1272PYPI   C4A19562  18.032   5.806   6.904 -0.1776  0.0970 -0.1060
 1272PYPI   C1B19563  18.376   4.652   6.069  0.3480 -0.3462 -0.0302
 1272PYPI   C2B19564  18.589   4.742   6.531  0.0166 -0.0467 -0.1782
 1272PYPI   C3B19565  18.871   4.972   6.409  0.0216  0.0007 -0.0735
 1272PYPI   C4B19566  19.329   4.910   6.174  0.0580 -0.2115 -0.0156
 1273PYPI    C119567   2.795  12.468   5.032 -0.0469 -0.1105 -0.0496
 1273PYPI    C219568   2.659  12.709   4.743 -0.3290  0.1086  0.2579
 1273PYPI    C319569   2.465  12.686   5.092  0.1081 -0.0117  0.5007
 1273PYPI   PO419570   3.037  12.517   5.120 -0.1718 -0.1828  0.0601
 1273PYPI   GL119571   3.217  12.250   5.454  0.1537  0.0961 -0.0149
 1273PYPI   GL219572   3.006  12.518   5.592 -0.1535  0.3534  0.0397
 1273PYPI   C1A19573   3.096  12.061   5.811 -0.4368  0.3076  0.2324
 1273PYPI   C2A19574   3.232  12.039   6.239 -0.3798  0.3067 -0.2678
 1273PYPI   D3A19575   3.300  12.203   6.713 -0.1113 -0.0693  0.0122
 1273PYPI   C4A19576   3.459  12.016   6.992 -0.1745 -0.4517  0.0465
 1273PYPI   C1B19577   3.219  12.512   5.940  0.0366  0.1523  0.2956
 1273PYPI   C2B19578   3.027  12.451   6.301  0.2203  0.0884 -0.0312
 1273PYPI   C3B19579   2.910  12.558   6.658 -0.1052 -0.2830  0.1237
 1273PYPI   C4B19580   3.020  12.711   7.074  0.0147  0.0958 -0.0900
 1274PYPI    C119581   6.500   2.402   4.589 -0.1637 -0.0737 -0.1394
 1274PYPI    C219582   6.778   2.192   4.392 -0.2814 -0.2676 -0.1010
 1274PYPI    C319583   6.402   2.056   4.415 -0.3919  0.0140 -0.1903
 1274PYPI   PO419584   6.662   2.531   4.821 -0.0120  0.2378  0.0994
 1274PYPI   GL119585   6.758   2.361   5.100 -0.1686 -0.1271 -0.1737
 1274PYPI   GL219586   6.900   2.492   5.436  0.0512 -0.0594 -0.0010
 1274PYPI   C1A19587   6.732   1.994   5.381 -0.3201  0.0376 -0.1065
 1274PYPI   C2A19588   6.707   1.892   5.861 -0.0049 -0.0837 -0.0223
 1274PYPI   D3A19589   6.773   2.165   6.222 -0.3224  0.0263  0.1862
 1274PYPI   C4A19590   6.765   2.060   6.628  0.1732  0.2886 -0.2652
 1274PYPI   C1B19591   6.636   2.409   5.777 -0.2711  0.0432  0.2833
 1274PYPI   C2B19592   6.401   2.530   6.120  0.4264 -0.1004  0.2805
 1274PYPI   C3B19593   6.086   2.872   6.294 -0.4587  0.0439  0.0814
 1274PYPI   C4B19594   5.795   2.931   6.466  0.2934 -0.1852 -0.0936
 1275PYPI    C119595   9.686   4.207   4.600 -0.0242 -0.0579 -0.0746
 1275PYPI    C219596   9.672   3.814   4.526 -0.0862 -0.0918  0.1115
 1275PYPI    C319597   9.586   4.075   4.235  0.1883 -0.2096 -0.0801
 1275PYPI   PO419598   9.588   4.317   4.782 -0.1172 -0.0774  0.0978
 1275PYPI   GL119599   9.701   4.503   5.064 -0.1841 -0.3109  0.0486
 1275PYPI   GL219600   9.921   4.724   5.316 -0.2830  0.2240 -0.4616
 1275PYPI   C1A19601   9.716   4.348   5.544 -0.1753  0.0948 -0.1471
 1275PYPI   C2A19602   9.512   4.205   5.806 -0.0211 -0.2959 -0.1561
 1275PYPI   D3A19603   9.611   4.141   6.249  0.0778 -0.1918 -0.0751
 1275PYPI   C4A19604   9.546   3.698   6.277  0.3192 -0.0868 -0.1905
 1275PYPI   C1B19605   9.891   4.732   5.695 -0.1707 -0.2073  0.0584
 1275PYPI   C2B19606   9.966   4.674   6.161  0.0534  0.1100  0.2764
 1275PYPI   C3B19607  10.004   4.691   6.577 -0.0730  0.2262 -0.0444
 1275PYPI   C4B19608  10.089   4.578   6.957 -0.1133 -0.1256 -0.1370
 1276PYPI    C119609  11.799  17.046   4.598 -0.1807 -0.0516 -0.3323
 1276PYPI    C219610  11.752  16.661   4.696 -0.0479  0.0104 -0.0135
 1276PYPI    C319611  11.854  16.761   4.323  0.1640 -0.2793 -0.0364
 1276PYPI   PO419612  11.955  17.147   4.708 -0.0017 -0.1691  0.1930
 1276PYPI   GL119613  11.907  17.293   5.075 -0.0934 -0.0211 -0.0935
 1276PYPI   GL219614  12.263  17.395   5.207 -0.2361 -0.2107 -0.2593
 1276PYPI   C1A19615  11.925  17.138   5.459  0.1434 -0.1006 -0.1638
 1276PYPI   C2A19616  12.070  16.972   5.847 -0.0600 -0.1790  0.4255
 1276PYPI   D3A19617  12.239  16.563   5.959 -0.2656  0.0654 -0.1557
 1276PYPI   C4A19618  12.490  16.540   6.381 -0.1394  0.3077 -0.1143
 1276PYPI   C1B19619  12.382  17.412   5.602 -0.0778  0.0222  0.1208
 1276PYPI   C2B19620  12.334  17.359   6.050 -0.0692 -0.0926 -0.2540
 1276PYPI   C3B19621  12.111  17.230   6.361 -0.1194  0.0869  0.0593
 1276PYPI   C4B19622  12.180  17.095   6.715  0.0109 -0.0553  0.0450
 1277PYPI    C119623  10.911  10.206   5.234  0.1177  0.1833 -0.1648
 1277PYPI    C219624  10.972   9.961   4.924 -0.1115  0.1247 -0.1655
 1277PYPI    C319625  10.803  10.320   4.866  0.1669  0.2598 -0.1558
 1277PYPI   PO419626  11.173  10.085   5.400 -0.0384  0.1431  0.0379
 1277PYPI   GL119627  11.219   9.744   5.649 -0.1259  0.5801  0.0895
 1277PYPI   GL219628  11.135   9.540   5.713 -0.2052 -0.0708 -0.0273
 1277PYPI   C1A19629  11.093   9.946   6.002  0.1099  0.1196 -0.1394
 1277PYPI   C2A19630  11.113   9.862   6.486 -0.1233 -0.0761 -0.0437
 1277PYPI   D3A19631  11.228   9.929   6.939 -0.2146 -0.0340  0.0232
 1277PYPI   C4A19632  11.598   9.935   7.182 -0.0177 -0.0244  0.2924
 1277PYPI   C1B19633  11.113   9.445   6.149  0.0123  0.0071  0.3405
 1277PYPI   C2B19634  10.999   9.370   6.545  0.0556 -0.1229  0.1302
 1277PYPI   C3B19635  10.913   9.474   6.963  0.1257  0.0201  0.0700
 1277PYPI   C4B19636  10.936   9.420   7.356 -0.2852  0.1626  0.3780
 1278PYPI    C119637   6.990   5.972   4.915  0.0313 -0.3171  0.0414
 1278PYPI    C219638   6.727   5.727   4.739  0.2019 -0.3199 -0.2150
 1278PYPI    C319639   6.949   5.976   4.517 -0.0433  0.1468  0.0478
 1278PYPI   PO419640   6.846   6.068   5.099  0.1931  0.1111  0.2622
 1278PYPI   GL119641   6.868   6.169   5.472 -0.2373 -0.3316 -0.0263
 1278PYPI   GL219642   6.819   6.485   5.582 -0.0977 -0.1646  0.0229
 1278PYPI   C1A19643   7.048   6.069   5.857 -0.0448  0.2559  0.2347
 1278PYPI   C2A19644   6.803   5.944   6.242  0.1070 -0.1679  0.0298
 1278PYPI   D3A19645   6.513   5.923   6.495 -0.1363 -0.1446 -0.0529
 1278PYPI   C4A19646   6.645   6.126   6.759 -0.2124 -0.3262 -0.0183
 1278PYPI   C1B19647   6.614   6.299   5.894  0.0787  0.0924 -0.0036
 1278PYPI   C2B19648   6.656   6.438   6.334 -0.0584  0.1113 -0.0439
 1278PYPI   C3B19649   7.020   6.328   6.525 -0.2229 -0.0460  0.0795
 1278PYPI   C4B19650   7.141   5.973   6.637 -0.1130  0.2440 -0.1190
 1279PYPI    C119651   7.202  10.083   4.968  0.2086 -0.0446 -0.0510
 1279PYPI    C219652   6.957   9.805   5.119 -0.0462  0.2133  0.0182
 1279PYPI    C319653   7.130   9.748   4.762 -0.1588  0.0020 -0.0038
 1279PYPI   PO419654   7.331  10.089   5.276  0.1115 -0.0517 -0.0734
 1279PYPI   GL119655   7.466  10.307   5.553  0.0499 -0.2412  0.3163
 1279PYPI   GL219656   7.671  10.436   5.436  0.0527  0.4091  0.0862
 1279PYPI   C1A19657   7.177  10.427   5.790 -0.1304  0.0467 -0.3897
 1279PYPI   C2A19658   6.938  10.563   6.262 -0.1337 -0.0143  0.1386
 1279PYPI   D3A19659   6.622  10.823   6.540  0.1853 -0.5157 -0.2257
 1279PYPI   C4A19660   6.685  10.850   6.968  0.0220 -0.2285 -0.0690
 1279PYPI   C1B19661   7.907  10.509   5.824 -0.0349 -0.1090  0.1930
 1279PYPI   C2B19662   8.022  10.583   6.231 -0.2990  0.0891 -0.2784
 1279PYPI   C3B19663   8.073  10.711   6.655 -0.1610 -0.3810 -0.3719
 1279PYPI   C4B19664   8.099  10.843   7.018 -0.0596  0.0942 -0.0710
 1280ERGO   ROH19665  14.801  18.184   5.325  0.1818 -0.1442 -0.2522
 1280ERGO    R119666  14.737  18.184   5.600  0.2872  0.0638 -0.2267
 1280ERGO    R219667  14.614  17.971   5.725  0.0250  0.2897 -0.0905
 1280ERGO    R319668  14.827  17.987   5.893  0.1175  0.0540 -0.1800
 1280ERGO    R419669  14.600  17.925   6.067  0.1570  0.1207 -0.1056
 1280ERGO    R519670  14.740  18.091   6.090  0.2828  0.0128 -0.0831
 1280ERGO    C119671  14.792  17.914   6.424  0.3206 -0.1987 -0.1984
 1280ERGO    C219672  14.800  17.689   6.617 -0.4598  0.0101  0.3423
 1281ERGO   ROH19673  10.785   6.098   5.451  0.2490  0.0441  0.1681
 1281ERGO    R119674  10.698   6.046   5.716  0.2236 -0.0616  0.1403
 1281ERGO    R219675  10.855   5.912   5.900  0.2975  0.0565  0.1700
 1281ERGO    R319676  10.808   6.133   6.051  0.0592  0.0034  0.1772
 1281ERGO    R419677  10.865   5.921   6.245  0.1431  0.0324  0.1753
 1281ERGO    R519678  10.690   6.051   6.242  0.0440 -0.1068  0.1171
 1281ERGO    C119679  10.827   6.133   6.589 -0.1706 -0.0315  0.1851
 1281ERGO    C219680  10.899   6.041   6.958  0.0685 -0.1311 -0.1334
 1282ERGO   ROH19681  12.089   2.100   9.049 -0.1028  0.0185 -0.1983
 1282ERGO    R119682  12.279   2.221   8.878 -0.0604  0.0196 -0.1522
 1282ERGO    R219683  12.547   2.243   8.945 -0.0724  0.0262 -0.0833
 1282ERGO    R319684  12.583   2.119   8.706 -0.0157  0.0191 -0.0699
 1282ERGO    R419685  12.771   2.342   8.702  0.1157 -0.1008  0.0370
 1282ERGO    R519686  12.621   2.297   8.551  0.1742 -0.0026 -0.0428
 1282ERGO    C119687  12.936   2.283   8.336  0.2783 -0.1814  0.1194
 1282ERGO    C219688  13.119   2.131   8.099 -0.2083  0.0923  0.1900
 1283ERGO   ROH19689   9.924  15.459   5.216  0.3853 -0.0616  0.0110
 1283ERGO    R119690   9.852  15.404   5.484  0.3376  0.0014  0.0108
 1283ERGO    R219691   9.892  15.584   5.690  0.0728  0.1491 -0.0658
 1283ERGO    R319692   9.626  15.546   5.732  0.0925 -0.1013 -0.1485
 1283ERGO    R419693   9.733  15.624   5.994 -0.1075  0.3213 -0.1803
 1283ERGO    R519694   9.614  15.447   5.950  0.1099  0.1312 -0.0360
 1283ERGO    C119695   9.390  15.612   6.210 -0.1941  0.1864 -0.3245
 1283ERGO    C219696   9.335  15.567   6.484 -0.1464  0.1546  0.2864
 1284ERGO   ROH19697   7.536   9.128   5.432  0.0972  0.0547  0.0227
 1284ERGO    R119698   7.442   9.151   5.697  0.1361  0.0749  0.0350
 1284ERGO    R219699   7.423   8.935   5.868  0.1011  0.0763  0.0338
 1284ERGO    R319700   7.574   9.092   6.031  0.1626  0.0349  0.0172
 1284ERGO    R419701   7.419   8.920   6.213 -0.1287  0.3189  0.0445
 1284ERGO    R519702   7.430   9.139   6.217  0.0936  0.3135 -0.1018
 1284ERGO    C119703   7.558   9.059   6.568 -0.2047  0.4212  0.0350
 1284ERGO    C219704   7.489   8.884   6.833  0.1580 -0.2075 -0.0993
 1285ERGO   ROH19705   0.873   0.671   5.187  0.0774  0.0036  0.1025
 1285ERGO    R119706   0.793   0.547   5.429  0.1037 -0.0519  0.0828
 1285ERGO    R219707   0.974   0.435   5.605  0.1429  0.1059  0.1438
 1285ERGO    R319708   0.853   0.599   5.784 -0.0504  0.0138  0.1001
 1285ERGO    R419709   0.908   0.352   5.934  0.1134  0.0644  0.1278
 1285ERGO    R519710   0.715   0.452   5.915  0.0325 -0.0981  0.0651
 1285ERGO    C119711   0.756   0.459   6.294 -0.0852 -0.0463  0.0773
 1285ERGO    C219712   0.817   0.466   6.664  0.2835 -0.2980 -0.0022
 1286ERGO   ROH19713   2.482   1.326   5.306  0.1243 -0.0832 -0.3728
 1286ERGO    R119714   2.481   1.396   5.580  0.0522 -0.0530 -0.3812
 1286ERGO    R219715   2.534   1.213   5.781 -0.0173 -0.0330 -0.3489
 1286ERGO    R319716   2.722   1.395   5.854 -0.0249 -0.0385 -0.3118
 1286ERGO    R419717   2.657   1.253   6.101 -0.1323  0.0076 -0.3085
 1286ERGO    R519718   2.653   1.468   6.071 -0.1000  0.0055 -0.3479
 1286ERGO    C119719   2.905   1.447   6.356 -0.2065  0.0261 -0.2502
 1286ERGO    C219720   3.130   1.619   6.556  0.3908  0.1544 -0.0625
 1287ERGO   ROH19721  10.401   4.754   5.619 -0.2745  0.0269 -0.1090
 1287ERGO    R119722  10.542   4.640   5.836 -0.1690 -0.0906 -0.2371
 1287ERGO    R219723  10.553   4.758   6.086  0.1191 -0.1211 -0.2288
 1287ERGO    R319724  10.461   4.516   6.169  0.0217 -0.0680 -0.1814
 1287ERGO    R419725  10.560   4.644   6.412  0.1354 -0.0928 -0.2196
 1287ERGO    R519726  10.616   4.447   6.337  0.0239 -0.1256 -0.2096
 1287ERGO    C119727  10.478   4.350   6.679  0.0535 -0.0265 -0.1696
 1287ERGO    C219728  10.597   4.393   7.033 -0.0369  0.0738  0.1946
 1288ERGO   ROH19729  10.476  11.469   5.431 -0.0314 -0.0548  0.1655
 1288ERGO    R119730  10.544  11.461   5.705 -0.0103  0.0127  0.1618
 1288ERGO    R219731  10.637  11.683   5.842 -0.2420  0.1109  0.1606
 1288ERGO    R319732  10.432  11.626   6.010 -0.1733 -0.1132  0.1716
 1288ERGO    R419733  10.619  11.782   6.172 -0.4033  0.2402  0.1150
 1288ERGO    R519734  10.537  11.586   6.221 -0.1233  0.1363  0.1987
 1288ERGO    C119735  10.416  11.785   6.523 -0.4328  0.1052  0.0988
 1288ERGO    C219736  10.246  11.825   6.832  0.4968  0.3063  0.1082
 1289ERGO   ROH19737   9.203  11.766   5.412  0.2562  0.2654 -0.0575
 1289ERGO    R119738   9.107  11.803   5.676  0.1200  0.1643 -0.0920
 1289ERGO    R219739   9.146  11.616   5.875  0.1554  0.1584 -0.1046
 1289ERGO    R319740   9.252  11.828   6.009 -0.0365  0.2077 -0.0261
 1289ERGO    R419741   9.179  11.636   6.219  0.1200  0.0694 -0.0954
 1289ERGO    R519742   9.119  11.846   6.207 -0.0637  0.0225 -0.0256
 1289ERGO    C119743   9.299  11.847   6.544 -0.0809  0.0637 -0.0164
 1289ERGO    C219744   9.368  11.733   6.909 -0.0506 -0.0101 -0.1201
 1290ERGO   ROH19745  15.377   6.103   5.619 -0.0876  0.0411 -0.0853
 1290ERGO    R119746  15.263   6.067   5.876 -0.0103  0.1353 -0.0384
 1290ERGO    R219747  15.416   6.019   6.101  0.0410 -0.0463 -0.1177
 1290ERGO    R319748  15.281   6.234   6.199  0.3075  0.0854 -0.0253
 1290ERGO    R419749  15.323   6.060   6.431  0.0593 -0.0982 -0.1045
 1290ERGO    R519750  15.133   6.141   6.363  0.1652  0.1879 -0.0889
 1290ERGO    C119751  15.142   6.286   6.715  0.3202 -0.0047 -0.0101
 1290ERGO    C219752  15.217   6.475   7.073  0.1381  0.1292 -0.3434
 1291ERGO   ROH19753   7.832  10.034   5.949  0.2095  0.0567 -0.1335
 1291ERGO    R119754   7.761  10.101   6.215  0.1774 -0.0019 -0.1271
 1291ERGO    R219755   7.878   9.980   6.434  0.2098  0.0083 -0.1384
 1291ERGO    R319756   7.930  10.237   6.507  0.1212  0.0163 -0.1027
 1291ERGO    R419757   8.007  10.075   6.740  0.2197  0.0035 -0.1414
 1291ERGO    R519758   7.870  10.246   6.739  0.1527 -0.0484 -0.0914
 1291ERGO    C119759   8.131  10.372   6.987  0.1422  0.0083 -0.1098
 1291ERGO    C219760   8.311  10.410   7.364 -0.3976 -0.1539 -0.4326
 1292ERGO   ROH19761   7.194  13.358   5.401  0.0640 -0.3610 -0.0466
 1292ERGO    R119762   7.182  13.340   5.683  0.0316 -0.2094 -0.0371
 1292ERGO    R219763   7.021  13.158   5.814 -0.1211 -0.0196  0.0475
 1292ERGO    R319764   7.254  13.087   5.935 -0.1817 -0.1408  0.0941
 1292ERGO    R419765   7.047  13.030   6.134 -0.2432  0.0073  0.0683
 1292ERGO    R519766   7.225  13.153   6.163 -0.1773 -0.0945  0.0798
 1292ERGO    C119767   7.280  12.890   6.434 -0.3710 -0.0907  0.1242
 1292ERGO    C219768   7.267  12.748   6.762 -0.1218  0.2781  0.2251
 1293ERGO   ROH19769  15.087  14.391   9.218  0.1372 -0.0291  0.1310
 1293ERGO    R119770  15.078  14.482   8.950  0.1724  0.0446  0.1560
 1293ERGO    R219771  15.306  14.557   8.811  0.2352 -0.2752  0.0893
 1293ERGO    R319772  15.215  14.376   8.631 -0.1162 -0.0970  0.0745
 1293ERGO    R419773  15.296  14.606   8.470  0.2885 -0.2051  0.0964
 1293ERGO    R519774  15.102  14.507   8.465  0.0968  0.1388  0.1038
 1293ERGO    C119775  15.205  14.464   8.101 -0.0103  0.0029  0.0866
 1293ERGO    C219776  15.281  14.568   7.702  0.0393  0.2057 -0.3353
 1294ERGO   ROH19777  16.785   4.991   5.566 -0.3555  0.0201  0.0867
 1294ERGO    R119778  16.762   4.952   5.845 -0.2190 -0.1087  0.0810
 1294ERGO    R219779  16.888   4.746   5.978  0.0812  0.0010 -0.0333
 1294ERGO    R319780  16.987   4.948   6.132 -0.1201  0.0698  0.0093
 1294ERGO    R419781  16.989   4.711   6.307  0.1977  0.0016 -0.0680
 1294ERGO    R519782  16.896   4.905   6.350 -0.0244 -0.1149  0.0180
 1294ERGO    C119783  17.139   4.880   6.643  0.0766  0.0665 -0.0483
 1294ERGO    C219784  17.167   4.763   6.902  0.1448 -0.1659 -0.2914
 1295ERGO   ROH19785   2.979  14.622   9.465  0.0513 -0.0187 -0.1104
 1295ERGO    R119786   3.158  14.766   9.299  0.0266  0.0008 -0.1202
 1295ERGO    R219787   3.263  14.660   9.067  0.0345  0.0080 -0.1192
 1295ERGO    R319788   3.162  14.886   8.956  0.0003 -0.0095 -0.1242
 1295ERGO    R419789   3.201  14.704   8.730 -0.0008 -0.0203 -0.1166
 1295ERGO    R519790   3.277  14.907   8.747 -0.0206 -0.0106 -0.1363
 1295ERGO    C119791   3.069  14.942   8.429 -0.0535 -0.0533 -0.1196
 1295ERGO    C219792   3.118  15.012   8.114  0.1809  0.0131  0.0599
 1296ERGO   ROH19793  11.340   9.469   9.337  0.3197  0.1688  0.0160
 1296ERGO    R119794  11.347   9.321   9.096  0.4088  0.1098  0.0544
 1296ERGO    R219795  11.166   9.362   8.891  0.2183 -0.2313  0.1487
 1296ERGO    R319796  11.391   9.395   8.742  0.0837  0.0831  0.0052
 1296ERGO    R419797  11.173   9.377   8.546 -0.0018 -0.4511  0.1314
 1296ERGO    R519798  11.355   9.257   8.550  0.2286 -0.1189  0.1190
 1296ERGO    C119799  11.389   9.416   8.205 -0.2561 -0.2838 -0.0132
 1296ERGO    C219800  11.587   9.418   7.846  0.0576 -0.2513 -0.2467
 1297ERGO   ROH19801  18.093  16.666   5.437  0.0756 -0.0126 -0.0412
 1297ERGO    R119802  18.062  16.636   5.717 -0.0260 -0.0932 -0.0603
 1297ERGO    R219803  18.272  16.666   5.895 -0.0788 -0.1885  0.0235
 1297ERGO    R319804  18.104  16.844   6.012 -0.0852 -0.1914  0.0174
 1297ERGO    R419805  18.303  16.783   6.218 -0.1355 -0.2382  0.0467
 1297ERGO    R519806  18.086  16.770   6.239 -0.1381 -0.2213  0.0015
 1297ERGO    C119807  18.163  17.019   6.517 -0.1743 -0.2701  0.0545
 1297ERGO    C219808  18.338  17.264   6.587  0.1210  0.0113 -0.0727
 1298ERGO   ROH19809   6.597   0.062   5.441 -0.1680  0.2200  0.0947
 1298ERGO    R119810   6.485  -0.084   5.655 -0.1161  0.1486  0.0730
 1298ERGO    R219811   6.624  -0.138   5.888 -0.1036  0.1796  0.0713
 1298ERGO    R319812   6.408  -0.023   6.006 -0.1567  0.0755  0.0774
 1298ERGO    R419813   6.504  -0.219   6.201  0.0838  0.2775  0.1709
 1298ERGO    R519814   6.301  -0.203   6.122  0.0371  0.0573  0.2342
 1298ERGO    C119815   6.230  -0.159   6.495  0.1431  0.2368  0.2347
 1298ERGO    C219816   6.346  -0.316   6.778 -0.1005 -0.3972  0.3888
 1299ERGO   ROH19817  10.424   2.984   5.589 -0.0636 -0.0397  0.0303
 1299ERGO    R119818  10.540   3.034   5.843 -0.0471 -0.1655  0.0482
 1299ERGO    R219819  10.435   2.932   6.077 -0.0396 -0.2706  0.0057
 1299ERGO    R319820  10.687   2.836   6.111 -0.0426 -0.3000 -0.0526
 1299ERGO    R419821  10.563   2.815   6.376 -0.0332 -0.4302 -0.0583
 1299ERGO    R519822  10.752   2.914   6.328 -0.0306 -0.4143 -0.0146
 1299ERGO    C119823  10.875   2.657   6.581 -0.0326 -0.5508 -0.1503
 1299ERGO    C219824  11.063   2.594   6.899 -0.0859  0.0403  0.2718
 1300ERGO   ROH19825  16.996   2.656   9.226  0.1697 -0.0831  0.1242
 1300ERGO    R119826  16.996   2.743   8.957  0.1197 -0.1010  0.1191
 1300ERGO    R219827  16.943   3.004   8.885  0.0782 -0.1144  0.1112
 1300ERGO    R319828  17.182   2.983   8.757  0.0615 -0.0922  0.0742
 1300ERGO    R419829  17.009   3.130   8.570  0.1188  0.2002  0.2406
 1300ERGO    R519830  17.123   2.948   8.527  0.0281  0.1867  0.0355
 1300ERGO    C119831  17.272   3.183   8.266  0.1268  0.4041  0.2812
 1300ERGO    C219832  17.255   3.194   7.910  0.3228 -0.3764  0.0251
 1301ERGO   ROH19833   6.533  14.817   5.673  0.0641 -0.1321 -0.0889
 1301ERGO    R119834   6.595  14.918   5.930  0.0371  0.1004 -0.1699
 1301ERGO    R219835   6.467  15.137   6.040 -0.2129 -0.0000 -0.2446
 1301ERGO    R319836   6.419  14.965   6.245  0.0969  0.0469 -0.1296
 1301ERGO    R419837   6.339  15.228   6.347  0.0289  0.0271 -0.1508
 1301ERGO    R519838   6.478  15.090   6.441  0.2079  0.1546 -0.2335
 1301ERGO    C119839   6.219  15.120   6.720  0.4605  0.0870  0.0119
 1301ERGO    C219840   5.886  15.190   6.910  0.2274 -0.1204  0.2633
 1302ERGO   ROH19841   2.180  12.900   9.481 -0.3767  0.1139  0.1143
 1302ERGO    R119842   2.178  12.828   9.207 -0.2144 -0.0696  0.1596
 1302ERGO    R219843   2.021  12.623   9.108 -0.3562  0.0403  0.1671
 1302ERGO    R319844   1.932  12.816   8.939  0.0060  0.0253 -0.0530
 1302ERGO    R419845   1.879  12.564   8.799 -0.3241 -0.0463  0.1680
 1302ERGO    R519846   1.989  12.736   8.721 -0.0240 -0.2794  0.0423
 1302ERGO    C119847   1.712  12.711   8.460  0.0346 -0.1108 -0.0381
 1302ERGO    C219848   1.492  12.739   8.216 -0.0009  0.3736 -0.0480
 1303ERGO   ROH19849   0.509   7.456   5.894  0.0999 -0.0172 -0.1002
 1303ERGO    R119850   0.545   7.449   6.175  0.0211  0.0072 -0.0893
 1303ERGO    R219851   0.519   7.217   6.322 -0.0284  0.0210 -0.0749
 1303ERGO    R319852   0.768   7.282   6.409 -0.0499  0.0207 -0.0122
 1303ERGO    R419853   0.651   7.129   6.629 -0.0448 -0.1137 -0.1055
 1303ERGO    R519854   0.740   7.327   6.642 -0.0823 -0.1053  0.0079
 1303ERGO    C119855   0.961   7.140   6.890 -0.0746 -0.1924 -0.0644
 1303ERGO    C219856   1.159   7.004   7.156  0.1531  0.2032  0.1298
 1304ERGO   ROH19857  18.452   7.379   5.955  0.0632 -0.1599 -0.0429
 1304ERGO    R119858  18.311   7.386   6.201  0.0257 -0.1683 -0.0645
 1304ERGO    R219859  18.335   7.189   6.392  0.1621 -0.0677  0.0234
 1304ERGO    R319860  18.396   7.399   6.554 -0.0278  0.0531 -0.0576
 1304ERGO    R419861  18.286   7.195   6.734  0.0861  0.0524  0.0111
 1304ERGO    R519862  18.219   7.402   6.716 -0.0648 -0.0039 -0.0965
 1304ERGO    C119863  18.314   7.396   7.086 -0.1362  0.2358 -0.0721
 1304ERGO    C219864  18.499   7.239   7.371 -0.0106 -0.2149  0.1021
 1305ERGO   ROH19865   8.129   5.304   5.398 -0.1336 -0.0689 -0.0078
 1305ERGO    R119866   8.167   5.341   5.676  0.0913  0.0073 -0.0488
 1305ERGO    R219867   7.957   5.380   5.851  0.2441  0.1690  0.0896
 1305ERGO    R319868   8.070   5.170   5.982  0.2359  0.1609  0.0881
 1305ERGO    R419869   7.817   5.218   6.123  0.1534  0.0834 -0.0049
 1305ERGO    R519870   8.016   5.207   6.212  0.1269  0.1049  0.0790
 1305ERGO    C119871   7.842   4.927   6.404  0.0929  0.0258 -0.0615
 1305ERGO    C219872   7.783   4.806   6.825  0.3683 -0.3259 -0.0394
 1306ERGO   ROH19873   2.820   5.474   5.115  0.2291  0.2911 -0.1472
 1306ERGO    R119874   2.844   5.589   5.373  0.1420  0.1459 -0.0737
 1306ERGO    R219875   2.635   5.593   5.554  0.1029 -0.0200 -0.1148
 1306ERGO    R319876   2.816   5.473   5.717  0.1015 -0.0650 -0.1460
 1306ERGO    R419877   2.615   5.588   5.899  0.0174 -0.2395 -0.1209
 1306ERGO    R519878   2.831   5.620   5.906  0.0077 -0.1748 -0.0494
 1306ERGO    C119879   2.774   5.473   6.253 -0.0337 -0.4096 -0.1538
 1306ERGO    C219880   2.645   5.636   6.520  0.1587  0.2920  0.1378
 1307ERGO   ROH19881  16.539  13.378   9.511 -0.0048 -0.0952  0.0131
 1307ERGO    R119882  16.492  13.356   9.233 -0.0413  0.0221  0.0095
 1307ERGO    R219883  16.289  13.494   9.104  0.0129  0.1660  0.0774
 1307ERGO    R319884  16.493  13.581   8.947  0.0425  0.1218  0.0853
 1307ERGO    R419885  16.258  13.583   8.772  0.0120  0.3160  0.1170
 1307ERGO    R519886  16.448  13.485   8.733 -0.0406  0.2276  0.0510
 1307ERGO    C119887  16.432  13.717   8.431  0.0391  0.3618  0.1475
 1307ERGO    C219888  16.605  13.677   8.082  0.0983  0.2106 -0.2303
 1308ERGO   ROH19889  10.110   5.015   9.434  0.2979 -0.0353 -0.0041
 1308ERGO    R119890  10.109   4.856   9.200  0.5176 -0.0773  0.0222
 1308ERGO    R219891   9.970   4.926   8.973  0.0839 -0.4930  0.1465
 1308ERGO    R319892  10.212   4.894   8.853  0.0753  0.1723 -0.0891
 1308ERGO    R419893  10.016   4.830   8.644  0.0060 -0.7539  0.2090
 1308ERGO    R519894  10.183   4.705   8.709  0.5269 -0.1298  0.1881
 1308ERGO    C119895  10.271   4.744   8.340 -0.0476 -0.2812  0.0242
 1308ERGO    C219896  10.250   4.766   7.981 -0.2204  0.4514 -0.0704
 1309ERGO   ROH19897  15.933  10.062   5.786 -0.0283 -0.0664 -0.0217
 1309ERGO    R119898  16.027  10.171   6.029  0.0247 -0.0519 -0.0490
 1309ERGO    R219899  15.865  10.200   6.251  0.0377  0.0895 -0.0608
 1309ERGO    R319900  16.061  10.057   6.374 -0.0382  0.0205 -0.0174
 1309ERGO    R419901  15.940  10.216   6.588  0.1743  0.3133 -0.0998
 1309ERGO    R519902  16.152  10.208   6.536  0.1532  0.0866 -0.1771
 1309ERGO    C119903  16.169  10.091   6.899  0.1826  0.3788 -0.0817
 1309ERGO    C219904  16.216  10.191   7.334 -0.0185 -0.2668 -0.1009
 1310ERGO   ROH19905   0.812   2.766   5.375 -0.2078 -0.1426  0.0403
 1310ERGO    R119906   0.760   2.595   5.594 -0.2605 -0.0638  0.0893
 1310ERGO    R219907   0.933   2.569   5.807 -0.2365 -0.1077  0.0631
 1310ERGO    R319908   0.713   2.632   5.954 -0.1763  0.0441  0.0899
 1310ERGO    R419909   0.904   2.526   6.149 -0.1810  0.0190  0.0845
 1310ERGO    R519910   0.699   2.459   6.118 -0.2209  0.1034  0.1511
 1310ERGO    C119911   0.681   2.560   6.485 -0.0921  0.2352  0.1222
 1310ERGO    C219912   0.746   2.475   6.868  0.1014  0.0727  0.0009
 1311ERGO   ROH19913   8.527  18.169   9.293  0.0013 -0.1887  0.1191
 1311ERGO    R119914   8.509  18.123   9.014  0.0688 -0.0322  0.0876
 1311ERGO    R219915   8.630  17.907   8.891 -0.0364 -0.0546  0.0192
 1311ERGO    R319916   8.379  17.862   8.797 -0.0368  0.1685 -0.0936
 1311ERGO    R419917   8.555  17.739   8.598 -0.0605 -0.0593  0.0281
 1311ERGO    R519918   8.398  17.886   8.560  0.1031  0.0857 -0.0896
 1311ERGO    C119919   8.276  17.599   8.339 -0.0749  0.1476 -0.0727
 1311ERGO    C219920   8.132  17.357   8.270 -0.2620 -0.2224  0.1314
 1312ERGO   ROH19921  11.128  16.801   8.967  0.0149  0.0894 -0.0546
 1312ERGO    R119922  11.282  16.724   8.742  0.0065  0.1524 -0.0817
 1312ERGO    R219923  11.224  16.500   8.592  0.1362  0.0670 -0.0031
 1312ERGO    R319924  11.225  16.677   8.386 -0.0672  0.0143 -0.0532
 1312ERGO    R419925  11.255  16.415   8.258  0.0318 -0.0072  0.0051
 1312ERGO    R519926  11.385  16.588   8.231 -0.0829  0.0671 -0.1026
 1312ERGO    C119927  11.274  16.533   7.871 -0.2198 -0.0999 -0.0371
 1312ERGO    C219928  11.264  16.751   7.594 -0.4052  0.0177 -0.1537
 1313ERGO   ROH19929  14.571   8.904   5.644  0.3431  0.1553 -0.1121
 1313ERGO    R119930  14.552   9.018   5.902  0.0887  0.0732 -0.0933
 1313ERGO    R219931  14.317   9.017   6.047  0.0527 -0.3553 -0.1495
 1313ERGO    R319932  14.473   8.901   6.237  0.2077 -0.1293 -0.1326
 1313ERGO    R419933  14.249   9.018   6.386 -0.0473 -0.5324 -0.1669
 1313ERGO    R519934  14.462   9.051   6.424 -0.1015 -0.1742 -0.1052
 1313ERGO    C119935  14.356   8.910   6.762  0.0400 -0.4234 -0.1612
 1313ERGO    C219936  14.529   9.015   7.115 -0.0128  0.0992  0.1649
 1314ERGO   ROH19937  14.909  11.916   5.860  0.0329  0.1133 -0.0205
 1314ERGO    R119938  14.978  11.793   6.106  0.0295  0.1817  0.0148
 1314ERGO    R219939  15.114  11.927   6.306 -0.0504  0.2639  0.0146
 1314ERGO    R319940  14.903  11.846   6.458 -0.0513  0.2227 -0.0082
 1314ERGO    R419941  15.077  11.992   6.643  0.0329  0.0245  0.0716
 1314ERGO    R519942  15.001  11.789   6.669 -0.0325  0.0303 -0.0665
 1314ERGO    C119943  14.859  11.954   6.983  0.0805 -0.1536  0.0835
 1314ERGO    C219944  14.816  12.034   7.312 -0.0719 -0.0492  0.1780
 1315ERGO   ROH19945  12.755  16.152   9.357 -0.0853  0.0678 -0.1356
 1315ERGO    R119946  12.698  16.111   9.082  0.0157 -0.0544 -0.1402
 1315ERGO    R219947  12.888  16.022   8.902  0.1108 -0.0448 -0.0519
 1315ERGO    R319948  12.702  15.831   8.850  0.2020 -0.1385 -0.0356
 1315ERGO    R419949  12.841  15.869   8.596  0.0762  0.0101 -0.0740
 1315ERGO    R519950  12.627  15.880   8.628  0.0866 -0.1243  0.0103
 1315ERGO    C119951  12.639  15.600   8.369  0.1416 -0.0457 -0.0714
 1315ERGO    C219952  12.664  15.373   8.112  0.0525 -0.3727 -0.3710
 1316ERGO   ROH19953  13.318  10.859   5.918 -0.0797  0.0540 -0.0249
 1316ERGO    R119954  13.246  10.797   6.185 -0.0586  0.0577 -0.0166
 1316ERGO    R219955  13.377  10.605   6.333 -0.1897 -0.1096 -0.0968
 1316ERGO    R319956  13.406  10.808   6.511  0.0576 -0.1700 -0.0664
 1316ERGO    R419957  13.418  10.565   6.674 -0.3498 -0.1922 -0.0876
 1316ERGO    R519958  13.286  10.735   6.705 -0.1041 -0.0047 -0.1107
 1316ERGO    C119959  13.469  10.732   7.040 -0.2109 -0.2971 -0.0538
 1316ERGO    C219960  13.569  10.512   7.230  0.1253  0.0302 -0.2772
 1317ERGO   ROH19961   5.307  12.438   5.428 -0.0170 -0.1422 -0.0453
 1317ERGO    R119962   5.209  12.527   5.679 -0.0428 -0.0276 -0.0956
 1317ERGO    R219963   4.978  12.426   5.792 -0.0237 -0.0152 -0.0483
 1317ERGO    R319964   5.141  12.378   6.004 -0.0205  0.1341 -0.0159
 1317ERGO    R419965   4.871  12.369   6.116 -0.0411 -0.1542 -0.0780
 1317ERGO    R519966   5.036  12.491   6.187 -0.1804  0.0118 -0.0293
 1317ERGO    C119967   4.962  12.290   6.503 -0.0481 -0.0950 -0.0649
 1317ERGO    C219968   4.840  12.093   6.836 -0.0548  0.6254 -0.1154
 1318ERGO   ROH19969  17.939   1.651   9.265  0.1902  0.3167  0.0327
 1318ERGO    R119970  18.110   1.666   9.040  0.1830  0.0103  0.0017
 1318ERGO    R219971  18.177   1.445   8.889 -0.1681 -0.1314  0.0397
 1318ERGO    R319972  18.084   1.597   8.683  0.0237 -0.0360  0.0222
 1318ERGO    R419973  18.195   1.358   8.555 -0.2485 -0.1754  0.0469
 1318ERGO    R519974  18.244   1.565   8.508 -0.0020 -0.2365  0.0351
 1318ERGO    C119975  18.118   1.450   8.167 -0.1154 -0.1114  0.0349
 1318ERGO    C219976  18.257   1.350   7.908 -0.1757  0.2327  0.1423
 1319ERGO   ROH19977  16.444   0.102   9.214  0.1274 -0.2038  0.1014
 1319ERGO    R119978  16.291   0.081   8.977  0.1791 -0.2856  0.0766
 1319ERGO    R219979  16.171   0.299   8.857  0.0150 -0.3668  0.1083
 1319ERGO    R319980  16.308   0.214   8.638  0.1118 -0.2051  0.1017
 1319ERGO    R419981  16.123   0.416   8.535  0.0164 -0.2454  0.1507
 1319ERGO    R519982  16.145   0.212   8.463  0.1401 -0.2135  0.0659
 1319ERGO    C119983  16.223   0.404   8.143  0.1080 -0.0228  0.1691
 1319ERGO    C219984  16.139   0.277   7.819 -0.1346 -0.0201  0.1753
 1320ERGO   ROH19985   9.429   4.706   5.488  0.1346  0.0065 -0.0656
 1320ERGO    R119986   9.370   4.767   5.758  0.1937  0.0769 -0.0684
 1320ERGO    R219987   9.253   4.586   5.931 -0.0304  0.2121 -0.0724
 1320ERGO    R319988   9.469   4.643   6.086  0.0326 -0.0410 -0.0637
 1320ERGO    R419989   9.255   4.579   6.276 -0.1101  0.4027 -0.0674
 1320ERGO    R519990   9.378   4.760   6.274  0.1775  0.2113 -0.1465
 1320ERGO    C119991   9.459   4.629   6.623 -0.0974  0.2761 -0.0563
 1320ERGO    C219992   9.488   4.363   6.844  0.2383 -0.0466 -0.0444
 1321ERGO   ROH19993   0.155  14.637   9.377 -0.2360  0.1219  0.0109
 1321ERGO    R119994   0.315  14.635   9.144 -0.1811  0.2932  0.0463
 1321ERGO    R219995   0.285  14.447   8.943  0.2099  0.1237  0.1416
 1321ERGO    R319996   0.260  14.667   8.785 -0.1662 -0.0028  0.0144
 1321ERGO    R419997   0.346  14.454   8.603  0.6143  0.1001  0.2091
 1321ERGO    R519998   0.440  14.648   8.629  0.0915  0.3741  0.2444
 1321ERGO    C119999   0.358  14.664   8.257  0.4966 -0.0325  0.1290
 1321ERGO    C220000   0.291  14.784   7.993 -0.0944 -0.1056  0.0381
 1322ERGO   ROH20001   4.499  18.241   9.189 -0.0566  0.0389 -0.1072
 1322ERGO    R120002   4.673  18.161   8.980  0.0757  0.1385 -0.0368
 1322ERGO    R220003   4.581  18.061   8.740  0.2332 -0.1147  0.0029
 1322ERGO    R320004   4.735  18.259   8.635  0.0003  0.0245 -0.0825
 1322ERGO    R420005   4.759  18.037   8.444  0.3268 -0.0571  0.0543
 1322ERGO    R520006   4.923  18.144   8.541  0.1699  0.2121  0.0244
 1322ERGO    C120007   5.007  18.209   8.174  0.1626  0.1070  0.0040
 1322ERGO    C220008   5.048  18.314   7.896 -0.2586  0.0831 -0.4061
 1323ERGO   ROH20009   6.363   5.978   5.591  0.0625  0.0507  0.0482
 1323ERGO    R120010   6.188   6.033   5.806  0.0947  0.1626  0.0475
 1323ERGO    R220011   6.079   5.834   5.964 -0.1895  0.2113 -0.0721
 1323ERGO    R320012   6.186   5.981   6.166 -0.0275 -0.0290  0.0191
 1323ERGO    R420013   6.013   5.785   6.300 -0.1720  0.0343 -0.0943
 1323ERGO    R520014   6.008   6.001   6.326  0.0230  0.0164  0.0634
 1323ERGO    C120015   6.076   5.893   6.685 -0.0097 -0.2944 -0.0217
 1323ERGO    C220016   6.274   5.802   7.058  0.4116  0.2076 -0.1133
 1324ERGO   ROH20017   1.244   2.574   9.550 -0.0536  0.1712  0.1401
 1324ERGO    R120018   1.124   2.611   9.296 -0.0758  0.1498  0.1478
 1324ERGO    R220019   1.237   2.768   9.099 -0.1121  0.1640  0.1386
 1324ERGO    R320020   1.210   2.542   8.950 -0.0885  0.1578  0.1431
 1324ERGO    R420021   1.299   2.748   8.760  0.2027  0.0845  0.1972
 1324ERGO    R520022   1.123   2.620   8.740  0.1521  0.1757  0.0469
 1324ERGO    C120023   1.310   2.525   8.422  0.4081  0.0326  0.2355
 1324ERGO    C220024   1.369   2.702   8.204 -0.0925 -0.1551 -0.1393
 1325ERGO   ROH20025  11.321  18.695   5.204  0.0378 -0.0756  0.0605
 1325ERGO    R120026  11.307  18.763   5.479  0.2381  0.0669  0.0384
 1325ERGO    R220027  11.211  18.588   5.671 -0.1823  0.3638  0.1217
 1325ERGO    R320028  11.451  18.638   5.789 -0.0257 -0.1843  0.0619
 1325ERGO    R420029  11.279  18.546   6.007 -0.1943  0.2549  0.1099
 1325ERGO    R520030  11.394  18.730   6.003  0.2452 -0.0151  0.0601
 1325ERGO    C120031  11.542  18.568   6.314 -0.0543 -0.3231  0.0469
 1325ERGO    C220032  11.790  18.511   6.614  0.2385  0.0412 -0.3191
 1326ERGO   ROH20033   6.055  10.040   9.235  0.2209  0.3016  0.0196
 1326ERGO    R120034   6.235  10.039   9.016  0.1015  0.2053 -0.0800
 1326ERGO    R220035   6.232   9.842   8.822  0.0295  0.0883  0.0362
 1326ERGO    R320036   6.210  10.054   8.654 -0.1016 -0.0141 -0.0778
 1326ERGO    R420037   6.194   9.820   8.479  0.0629 -0.1165  0.0449
 1326ERGO    R520038   6.331   9.988   8.458 -0.0472 -0.0374 -0.0356
 1326ERGO    C120039   6.151  10.006   8.122 -0.0406 -0.3319 -0.0571
 1326ERGO    C220040   5.911  10.056   7.857 -0.1795  0.1328 -0.4808
 1327ERGO   ROH20041   3.944  13.411   9.427  0.1454  0.0736 -0.1088
 1327ERGO    R120042   3.922  13.397   9.145  0.0376  0.0191 -0.0993
 1327ERGO    R220043   3.939  13.159   9.006 -0.0545 -0.0177 -0.0609
 1327ERGO    R320044   3.699  13.239   8.905 -0.0802  0.0047  0.0207
 1327ERGO    R420045   3.820  13.080   8.691 -0.0739  0.2003 -0.1091
 1327ERGO    R520046   3.743  13.283   8.674 -0.1189  0.1907  0.0524
 1327ERGO    C120047   3.526  13.109   8.413 -0.1093  0.3483 -0.0605
 1327ERGO    C220048   3.329  13.136   8.108  0.0761 -0.2038  0.1017
 1328ERGO   ROH20049  15.323  13.584   5.741  0.0678  0.0267 -0.0514
 1328ERGO    R120050  15.402  13.623   6.010 -0.0455  0.2508 -0.0481
 1328ERGO    R220051  15.266  13.792   6.182 -0.4261  0.0143 -0.1037
 1328ERGO    R320052  15.254  13.570   6.338  0.0135  0.0140 -0.0579
 1328ERGO    R420053  15.219  13.793   6.524 -0.4675 -0.0082 -0.1092
 1328ERGO    R520054  15.366  13.633   6.540 -0.1331  0.2899 -0.0585
 1328ERGO    C120055  15.181  13.586   6.871 -0.0788 -0.0217 -0.0694
 1328ERGO    C220056  15.180  13.461   7.281  0.3729  0.2836 -0.1314
 1329ERGO   ROH20057  15.476   7.987   9.467 -0.1311 -0.0643 -0.0335
 1329ERGO    R120058  15.514   7.959   9.188 -0.2722 -0.1036 -0.0487
 1329ERGO    R220059  15.742   7.849   9.079 -0.1687  0.2104 -0.1563
 1329ERGO    R320060  15.565   7.685   8.954 -0.0027 -0.1126  0.0162
 1329ERGO    R420061  15.789   7.708   8.767 -0.2402  0.3544 -0.2339
 1329ERGO    R520062  15.579   7.747   8.723 -0.3755 -0.0372  0.0052
 1329ERGO    C120063  15.650   7.472   8.468 -0.1260  0.1352 -0.1170
 1329ERGO    C220064  15.699   7.282   8.207  0.1889  0.0143  0.0009
 1330ERGO   ROH20065   3.239   6.039   9.256 -0.1400 -0.0255 -0.0097
 1330ERGO    R120066   3.047   6.011   9.049 -0.1422  0.2518 -0.0490
 1330ERGO    R220067   3.043   6.176   8.828  0.2591  0.1487 -0.1454
 1330ERGO    R320068   3.051   5.940   8.692 -0.1774  0.0466 -0.0091
 1330ERGO    R420069   2.976   6.139   8.491  0.1691  0.0680 -0.1186
 1330ERGO    R520070   2.869   5.955   8.537 -0.1653  0.2832 -0.0023
 1330ERGO    C120071   2.945   5.896   8.167 -0.2930 -0.0750  0.0250
 1330ERGO    C220072   2.851   5.708   7.918 -0.1611  0.0108 -0.0222
 1331ERGO   ROH20073   2.715  16.355   5.654  0.1058  0.0572  0.0782
 1331ERGO    R120074   2.837  16.201   5.858  0.0077  0.0360  0.1229
 1331ERGO    R220075   2.796  16.250   6.127 -0.0958  0.0306  0.1123
 1331ERGO    R320076   2.726  15.987   6.131 -0.1279  0.0390  0.0695
 1331ERGO    R420077   2.770  16.057   6.412  0.2402 -0.1135  0.0491
 1331ERGO    R520078   2.863  15.893   6.303  0.0777 -0.0706 -0.1517
 1331ERGO    C120079   2.690  15.698   6.582  0.4057 -0.1891 -0.0279
 1331ERGO    C220080   2.614  15.598   6.839 -0.2227 -0.0732 -0.0024
 1332ERGO   ROH20081  17.552   1.825   9.100  0.0185  0.1762  0.0699
 1332ERGO    R120082  17.683   1.748   8.861 -0.0566  0.2218  0.0134
 1332ERGO    R220083  17.601   1.533   8.708  0.0085  0.1354  0.0990
 1332ERGO    R320084  17.595   1.718   8.509 -0.2264  0.0952  0.0655
 1332ERGO    R420085  17.685   1.472   8.379  0.2146  0.2118  0.1361
 1332ERGO    R520086  17.785   1.665   8.373 -0.0932  0.3760  0.1359
 1332ERGO    C120087  17.729   1.610   8.000  0.1143  0.2186  0.1262
 1332ERGO    C220088  17.857   1.737   7.667  0.1331 -0.1196 -0.0633
 1333ERGO   ROH20089   5.610   4.131   5.494 -0.1642  0.0274  0.0837
 1333ERGO    R120090   5.522   4.278   5.719 -0.1889 -0.0058  0.0960
 1333ERGO    R220091   5.403   4.159   5.938 -0.0533 -0.0599  0.1421
 1333ERGO    R320092   5.599   4.289   6.074 -0.0912  0.0717  0.0728
 1333ERGO    R420093   5.394   4.231   6.276  0.0298 -0.0877  0.1503
 1333ERGO    R520094   5.481   4.425   6.232 -0.1266 -0.0222  0.1279
 1333ERGO    C120095   5.573   4.394   6.601  0.0427  0.0196  0.0900
 1333ERGO    C220096   5.660   4.225   6.933 -0.1790  0.1032 -0.1811
 1334ERGO   ROH20097   7.393   1.187   9.185  0.1647  0.0439  0.0662
 1334ERGO    R120098   7.398   1.065   8.930  0.2680 -0.0463  0.1103
 1334ERGO    R220099   7.300   1.189   8.703  0.0349 -0.2625  0.0865
 1334ERGO    R320100   7.548   1.134   8.606  0.0899  0.0441  0.0458
 1334ERGO    R420101   7.373   1.130   8.370  0.0496 -0.1860  0.0766
 1334ERGO    R520102   7.510   0.973   8.433  0.2614 -0.0139  0.0600
 1334ERGO    C120103   7.648   1.045   8.085  0.1098  0.1464  0.0326
 1334ERGO    C220104   7.752   1.173   7.734 -0.0242  0.1209 -0.2637
 1335ERGO   ROH20105  10.349  11.176   9.426  0.3141 -0.4098 -0.3345
 1335ERGO    R120106  10.206  11.176   9.181  0.0878 -0.2181 -0.2064
 1335ERGO    R220107   9.973  11.318   9.145  0.2234  0.0643  0.0230
 1335ERGO    R320108  10.107  11.422   8.933  0.1520 -0.0750 -0.0936
 1335ERGO    R420109   9.830  11.389   8.838  0.1260 -0.2092  0.0013
 1335ERGO    R520110  10.011  11.312   8.743  0.1225 -0.2506  0.0158
 1335ERGO    C120111   9.874  11.528   8.460  0.0022 -0.4994 -0.1210
 1335ERGO    C220112   9.810  11.571   8.241  0.2357  0.2741  0.1700
 1336ERGO   ROH20113  19.154  12.922   5.475 -0.1465 -0.1897  0.0985
 1336ERGO    R120114  19.126  13.057   5.722 -0.0214 -0.0131  0.0172
 1336ERGO    R220115  19.015  12.938   5.945 -0.1214  0.2230  0.0889
 1336ERGO    R320116  19.248  13.014   6.063 -0.0535  0.0901  0.0443
 1336ERGO    R420117  19.060  12.971   6.286 -0.1268  0.4367  0.0707
 1336ERGO    R520118  19.178  13.151   6.247  0.0547  0.3022 -0.0624
 1336ERGO    C120119  19.306  13.062   6.595 -0.0665  0.4364  0.0183
 1336ERGO    C220120  19.312  13.106   6.974  0.3708 -0.2921  0.3284
 1337ERGO   ROH20121   3.248  12.924   5.476 -0.1583 -0.0414  0.0622
 1337ERGO    R120122   3.270  13.055   5.727 -0.1355 -0.0129  0.0454
 1337ERGO    R220123   3.050  13.151   5.864 -0.1243 -0.0101  0.0611
 1337ERGO    R320124   3.150  12.999   6.066 -0.0918  0.0174  0.0660
 1337ERGO    R420125   3.043  13.238   6.198 -0.2841 -0.0717  0.0751
 1337ERGO    R520126   3.245  13.158   6.218 -0.2388  0.0518  0.1239
 1337ERGO    C120127   3.133  13.147   6.582 -0.3467 -0.0815  0.0877
 1337ERGO    C220128   3.122  13.177   6.871 -0.2128  0.0226  0.1592
 1338ERGO   ROH20129  12.409   4.441   5.406 -0.0305 -0.2495 -0.0523
 1338ERGO    R120130  12.353   4.452   5.683 -0.0830 -0.2558 -0.0627
 1338ERGO    R220131  12.455   4.270   5.864  0.0773 -0.1193 -0.0152
 1338ERGO    R320132  12.544   4.493   5.991 -0.1684 -0.0044 -0.0405
 1338ERGO    R420133  12.514   4.293   6.203  0.1254 -0.0444 -0.0283
 1338ERGO    R520134  12.426   4.493   6.200 -0.1243 -0.1480 -0.0134
 1338ERGO    C120135  12.631   4.516   6.521 -0.0773  0.1069 -0.0597
 1338ERGO    C220136  12.638   4.620   6.832 -0.2862 -0.4219 -0.0328
 1339ERGO   ROH20137   3.731   5.799   5.469  0.0029  0.3065 -0.0261
 1339ERGO    R120138   3.819   5.878   5.726  0.0262  0.3024 -0.0332
 1339ERGO    R220139   3.726   6.106   5.851 -0.1585  0.1632  0.0854
 1339ERGO    R320140   3.666   5.933   6.052  0.0993  0.0276  0.0506
 1339ERGO    R420141   3.780   6.167   6.187 -0.2919  0.1991  0.1013
 1339ERGO    R520142   3.844   5.960   6.209  0.0445  0.2939  0.0738
 1339ERGO    C120143   3.754   6.039   6.571 -0.1275  0.0927  0.0778
 1339ERGO    C220144   3.823   6.074   6.937  0.2025  0.0230 -0.2280
 1340ERGO   ROH20145  17.812  15.066   5.568  0.0973  0.2566  0.1097
 1340ERGO    R120146  17.728  15.080   5.838  0.0265  0.0582  0.0998
 1340ERGO    R220147  17.524  14.924   5.938  0.0832 -0.1097 -0.0352
 1340ERGO    R320148  17.712  14.853   6.121  0.0806 -0.1148 -0.0348
 1340ERGO    R420149  17.466  14.887   6.277  0.1070 -0.0237 -0.0217
 1340ERGO    R520150  17.658  14.982   6.315  0.1303 -0.0625 -0.0583
 1340ERGO    C120151  17.608  14.799   6.646  0.1183  0.0216 -0.0134
 1340ERGO    C220152  17.481  14.596   6.912  0.2177  0.0810 -0.2121
 1341ERGO   ROH20153   4.296   9.436   5.623  0.0210 -0.0565 -0.0037
 1341ERGO    R120154   4.355   9.650   5.799  0.1915 -0.0453 -0.0745
 1341ERGO    R220155   4.227   9.683   6.042  0.0712  0.2448 -0.1797
 1341ERGO    R320156   4.482   9.687   6.138  0.0179 -0.0435 -0.0063
 1341ERGO    R420157   4.319   9.789   6.358 -0.0623 -0.1637  0.0047
 1341ERGO    R520158   4.492   9.886   6.270  0.0724 -0.1872  0.2198
 1341ERGO    C120159   4.611   9.855   6.632 -0.1900 -0.6722  0.2749
 1341ERGO    C220160   4.667   9.856   7.011  0.0385 -0.0223 -0.0239
 1342ERGO   ROH20161   0.785   9.907   5.618  0.1009  0.0062 -0.1183
 1342ERGO    R120162   0.843   9.878   5.894 -0.1543 -0.3745 -0.0980
 1342ERGO    R220163   0.951   9.647   5.999  0.3406 -0.3108 -0.4344
 1342ERGO    R320164   1.139   9.817   6.098 -0.2173  0.0257  0.1245
 1342ERGO    R420165   1.176   9.565   6.248  0.5471 -0.3728 -0.6379
 1342ERGO    R520166   1.146   9.765   6.332 -0.1270 -0.6907 -0.0105
 1342ERGO    C120167   1.484   9.677   6.486  0.1436 -0.0931 -0.2316
 1342ERGO    C220168   1.732   9.403   6.478  0.2167 -0.2704  0.3717
 1343ERGO   ROH20169   0.652   5.138   5.486  0.1422  0.0807 -0.0134
 1343ERGO    R120170   0.576   5.167   5.757  0.1992 -0.0201  0.0135
 1343ERGO    R220171   0.661   4.993   5.954  0.3467 -0.0182 -0.0481
 1343ERGO    R320172   0.745   5.222   6.074  0.2551  0.0020 -0.0199
 1343ERGO    R420173   0.607   5.073   6.286  0.3357 -0.0889 -0.0320
 1343ERGO    R520174   0.568   5.279   6.225  0.2410 -0.0969  0.0013
 1343ERGO    C120175   0.655   5.335   6.592  0.2433 -0.1111  0.0038
 1343ERGO    C220176   0.788   5.237   6.934 -0.0120 -0.0067 -0.0575
 1344ERGO   ROH20177   8.941  10.735   5.563  0.2020 -0.0785 -0.1457
 1344ERGO    R120178   8.851  10.675   5.825  0.0678 -0.1038 -0.1977
 1344ERGO    R220179   8.880  10.425   5.939  0.0961 -0.0840 -0.1753
 1344ERGO    R320180   9.002  10.565   6.137 -0.0792 -0.0343 -0.0987
 1344ERGO    R420181   8.913  10.319   6.266  0.1510 -0.1943 -0.2150
 1344ERGO    R520182   8.870  10.522   6.332 -0.0730 -0.2568 -0.1357
 1344ERGO    C120183   9.046  10.389   6.643  0.0183 -0.2119 -0.1662
 1344ERGO    C220184   9.218  10.410   6.983  0.3597 -0.1209 -0.1952
 1345ERGO   ROH20185  13.554  14.074   5.234 -0.3575 -0.2392  0.1279
 1345ERGO    R120186  13.738  14.062   5.448 -0.2077 -0.1254  0.0083
 1345ERGO    R220187  13.723  14.231   5.666 -0.1474 -0.1096  0.0021
 1345ERGO    R320188  13.724  13.998   5.806  0.0611 -0.0967  0.0261
 1345ERGO    R420189  13.790  14.205   6.004 -0.0489 -0.0283 -0.0106
 1345ERGO    R520190  13.904  14.023   5.963  0.0785  0.0536 -0.0181
 1345ERGO    C120191  13.828  13.971   6.333  0.2042  0.0310  0.0045
 1345ERGO    C220192  13.962  13.793   6.573  0.0899 -0.0250  0.0265
 1346ERGO   ROH20193   3.481  17.061   5.353 -0.0425 -0.0871 -0.1264
 1346ERGO    R120194   3.463  17.192   5.603 -0.0599 -0.0729 -0.1351
 1346ERGO    R220195   3.225  17.220   5.739 -0.0614 -0.1135 -0.1271
 1346ERGO    R320196   3.363  17.103   5.941 -0.0270 -0.0705 -0.1252
 1346ERGO    R420197   3.162  17.271   6.075 -0.0664 -0.1231 -0.1264
 1346ERGO    R520198   3.378  17.273   6.109 -0.0686 -0.0643 -0.1300
 1346ERGO    C120199   3.255  17.189   6.461 -0.0369 -0.0881 -0.1244
 1346ERGO    C220200   3.004  17.011   6.729  0.0200 -0.2582  0.1650
 1347W        W20201   5.919   0.343  13.353 -0.0929  0.0102 -0.1638
 1348W        W20202   5.174  17.797   1.124  0.0174  0.3444 -0.4573
 1349W        W20203  17.562   4.461  13.794 -0.2515  0.0144 -0.1704
 1350W        W20204   6.640   9.617  13.624 -0.0750  0.0343 -0.1181
 1351W        W20205  11.209  12.495   1.958  0.0619  0.3298 -0.1996
 1352W        W20206   3.543  13.913  14.509  0.0351 -0.0291 -0.1666
 1353W        W20207   7.946  12.143   1.688  0.0670  0.0117 -0.2879
 1354W        W20208   8.054   3.677  11.564  0.2851  0.3062 -0.0644
 1355W        W20209   8.222  10.360  10.848 -0.0181  0.2175 -0.2557
 1356W        W20210   4.101  16.258  14.625  0.2385 -0.0757 -0.2240
 1357W        W20211   8.999  17.936  11.852 -0.0074  0.0939 -0.0808
 1358W        W20212  12.338  14.040   2.881 -0.0182 -0.0579 -0.1254
 1359W        W20213   0.033   1.997  12.258 -0.2047 -0.1954 -0.2082
 1360W        W20214   5.113  19.147   4.178  0.0222  0.0629  0.0879
 1361W        W20215   1.109  11.935   2.382 -0.1916 -0.1288  0.1192
 1362W        W20216   5.737  11.641  12.532  0.2710 -0.4059 -0.1288
 1363W        W20217   5.876   2.165  10.224  0.4337  0.1804  0.2166
 1364W        W20218  11.276   2.101  11.472  0.0033 -0.2976 -0.2193
 1365W        W20219  16.069  10.177   0.272 -0.1412 -0.1793 -0.1463
 1366W        W20220   0.698   8.033   0.903 -0.2550  0.0241 -0.1607
 1367W        W20221  15.739   4.804   1.011 -0.1820 -0.1705  0.0376
 1368W        W20222  10.185   0.778   1.201 -0.1494  0.3184  0.2207
 1369W        W20223  13.981   2.771   1.787  0.3137 -0.1864 -0.0403
 1370W        W20224   3.987  15.442  11.191 -0.2479  0.1648 -0.0280
 1371W        W20225  11.534   1.293  13.323  0.3533 -0.1824 -0.0125
 1372W        W20226   7.848   1.006   9.608 -0.2486 -0.0823 -0.0976
 1373W        W20227   4.511   2.103  10.954  0.0868 -0.0211  0.4233
 1374W        W20228   4.564  11.113   3.943 -0.0705 -0.2817 -0.0209
 1375W        W20229  14.860   0.878   0.540 -0.1031 -0.1946  0.0370
 1376W        W20230   5.507   3.257  14.699 -0.0605 -0.3239 -0.1878
 1377W        W20231  12.932  16.708   3.413  0.0546  0.1835  0.0125
 1378W        W20232  16.454   3.766   0.465 -0.1530 -0.1050 -0.3701
 1379W        W20233  19.121  13.172   3.308 -0.1070 -0.2684  0.3193
 1380W        W20234   9.011  18.429   3.416 -0.1178  0.2816  0.1832
 1381W        W20235   3.460   9.347   1.053 -0.1962  0.1007 -0.2466
 1382W        W20236   1.019   5.930   0.265 -0.3083 -0.0021  0.0891
 1383W        W20237  16.699   4.913  14.532 -0.0366  0.0278  0.1361
 1384W        W20238  10.568   5.293  13.961 -0.0209  0.1250 -0.1380
 1385W        W20239   0.134  13.314  14.232  0.1881  0.1773 -0.1821
 1386W        W20240   6.655   9.967   1.986  0.2819  0.1028  0.2038
 1387W        W20241   4.428   7.307   3.733  0.0436  0.1451 -0.2050
 1388W        W20242  13.824  18.323   0.046 -0.1706  0.0065  0.0701
 1389W        W20243   8.751  13.842  13.288  0.6076 -0.1671  0.0349
 1390W        W20244   9.220  13.720   0.845 -0.2121  0.2171 -0.2505
 1391W        W20245  15.417  16.655   2.601 -0.0401  0.1233  0.1022
 1392W        W20246  16.426  13.361   2.699  0.1804 -0.0489 -0.1896
 1393W        W20247  18.955   3.234  11.109 -0.2806 -0.1137  0.1478
 1394W        W20248   2.417   5.227  12.700 -0.1285 -0.2401 -0.2825
 1395W        W20249   7.865   4.104  11.851 -0.2575 -0.1101  0.1526
 1396W        W20250  16.175   7.569   2.973 -0.0358 -0.1976 -0.2134
 1397W        W20251   2.849   2.716   4.027 -0.1060 -0.1311 -0.0441
 1398W        W20252   4.713   3.752  11.230 -0.0218 -0.1274  0.0231
 1399W        W20253  18.834   1.323  13.762 -0.1907  0.1390 -0.2265
 1400W        W20254   2.489   5.762  12.781  0.3104  0.1604  0.1309
 1401W        W20255   2.093   3.934   0.340  0.0275  0.1335 -0.2636
 1402W        W20256   8.899   9.417   0.347 -0.2764  0.1586  0.0345
 1403W        W20257  13.557  13.708  10.072 -0.2067 -0.0230  0.1882
 1404W        W20258   9.865   4.569   4.234 -0.2117  0.0692  0.0786
 1405W        W20259  12.476  17.023   2.124 -0.0166  0.1431 -0.1386
 1406W        W20260   5.676   8.984  12.463 -0.1058  0.0536 -0.3457
 1407W        W20261  12.859  13.802  12.661 -0.0139  0.1250 -0.0991
 1408W        W20262   3.063  11.193   4.193  0.1333 -0.1901  0.0110
 1409W        W20263   3.622  13.018   0.086  0.0507  0.0624  0.1798
 1410W        W20264   6.226   7.233  12.566 -0.1357  0.3724 -0.2967
 1411W        W20265   6.059   5.661  14.135 -0.0635  0.0870  0.0581
 1412W        W20266   7.477   6.698  12.277  0.1653  0.2085  0.0438
 1413W        W20267   6.283   6.825   2.863  0.0836  0.3290  0.2700
 1414W        W20268   5.798   6.598   1.939 -0.1682 -0.0063  0.3346
 1415W        W20269  18.213   9.438  11.873 -0.1723  0.4080 -0.2147
 1416W        W20270   5.397   2.382   3.586  0.1062 -0.1878  0.0681
 1417W        W20271  12.087  16.627  12.363  0.0446  0.0681 -0.0634
 1418W        W20272  17.282  13.142  13.198 -0.0778 -0.2513  0.0658
 1419W        W20273   1.988   5.063  13.073 -0.0381 -0.1257  0.0481
 1420W        W20274  11.844   7.114   0.863 -0.1486 -0.0645 -0.0375
 1421W        W20275  14.153  14.059  10.618  0.1790  0.1327  0.1322
 1422W        W20276   2.405  18.178  13.501 -0.3312 -0.2140  0.3517
 1423W        W20277  17.329   5.089   4.309 -0.1584 -0.0964  0.1749
 1424W        W20278   2.186  13.513   3.875  0.0827  0.2453  0.0683
 1425W        W20279  17.153  17.439  10.883 -0.0987 -0.4960 -0.1525
 1426W        W20280   9.252  13.390   4.950  0.2363 -0.0173 -0.3087
 1427W        W20281   6.771   5.228  13.095  0.1639  0.1882  0.1244
 1428W        W20282  16.796   0.337  13.579  0.2092  0.0533  0.1299
 1429W        W20283   5.352   8.878  12.841  0.1529  0.0190  0.1202
 1430W        W20284  14.125   8.872  10.463  0.1389  0.3390 -0.3446
 1431W        W20285   2.297   7.525  13.953 -0.0966 -0.3318  0.1485
 1432W        W20286  18.707  18.615   3.160  0.3225 -0.1903  0.1359
 1433W        W20287  14.817  18.218  13.868  0.5204 -0.1457  0.0108
 1434W        W20288   2.883  18.680  10.873  0.0271  0.0510  0.0293
 1435W        W20289   8.809  17.179   3.186 -0.2072  0.1378  0.1239
 1436W        W20290  15.191   5.664  10.404  0.1120  0.1527  0.0461
 1437W        W20291  14.692   6.628  12.170  0.0780 -0.3449 -0.4487
 1438W        W20292  17.143  14.210  10.790 -0.0866 -0.0497  0.2163
 1439W        W20293  11.485  15.124  11.407 -0.0004  0.1534 -0.0954
 1440W        W20294   9.518   8.900  13.380 -0.2179  0.1512  0.2224
 1441W        W20295  12.067  14.654   1.248 -0.1425  0.0031  0.1466
 1442W        W20296   9.152  15.218  12.804  0.2016  0.1094  0.1645
 1443W        W20297   3.506   6.984  14.314  0.1963 -0.3023 -0.1126
 1444W        W20298  15.977  15.721  12.637 -0.1968 -0.0280 -0.0691
 1445W        W20299  14.408  18.227  11.896 -0.0474  0.0021  0.3422
 1446W        W20300   0.532  13.929  11.041 -0.0566 -0.0775 -0.1799
 1447W        W20301   3.348   0.051   3.620  0.3814  0.1042  0.1382
 1448W        W20302   5.473   7.153  13.947 -0.1790  0.2119 -0.2117
 1449W        W20303   9.315   7.186   3.354 -0.2669 -0.2987  0.1139
 1450W        W20304   3.334  11.192   0.646  0.0691  0.0074 -0.1014
 1451W        W20305   8.970   9.432   2.996  0.2444  0.0159  0.0555
 1452W        W20306   9.469   0.439  10.947  0.2888 -0.3089  0.0500
 1453W        W20307   1.300   3.731   0.389  0.0324  0.0765 -0.3007
 1454W        W20308  12.625  12.274   4.424 -0.0412  0.3478 -0.1749
 1455W        W20309  15.591   8.804  10.658 -0.0280 -0.2689  0.1720
 1456W        W20310   0.902   8.524  10.761 -0.1823  0.0523  0.3495
 1457W        W20311  17.797  17.451  11.615  0.2750 -0.1673 -0.0565
 1458W        W20312  17.392  10.150   1.696  0.1799 -0.1490  0.0247
 1459W        W20313  15.799  12.147  13.714  0.0917 -0.0588 -0.0561
 1460W        W20314  10.443   4.525   1.549  0.1557 -0.1939  0.3170
 1461W        W20315  14.827   9.124   0.665  0.1384 -0.0544 -0.2059
 1462W        W20316   9.971  11.045   3.784  0.0348 -0.2626 -0.0750
 1463W        W20317   0.700  18.760   2.315 -0.0810 -0.0051  0.0800
 1464W        W20318  15.416  14.672   2.339  0.1719 -0.0585 -0.0562
 1465W        W20319   7.155   1.556  14.367  0.0781  0.3252  0.0615
 1466W        W20320  11.102   9.303  13.208 -0.1185 -0.2567 -0.1802
 1467W        W20321   7.779   8.995  14.318 -0.1844  0.1334  0.1365
 1468W        W20322  12.103   5.956  13.212  0.0709 -0.0254  0.1866
 1469W        W20323  14.201   0.154   1.421 -0.3847 -0.0694 -0.1049
 1470W        W20324   7.982   1.523   2.313 -0.0373  0.0335 -0.1261
 1471W        W20325   1.945   7.519  10.954  0.2314 -0.2200  0.2079
 1472W        W20326  17.236  11.817  13.122 -0.0297 -0.0154  0.1638
 1473W        W20327  15.505  18.292  11.235  0.1425 -0.1665 -0.1367
 1474W        W20328  15.862  16.956   0.441 -0.1785  0.0610  0.1935
 1475W        W20329   1.589  13.422  12.229  0.0501  0.0044 -0.0120
 1476W        W20330   1.878  10.403  12.400 -0.0509  0.1991 -0.2482
 1477W        W20331   2.394   5.214   3.234  0.3623 -0.3559  0.0761
 1478W        W20332  18.207  14.295   3.172  0.4586  0.2969  0.2247
 1479W        W20333  11.089   3.045   3.035  0.0065  0.3462  0.0463
 1480W        W20334  16.434   7.641  12.103 -0.0454 -0.1609 -0.0212
 1481W        W20335  13.475  17.992  14.746 -0.2634  0.1839 -0.2707
 1482W        W20336   0.720   9.608   0.511  0.0423 -0.2227  0.1612
 1483W        W20337   4.913   6.662   0.014  0.0008 -0.0623 -0.1853
 1484W        W20338   3.650   6.632  13.569 -0.4136  0.2695  0.2065
 1485W        W20339   0.410   5.276  10.790  0.0254  0.0219 -0.1437
 1486W        W20340  18.350   9.572   2.500  0.1226  0.1001 -0.4692
 1487W        W20341   4.863   4.472  12.518 -0.0174 -0.0525 -0.1097
 1488W        W20342  15.306   0.597  12.445 -0.1051 -0.0964  0.0859
 1489W        W20343  15.060  11.091   3.541 -0.0055 -0.1283 -0.0979
 1490W        W20344  12.275  11.631   2.816  0.1168  0.5881 -0.0961
 1491W        W20345  14.325   3.636   2.089  0.0290  0.4388  0.1254
 1492W        W20346  12.263  15.294  11.823 -0.2935 -0.3600 -0.1241
 1493W        W20347   2.100   9.165   9.307 -0.0241  0.0797 -0.0142
 1494W        W20348  11.294  14.296   0.080  0.0472 -0.3791  0.0816
 1495W        W20349   0.822  14.796   1.510 -0.1366 -0.0110  0.1590
 1496W        W20350   6.431  12.727   1.061  0.3449 -0.1351  0.0648
 1497W        W20351   7.567   1.773  13.918  0.0078  0.0766  0.2567
 1498W        W20352   4.948   4.837   1.307  0.4435  0.1210  0.1553
 1499W        W20353  13.514  18.510  12.595  0.1037  0.1374 -0.3059
 1500W        W20354  11.040  18.675  10.822 -0.3187 -0.2151 -0.2938
 1501W        W20355  12.346  17.012   4.357 -0.1142 -0.1837  0.0729
 1502W        W20356  16.012   2.596  13.214  0.3529  0.1776  0.1640
 1503W        W20357   0.675  17.392   0.244  0.1795 -0.4218 -0.1250
 1504W        W20358   6.305   1.865  10.435 -0.2149  0.1137 -0.1103
 1505W        W20359  15.778   5.074   3.053  0.3740  0.2597 -0.1577
 1506W        W20360  14.677   6.989   2.098  0.0395 -0.2514 -0.2848
 1507W        W20361   6.900  10.983   4.450 -0.0208  0.1539 -0.0591
 1508W        W20362   7.376  15.049  12.151  0.0325 -0.3124 -0.0750
 1509W        W20363   8.968  16.636  12.697  0.1970  0.3025  0.2058
 1510W        W20364   1.426  11.473  14.676 -0.0459  0.0241 -0.0189
 1511W        W20365   8.885   6.622  13.348 -0.1420 -0.2598 -0.0775
 1512W        W20366  12.114  16.926   3.893  0.1189  0.0256 -0.0369
 1513W        W20367   7.658  11.418  11.909  0.0164  0.0687  0.0515
 1514W        W20368   4.083  10.124   1.926 -0.2117  0.2338 -0.1073
 1515W        W20369   1.536  13.008  11.156 -0.0627  0.2510  0.3221
 1516W        W20370  14.183   8.687  11.349 -0.4488 -0.0306  0.0206
 1517W        W20371  14.756  17.205   3.988 -0.2421  0.1451 -0.0428
 1518W        W20372  16.712  13.206  11.517  0.1895 -0.0795 -0.1984
 1519W        W20373  15.607  14.096  10.677 -0.0978 -0.0078  0.0065
 1520W        W20374   0.424   0.743   3.821  0.0936  0.0244  0.4339
 1521W        W20375  14.973  13.157   3.522  0.1227  0.1227 -0.1748
 1522W        W20376  13.233   8.992  12.089  0.1960  0.1870  0.1058
 1523W        W20377   3.022  14.424   3.906 -0.5229 -0.1458  0.0342
 1524W        W20378  13.244   9.952  11.428  0.0906 -0.3188 -0.0504
 1525W        W20379   5.797  18.842  10.195  0.1047  0.1219 -0.1251
 1526W        W20380  10.786   3.199   0.187 -0.0278 -0.0214  0.0117
 1527W        W20381  17.320   7.937  12.606  0.3648 -0.0966 -0.3499
 1528W        W20382   9.798  10.857   0.078  0.2804 -0.0642 -0.1747
 1529W        W20383  17.555   4.622  11.366  0.2814  0.1009  0.1754
 1530W        W20384  17.848  11.402   4.371 -0.4020  0.0308 -0.4090
 1531W        W20385  14.579  12.725   0.710 -0.0896  0.1892  0.0683
 1532W        W20386  14.980   0.810   1.561 -0.2588  0.0110  0.1154
 1533W        W20387  16.136  11.041   1.050  0.2990  0.0339  0.1173
 1534W        W20388  13.536   0.196  11.923 -0.0985 -0.0464 -0.4173
 1535W        W20389   2.452  15.971   3.743 -0.4032  0.1331  0.0061
 1536W        W20390   2.668   4.969  13.696 -0.1165  0.1956  0.1193
 1537W        W20391  12.932  17.248   1.934 -0.1889 -0.0534 -0.0331
 1538W        W20392   4.141  19.139  12.424  0.1688 -0.2196  0.4428
 1539W        W20393   7.159   7.508  12.555 -0.1135  0.2359  0.1413
 1540W        W20394   2.695  15.879   5.515  0.2363  0.0429 -0.3167
 1541W        W20395   4.798  15.865  11.170 -0.0039  0.0387 -0.2836
 1542W        W20396   1.068  12.531  10.790  0.0805 -0.2249  0.1299
 1543W        W20397  18.709  12.802   3.735 -0.2061 -0.2168  0.1084
 1544W        W20398   8.689   0.608   3.663  0.1839 -0.0548  0.1282
 1545W        W20399   6.241   5.514  10.711 -0.0032  0.1999  0.1791
 1546W        W20400  12.826  15.795   2.886  0.1580  0.0950  0.1505
 1547W        W20401  11.891   0.819  12.501  0.0029  0.3496  0.2012
 1548W        W20402   9.162   2.762  11.062  0.1426  0.3170 -0.0238
 1549W        W20403  13.752  12.613   0.346 -0.0951 -0.3343 -0.0002
 1550W        W20404  12.951   0.724  12.828 -0.1204  0.4938  0.0642
 1551W        W20405   7.258   4.768   1.321  0.1870 -0.0501  0.1508
 1552W        W20406   9.492   0.838  14.283 -0.0496 -0.0911  0.2333
 1553W        W20407  13.550  14.078   2.674 -0.3220 -0.3550 -0.0114
 1554W        W20408  17.429  15.419  12.935 -0.3562  0.0663 -0.1037
 1555W        W20409   8.899   9.006   0.727 -0.2753 -0.2332  0.0733
 1556W        W20410   9.179   1.037  14.689  0.1126 -0.2043 -0.0059
 1557W        W20411   9.585  10.563  14.412 -0.2717  0.2706  0.0948
 1558W        W20412  16.138  14.230   4.845 -0.1091  0.1515 -0.0257
 1559W        W20413  12.960  13.643  14.752  0.4337 -0.1842 -0.0900
 1560W        W20414  12.794   6.169   0.391  0.2244  0.1822 -0.1227
 1561W        W20415  17.875   4.370  12.523  0.1939 -0.3082 -0.1976
 1562W        W20416  18.079   4.155  13.768  0.0409 -0.2639  0.1868
 1563W        W20417   5.783  11.048  12.569 -0.1225  0.0609  0.1540
 1564W        W20418  18.007  14.521  13.329  0.0259  0.2920 -0.1076
 1565W        W20419  11.870   4.062   3.291 -0.1734 -0.2538 -0.0549
 1566W        W20420   4.339  18.640   1.543 -0.2723 -0.3389 -0.1086
 1567W        W20421  11.885   3.992   1.023 -0.1674 -0.2209  0.2719
 1568W        W20422   7.862   7.651   2.392 -0.0666 -0.0411  0.0139
 1569W        W20423   1.174  17.984  14.006 -0.0134  0.0477  0.1172
 1570W        W20424   7.637  13.266  10.552  0.0953  0.3171  0.1253
 1571W        W20425   5.572  10.065   1.671  0.2950 -0.1808 -0.0638
 1572W        W20426  12.469  11.670   0.149  0.2497 -0.1702  0.2850
 1573W        W20427  17.712  12.318   1.522 -0.2037 -0.0736 -0.1675
 1574W        W20428   5.634   2.265   1.679 -0.2165  0.2651 -0.0596
 1575W        W20429  18.655  19.019   4.444 -0.0012  0.1471  0.0589
 1576W        W20430  14.382  13.160   0.986 -0.3070 -0.2672  0.2611
 1577W        W20431  12.714   4.589   0.303 -0.1687  0.2303  0.0684
 1578W        W20432   7.027  16.849  13.545 -0.1678 -0.4852  0.0305
 1579W        W20433  11.948  15.993   2.389  0.1490 -0.0933  0.3030
 1580W        W20434  14.353  18.261  12.554  0.1008 -0.0884 -0.0329
 1581W        W20435   2.813  15.590   1.003 -0.1514 -0.2290 -0.0195
 1582W        W20436   2.211   0.702   0.302  0.2110  0.2691  0.1164
 1583W        W20437  18.018   1.860   1.419 -0.2095  0.0164 -0.1717
 1584W        W20438   8.283  12.843   4.245 -0.1861  0.0715  0.3508
 1585W        W20439  13.775   7.176  14.038 -0.3491  0.0507 -0.1737
 1586W        W20440   7.905  14.827   2.671 -0.0020  0.0409 -0.0692
 1587W        W20441   2.619   3.438  10.782 -0.0858  0.1029 -0.1562
 1588W        W20442  12.257   2.487  10.684  0.1062 -0.1384  0.3488
 1589W        W20443  12.248  16.200  12.117  0.0757  0.1230  0.2077
 1590W        W20444   7.115  14.372  13.320  0.2480  0.2193 -0.0716
 1591W        W20445   1.995  12.373  12.614 -0.2691  0.3389  0.0794
 1592W        W20446   6.320   7.312   0.899 -0.3960 -0.0546  0.1471
 1593W        W20447   5.452  12.436  13.864  0.0579 -0.2713 -0.1907
 1594W        W20448   0.261   8.546   1.907 -0.1765 -0.3261  0.0789
 1595W        W20449   7.759  12.014   1.192 -0.0541 -0.0564 -0.0720
 1596W        W20450  18.387   3.512   0.022  0.1232 -0.0955  0.2394
 1597W        W20451   3.730   3.516   3.733  0.0349 -0.2815  0.3240
 1598W        W20452   6.222  14.953  10.523  0.0474 -0.2605 -0.3531
 1599W        W20453   7.820   8.221  13.717 -0.2513  0.2894  0.1004
 1600W        W20454  18.758   1.730   0.635 -0.3160  0.0871  0.0840
 1601W        W20455  16.168   4.049   0.758  0.1845  0.0999  0.0182
 1602W        W20456   1.000  13.306  11.529  0.0488  0.0873  0.0959
 1603W        W20457   2.490  13.922   0.989 -0.2736  0.0108  0.2962
 1604W        W20458   5.112   6.267  12.616  0.0951  0.1257  0.0391
 1605W        W20459   7.848   2.401  13.038  0.1972  0.1153 -0.0621
 1606W        W20460   9.360   0.898  10.676  0.0164  0.0619  0.0446
 1607W        W20461   2.550  10.014   3.989 -0.0817  0.3362  0.3033
 1608W        W20462  10.211   7.517   1.265  0.2870  0.3035  0.1018
 1609W        W20463   5.827  15.534  12.803  0.2099  0.2341 -0.0882
 1610W        W20464  13.999   6.744  12.748 -0.1086 -0.0367 -0.2354
 1611W        W20465   6.609   4.582   1.231  0.1977  0.0326  0.1294
 1612W        W20466   9.215   0.241  10.574 -0.1448 -0.1257 -0.2635
 1613W        W20467   0.437  18.971  13.098  0.2304 -0.0743 -0.1258
 1614W        W20468   9.725  14.442  11.088 -0.1683 -0.0653 -0.0284
 1615W        W20469  10.329  10.253   4.701  0.4717  0.0466  0.2340
 1616W        W20470  18.928  10.804   2.035  0.0551 -0.3562 -0.0465
 1617W        W20471  14.264   4.564   0.408  0.0198 -0.1365 -0.0412
 1618W        W20472   2.681  16.019  10.893 -0.1524  0.0059  0.1115
 1619W        W20473  13.498  14.883  10.258 -0.3818  0.4938  0.0800
 1620W        W20474   5.301   4.846   2.849 -0.1638  0.2409  0.1031
 1621W        W20475  13.653  13.010  11.983 -0.0744  0.4814  0.1167
 1622W        W20476  13.088  19.135   3.175  0.2288 -0.0908  0.2459
 1623W        W20477  11.371  16.804   0.861 -0.1127 -0.2705  0.3229
 1624W        W20478   8.063  12.364  10.318 -0.2951  0.2914 -0.0045
 1625W        W20479  13.013  12.024  12.056  0.0714  0.3320 -0.1338
 1626W        W20480   2.227   3.368  14.237  0.0933 -0.4826 -0.1571
 1627W        W20481  10.218  13.850  14.422  0.0402 -0.1902  0.1519
 1628W        W20482   5.187   7.535   2.999  0.1243  0.3929  0.0997
 1629W        W20483   1.490   7.812  10.679 -0.0558  0.1220 -0.1002
 1630W        W20484  12.190  18.347   1.790 -0.1359  0.1029 -0.0961
 1631W        W20485  11.424  10.680   1.115  0.1686  0.1509  0.4903
 1632W        W20486   7.516   7.615   0.753  0.0481  0.3780 -0.1058
 1633W        W20487  16.730  11.669  10.660  0.1596 -0.0870  0.1143
 1634W        W20488  11.934   1.373  12.411  0.0398 -0.1245  0.0076
 1635W        W20489  13.775   1.673   1.640  0.2008 -0.0773  0.1813
 1636W        W20490   0.172   4.931   3.292 -0.0355  0.3144  0.3342
 1637W        W20491  11.151   4.024   0.519  0.0755  0.1000  0.1790
 1638W        W20492   2.666   1.000   0.150  0.2599  0.0705 -0.2355
 1639W        W20493  17.453  13.655  13.142 -0.0138 -0.1769 -0.0905
 1640W        W20494   7.379   4.694  12.885  0.3437 -0.2311 -0.0872
 1641W        W20495   6.254   4.816   1.889 -0.1765  0.0834 -0.2803
 1642W        W20496   8.296  11.837   0.373  0.1883 -0.1930  0.0198
 1643W        W20497  11.830  12.424   0.374 -0.0209  0.1923  0.0565
 1644W        W20498  15.218   4.768   0.631  0.0288 -0.1969  0.2692
 1645W        W20499   3.967  13.979   3.301  0.0305 -0.1177  0.3252
 1646W        W20500   0.002  18.397  11.894  0.2593  0.3780  0.2249
 1647W        W20501  14.455  14.433   3.343  0.0122 -0.0684  0.0440
 1648W        W20502   0.035  10.820   3.854 -0.0260  0.4239 -0.2770
 1649W        W20503  15.809  18.180  10.868  0.0081 -0.0566  0.0234
 1650W        W20504  17.526  14.431  13.260  0.0373 -0.2283 -0.2169
 1651W        W20505   1.263  11.430   3.021 -0.0337 -0.4470 -0.0589
 1652W        W20506  18.896   4.001   0.427 -0.0494 -0.0882 -0.0032
 1653W        W20507   8.372   5.485  11.714  0.0588 -0.0734  0.0515
 1654W        W20508   6.026  11.213   0.967 -0.0328  0.2030  0.4148
 1655W        W20509   6.854   7.437   0.931  0.0901  0.1406 -0.1196
 1656W        W20510   8.376   2.669  14.542  0.2751  0.1150  0.1140
 1657W        W20511   7.692  16.471   2.692 -0.0164 -0.3137  0.1867
 1658W        W20512  17.675  14.346  13.774  0.0308  0.1593 -0.0423
 1659W        W20513   2.741   6.354  14.329  0.2511 -0.1713 -0.0304
 1660W        W20514   4.198  13.505   2.626  0.1024  0.0711 -0.2677
 1661W        W20515  13.743  12.418  13.938  0.0724 -0.0805 -0.2601
 1662W        W20516  14.631   9.854  13.823  0.1623  0.2983 -0.1380
 1663W        W20517  16.828   3.720  11.240 -0.4275 -0.1997 -0.0859
 1664W        W20518  13.856   0.952  11.571 -0.2212  0.0875  0.1646
 1665W        W20519  11.511   7.996  11.829  0.1287  0.1186 -0.1212
 1666W        W20520  17.925  14.191   0.298 -0.0715  0.0791  0.1022
 1667W        W20521  15.221  15.036  10.511 -0.1988 -0.0084  0.1015
 1668W        W20522   9.713  11.727   2.507  0.0836 -0.0855 -0.4199
 1669W        W20523   6.637   6.835   1.449  0.3612 -0.2187  0.0457
 1670W        W20524  18.384   9.222   4.527  0.2743  0.0228 -0.1826
 1671W        W20525   0.685  18.086   0.217  0.0017  0.1281 -0.0382
 1672W        W20526  16.582  13.038  13.204  0.1326 -0.3556  0.1862
 1673W        W20527   4.158  11.613  14.763  0.1048 -0.1397  0.0510
 1674W        W20528  18.386  10.956  13.854 -0.0050  0.1451 -0.0827
 1675W        W20529  18.094   8.146  13.509  0.0455 -0.1743  0.1015
 1676W        W20530  13.751   5.292  12.538  0.0831  0.2240  0.2377
 1677W        W20531   5.918   2.232   5.094 -0.2753  0.2509 -0.0539
 1678W        W20532   3.524   7.924  11.274  0.0172 -0.2248  0.0817
 1679W        W20533  14.809  17.388  11.567 -0.3880 -0.0928 -0.1090
 1680W        W20534   1.240   4.544  10.375 -0.0014 -0.0283 -0.0313
 1681W        W20535   9.478  17.747   0.807  0.3061  0.1699  0.1897
 1682W        W20536   4.864  11.076  12.705  0.0896 -0.1428  0.2730
 1683W        W20537   7.919   4.271   3.082  0.1379  0.0302 -0.0543
 1684W        W20538   2.902  13.691   1.157  0.1670 -0.0951 -0.0755
 1685W        W20539   2.216  15.771   1.048 -0.3419 -0.0536  0.1992
 1686W        W20540  17.897   1.276  13.073 -0.1347  0.1322 -0.0235
 1687W        W20541  18.878  15.534   1.809  0.1458  0.0179  0.0904
 1688W        W20542  12.245  16.161  13.112 -0.0734  0.1411  0.3225
 1689W        W20543  13.338  16.441  14.559  0.1865  0.0913 -0.1940
 1690W        W20544  12.942   1.700  12.295 -0.0998 -0.1551 -0.2158
 1691W        W20545  10.197   7.622   0.371 -0.0927  0.1480  0.0355
 1692W        W20546   5.293  12.541   2.149 -0.0047  0.3714 -0.0503
 1693W        W20547   2.607  18.553  13.954  0.1626  0.1350  0.0937
 1694W        W20548   6.827  18.748  13.188 -0.1825 -0.2232 -0.1431
 1695W        W20549   2.457   6.158   3.859  0.3633 -0.2060  0.0417
 1696W        W20550   2.307   2.735   4.296  0.0050  0.2838 -0.2174
 1697W        W20551   1.658  12.273   1.784 -0.2266 -0.1613 -0.2578
 1698W        W20552   3.104  12.871  13.503 -0.1193  0.0891  0.5112
 1699W        W20553  15.890   1.512   4.878 -0.0325  0.3351  0.1213
 1700W        W20554   9.742   3.002   1.932 -0.2914  0.4888 -0.2504
 1701W        W20555   7.100  16.863  12.374  0.3941  0.0682 -0.0744
 1702W        W20556  12.833   3.838  14.206 -0.0989  0.0765 -0.2025
 1703W        W20557   7.461   4.502  11.956  0.3263 -0.5344 -0.1401
 1704W        W20558   4.891   1.572  14.080  0.0082 -0.0107 -0.2516
 1705W        W20559   3.935  15.300  11.693  0.1788 -0.0349  0.2983
 1706W        W20560  13.350   0.697  10.352 -0.3858  0.2505 -0.0123
 1707W        W20561  10.992   5.370   1.670  0.1006  0.0604  0.0734
 1708W        W20562  13.337  18.441   3.525  0.0331  0.3301  0.0162
 1709W        W20563   5.046  11.196   4.232  0.1359  0.0295 -0.1056
 1710W        W20564   7.972   3.902   2.314  0.2530  0.3119 -0.1753
 1711W        W20565  12.070   4.063   2.840  0.0085 -0.2107 -0.0067
 1712W        W20566  11.470   3.271   3.258 -0.1824 -0.3539 -0.1340
 1713W        W20567  14.847   1.499  11.163  0.3227 -0.0440  0.0288
 1714W        W20568  14.551  10.196  10.981 -0.2343 -0.2513  0.2007
 1715W        W20569   8.526  11.117  12.895  0.1385 -0.0850 -0.2188
 1716W        W20570   6.534  10.952  10.101  0.0333  0.2697  0.0074
 1717W        W20571   3.221  11.082  13.894 -0.1969 -0.1717  0.0393
 1718W        W20572   0.364   6.066  11.994  0.1669  0.2858  0.1108
 1719W        W20573   3.968  10.541  11.878  0.1733 -0.1355  0.3512
 1720W        W20574  15.024   6.420   0.201  0.1794  0.0035 -0.3139
 1721W        W20575   1.837  13.502  13.058 -0.2341 -0.0561  0.0518
 1722W        W20576  10.620  10.730   0.358 -0.1039  0.0491 -0.0013
 1723W        W20577   0.422  18.866  11.653  0.0366 -0.0892 -0.2527
 1724W        W20578   1.143  14.226   0.166 -0.1467  0.1062  0.3448
 1725W        W20579   4.561  11.167   2.685  0.0939 -0.0803 -0.0193
 1726W        W20580  18.669   1.259  11.506  0.0778 -0.0158 -0.2278
 1727W        W20581   8.888  14.088   3.170 -0.2237  0.0955 -0.1237
 1728W        W20582   3.377   2.252   1.520  0.0746 -0.2139  0.0628
 1729W        W20583   7.249   8.979  14.354 -0.0283  0.3271 -0.2145
 1730W        W20584  16.055  18.804   0.525  0.2124 -0.1162 -0.0406
 1731W        W20585   5.148  17.444   2.602 -0.0246 -0.0194 -0.2831
 1732W        W20586   0.871   5.086   3.258  0.1248  0.1717  0.4114
 1733W        W20587  13.233   3.053   0.529  0.2342 -0.1634  0.1618
 1734W        W20588   8.017  18.775   1.046 -0.1175 -0.3168 -0.0793
 1735W        W20589  13.617  16.146   3.537  0.1974 -0.0269 -0.1679
 1736W        W20590   6.485  14.138  13.934 -0.2840 -0.2096 -0.0462
 1737W        W20591   7.838  18.891   4.414  0.1728  0.2244 -0.1667
 1738W        W20592  14.196  15.049  13.908 -0.2110  0.0132  0.2607
 1739W        W20593   7.469  15.897   3.884 -0.2079 -0.2134  0.0871
 1740W        W20594   5.859  18.757   1.221 -0.2620  0.0741 -0.1794
 1741W        W20595   4.993  11.119  13.163  0.0673 -0.4081 -0.1159
 1742W        W20596  11.994   9.438  12.357  0.2598 -0.1196  0.1131
 1743W        W20597   5.501  12.894   4.414  0.0359  0.1892 -0.0520
 1744W        W20598   3.846   7.669  10.999  0.1980 -0.0376  0.0577
 1745W        W20599  13.541   1.972   2.093  0.1688  0.1783 -0.0364
 1746W        W20600  16.396  11.450  13.600 -0.1397 -0.4162  0.2403
 1747W        W20601  11.670  10.923  14.628 -0.2495 -0.2931 -0.1055
 1748W        W20602  13.450   9.400   1.791 -0.1168  0.2901  0.1509
 1749W        W20603   9.067  12.173   4.023  0.2148  0.0547 -0.0908
 1750W        W20604  14.941   8.580  11.987 -0.2629  0.0763 -0.4823
 1751W        W20605   1.650  14.851  13.416 -0.1045 -0.0936  0.1632
 1752W        W20606  17.943   9.538   5.453 -0.0163  0.1330  0.1130
 1753W        W20607  16.564  11.462  13.094 -0.0971 -0.1433  0.2059
 1754W        W20608   2.266  18.147  13.978 -0.1076 -0.0817  0.3578
 1755W        W20609   6.753  14.612   0.512  0.1446  0.1763 -0.0935
 1756W        W20610  12.357  14.207   4.693  0.1295  0.0162  0.0076
 1757W        W20611  12.351  10.756  12.485  0.2152 -0.0497 -0.1046
 1758W        W20612   0.254  18.289   1.452  0.1382 -0.5875 -0.0291
 1759W        W20613  15.397  17.340   0.569 -0.1006  0.1327  0.0508
 1760W        W20614  15.399  16.769  13.352  0.0794 -0.3119 -0.2138
 1761W        W20615  13.312   5.224   2.335 -0.0474  0.0531 -0.0615
 1762W        W20616  16.566  12.166   0.026 -0.0127  0.0932  0.4443
 1763W        W20617  12.376   5.377  10.790  0.2152 -0.1120 -0.0470
 1764W        W20618   4.204  14.566   3.517  0.1469  0.1199  0.1586
 1765W        W20619  11.477  16.894  12.835  0.0417 -0.2464 -0.0849
 1766W        W20620   8.155   2.255  11.756  0.0459  0.0079 -0.0311
 1767W        W20621  13.256   6.958  13.277  0.1615  0.2250  0.0380
 1768W        W20622   3.216  10.590  13.018  0.1689 -0.4613 -0.1149
 1769W        W20623   0.596   0.876  10.628 -0.3713  0.0247 -0.0502
 1770W        W20624  18.033   4.283  14.305  0.2709 -0.1095  0.0588
 1771W        W20625   7.526  18.759  14.331  0.2785  0.3239 -0.0306
 1772W        W20626  11.672  12.675  12.067  0.0886  0.0556 -0.3040
 1773W        W20627  15.801  19.007  11.389  0.1788  0.1035 -0.1495
 1774W        W20628   5.197  11.166   2.219 -0.0571 -0.1957  0.1825
 1775W        W20629   3.774   0.072   3.056 -0.2139 -0.0631 -0.1160
 1776W        W20630  18.136  12.573  14.557 -0.0781 -0.2873  0.1072
 1777W        W20631  15.014   9.608  11.417  0.1793  0.0459 -0.1043
 1778W        W20632  16.998  16.189   3.896 -0.1532  0.0071  0.1134
 1779W        W20633   2.411   0.324  10.598  0.0135 -0.1870 -0.0810
 1780W        W20634  14.353   8.817  13.003  0.0833  0.0174 -0.2824
 1781W        W20635   4.949  14.556   4.238  0.0854  0.3394 -0.1545
 1782W        W20636  16.146   1.481   0.079  0.2780 -0.0172 -0.0421
 1783W        W20637  13.769  16.328  10.683  0.0899  0.3040  0.0896
 1784W        W20638  12.605  18.102   1.935 -0.0096  0.1055 -0.2937
 1785W        W20639   8.898   4.240   2.693 -0.0669  0.0521  0.0628
 1786W        W20640  15.364  14.510  13.873 -0.1449  0.1231  0.4904
 1787W        W20641  15.695   0.709   0.010  0.3394 -0.0869  0.2408
 1788W        W20642  16.962  17.983  14.131 -0.1579 -0.1180 -0.1425
 1789W        W20643  10.112   4.539  13.055  0.2187 -0.2193  0.1217
 1790W        W20644  16.837   9.416   3.666  0.2664  0.1298  0.1314
 1791W        W20645  16.584   9.548  14.596  0.0755 -0.0885 -0.0724
 1792W        W20646   0.488  10.575   0.972 -0.2030 -0.0389 -0.1038
 1793W        W20647   3.676   8.379   3.675  0.0578  0.1368  0.2647
 1794W        W20648   6.046  11.329  10.688  0.0197 -0.1293 -0.0053
 1795W        W20649   9.594   8.408   1.096 -0.0564 -0.0988 -0.3479
 1796W        W20650   2.473  10.140  13.082 -0.0763 -0.0166  0.1028
 1797W        W20651  14.578  18.450   0.447  0.1631  0.3929  0.0673
 1798W        W20652   1.895  13.494   0.947  0.1073 -0.0678 -0.3071
 1799W        W20653  17.149  10.756   1.350  0.3055 -0.2011  0.3093
 1800W        W20654   3.864   6.631  11.442 -0.1941  0.1191 -0.0924
 1801W        W20655   4.913   1.439   1.027 -0.0851  0.1589 -0.1815
 1802W        W20656   2.869  12.544   1.536 -0.0994  0.0286  0.1876
 1803W        W20657  12.383  14.576  14.051  0.0286  0.0597  0.1805
 1804W        W20658  15.879  14.025   2.011 -0.2463 -0.1905  0.5076
 1805W        W20659   4.265   6.883   0.581  0.0196  0.0059 -0.3545
 1806W        W20660   6.377  13.751  12.095 -0.2236  0.2493  0.1349
 1807W        W20661  12.893  15.463  12.650  0.2853 -0.0799  0.0447
 1808W        W20662   2.232   0.595   3.830 -0.0961  0.0997  0.0365
 1809W        W20663   7.393   7.842   4.050 -0.0231 -0.0105 -0.1609
 1810W        W20664  10.549  14.894   2.254 -0.2481  0.1302 -0.0564
 1811W        W20665  17.746   0.977   2.392 -0.0461  0.3694 -0.1288
 1812W        W20666  14.737   6.554  11.447 -0.0048  0.1993 -0.3260
 1813W        W20667   8.168   1.757  11.949  0.0910  0.0208 -0.0433
 1814W        W20668  14.225  13.609   1.101 -0.1079  0.3227 -0.0020
 1815W        W20669  10.681  16.639  12.049  0.1187 -0.0139  0.3506
 1816W        W20670   8.264   1.920   1.378  0.3674 -0.1273  0.1176
 1817W        W20671  16.508   0.722   1.085 -0.1896  0.0822 -0.0861
 1818W        W20672   5.561   9.062  14.591 -0.1017 -0.0763  0.2732
 1819W        W20673   9.477   3.478   0.705  0.1910 -0.0900  0.4927
 1820W        W20674   3.232  16.108   1.838 -0.1955  0.4646 -0.0009
 1821W        W20675   2.657  18.247   2.015 -0.0584  0.0264 -0.1730
 1822W        W20676  15.564   0.500   3.789  0.1730 -0.0481 -0.0105
 1823W        W20677   2.169  16.583  11.111  0.0175  0.1533  0.2519
 1824W        W20678   2.426  16.336   0.537 -0.0073  0.0042 -0.0471
 1825W        W20679   8.020  17.381  10.393 -0.0646  0.1217  0.0012
 1826W        W20680   5.983   5.042  12.676  0.0358  0.0903 -0.0782
 1827W        W20681  11.066  14.826   0.967  0.2733 -0.0989  0.1437
 1828W        W20682   7.770   0.303   2.729 -0.2410 -0.0550 -0.0698
 1829W        W20683  16.447  16.444   1.522  0.0585 -0.1216  0.0636
 1830W        W20684   6.694   8.600   3.066 -0.0416  0.1489 -0.4779
 1831W        W20685  13.787  13.836   0.849  0.2153  0.0943 -0.0204
 1832W        W20686  13.637  13.438  13.787 -0.0914  0.0930  0.3859
 1833W        W20687   4.753   9.527   3.592 -0.4235  0.2831 -0.0024
 1834W        W20688  11.869   5.300   1.156 -0.0046 -0.1914 -0.1440
 1835W        W20689   3.120  18.566   2.918  0.0803 -0.1949  0.4026
 1836W        W20690  13.383  18.587  13.976  0.0656 -0.3156  0.0476
 1837W        W20691  11.431  15.226   0.221  0.1720  0.2153 -0.1396
 1838W        W20692  18.045   3.192  11.489 -0.2809 -0.1702 -0.4874
 1839W        W20693   1.987  15.267   4.451 -0.0603 -0.0560 -0.0740
 1840W        W20694  16.444   0.840  12.204 -0.0697 -0.4243  0.1202
 1841W        W20695   0.262  15.605   1.788  0.1719  0.0973  0.0089
 1842W        W20696  18.244   8.462   3.586 -0.0205 -0.0540 -0.1802
 1843W        W20697   7.436  10.202  14.718  0.0090  0.0513  0.4251
 1844W        W20698   4.879   6.947  11.543 -0.3256  0.0535 -0.2257
 1845W        W20699  19.045  13.735   3.384  0.0484 -0.3071 -0.1305
 1846W        W20700   0.605   5.625   1.048 -0.0528  0.0507 -0.0350
 1847W        W20701  17.876  18.444   1.386 -0.2927 -0.3234  0.2466
 1848W        W20702   1.521   1.119   0.572 -0.0717  0.0382  0.0252
 1849W        W20703   0.479   3.850   2.567 -0.0364 -0.1252 -0.0030
 1850W        W20704   7.923  18.690  12.328 -0.1365 -0.1172  0.2231
 1851W        W20705   0.045  18.579   0.163 -0.0554 -0.1596 -0.0843
 1852W        W20706  15.813   0.835   1.855 -0.1098 -0.0597  0.0120
 1853W        W20707  15.195   2.561   1.191  0.1124 -0.0553 -0.0942
 1854W        W20708   2.973   2.352  11.746 -0.0392  0.0604 -0.1633
 1855W        W20709   6.393   3.597   0.723 -0.2011 -0.2593 -0.4359
 1856W        W20710  13.988   3.822   2.420  0.0365  0.1430  0.0806
 1857W        W20711  15.923   7.947   0.124  0.0957 -0.0568 -0.0207
 1858W        W20712   4.154  13.857   0.285 -0.0754  0.0052  0.1059
 1859W        W20713   1.139  13.030   0.996  0.0960  0.2794 -0.0449
 1860W        W20714   1.497  11.584   1.745 -0.0878 -0.4424 -0.0128
 1861W        W20715   4.540  11.192  13.889  0.0595 -0.2017  0.0656
 1862W        W20716   3.943  16.872   1.372 -0.2920 -0.3636  0.1212
 1863W        W20717   9.904   7.199   4.292 -0.0373 -0.1669 -0.1935
 1864W        W20718   6.852   4.428  13.633  0.0462  0.2405  0.0997
 1865W        W20719   0.666  18.098   3.863  0.1625  0.0569 -0.2217
 1866W        W20720  17.221  15.412   2.086  0.2494  0.1600  0.0795
 1867W        W20721  14.130  19.123  12.732  0.2530 -0.1921  0.0147
 1868W        W20722  12.072  15.739  12.799  0.0609 -0.0680 -0.1145
 1869W        W20723   5.971   9.916  13.455  0.1505  0.1966 -0.0452
 1870W        W20724  14.535   8.326  13.517  0.2983  0.1137 -0.0442
 1871W        W20725   9.102   3.638  11.069 -0.1448 -0.1426  0.2637
 1872W        W20726  11.739   7.098   9.564  0.2302 -0.1083 -0.0547
 1873W        W20727   4.898   0.531   2.360 -0.2156  0.0721  0.2609
 1874W        W20728  17.886  11.977  14.015  0.0482  0.0798  0.1674
 1875W        W20729   4.677  15.264   2.129 -0.1437 -0.1964 -0.2754
 1876W        W20730  18.324   3.471   0.750 -0.1914  0.1379 -0.4020
 1877W        W20731  14.412  19.155  12.317  0.0215 -0.3381  0.1140
 1878W        W20732   4.171   7.782  14.253 -0.1635  0.1336  0.0137
 1879W        W20733   8.965   5.528  12.808 -0.0771  0.2138  0.2027
 1880W        W20734  18.502  18.711   0.894  0.2414  0.0461  0.0201
 1881W        W20735  10.288   1.854  10.940 -0.0953 -0.2082  0.1582
 1882W        W20736   8.923  14.437   3.510  0.2873 -0.3517  0.0755
 1883W        W20737   6.513  16.160   9.541  0.3771  0.1105 -0.1445
 1884W        W20738   9.487  11.000   3.498  0.0276 -0.0299 -0.0355
 1885W        W20739  10.753  12.410  14.130  0.1791 -0.1345 -0.0831
 1886W        W20740  10.341  17.455  14.558 -0.3241 -0.0016 -0.0495
 1887W        W20741   3.592  14.759   0.122 -0.2504 -0.0268 -0.1794
 1888W        W20742  11.582   0.167  11.824  0.0632  0.2874 -0.2682
 1889W        W20743   6.334  16.070  13.911  0.0614  0.1044 -0.1961
 1890W        W20744   4.969   2.654   3.776  0.0550  0.2365  0.0825
 1891W        W20745  16.715  17.396  11.142 -0.1756 -0.2696 -0.3227
 1892W        W20746   3.118   0.909   0.560 -0.3224 -0.3076 -0.1553
 1893W        W20747   5.612   6.419   4.528  0.4791 -0.0813 -0.1424
 1894W        W20748  19.139   5.448   3.325 -0.1211 -0.1385 -0.1803
 1895W        W20749   2.913   7.136   3.867  0.2439 -0.1240 -0.1290
 1896W        W20750  16.588  16.112  11.374  0.1674 -0.2364 -0.2947
 1897W        W20751   8.088   7.083  14.314  0.2582  0.1526 -0.1367
 1898W        W20752   8.989   1.086  14.088  0.3183  0.1439  0.1478
 1899W        W20753  13.132  14.783  11.513 -0.0156 -0.0159 -0.0230
 1900W        W20754  17.050   7.947  13.734  0.3158  0.0861  0.0427
 1901W        W20755   0.157   0.406   2.455 -0.0127 -0.1207 -0.1592
 1902W        W20756   7.817   7.517  14.275 -0.0330  0.1011  0.1282
 1903W        W20757   7.395  10.439  11.339  0.0016 -0.2667 -0.1152
 1904W        W20758  12.932   2.263   2.664 -0.0994  0.1962 -0.1046
 1905W        W20759  17.702   6.138   0.877  0.0892 -0.0739  0.0125
 1906W        W20760  12.996  11.369  11.880  0.1160 -0.0016 -0.1991
 1907W        W20761  12.030  14.192  14.079 -0.0575 -0.2269  0.0568
 1908W        W20762   2.412   1.164   3.887 -0.1087 -0.0636  0.4276
 1909W        W20763  14.053  13.856   2.505 -0.0083  0.0791 -0.0679
 1910W        W20764  11.712  16.143  14.069 -0.4214 -0.0273  0.0272
 1911W        W20765   2.077   5.771   4.014  0.0050 -0.1911  0.2389
 1912W        W20766   5.062   5.179   3.502 -0.2478  0.0327 -0.1446
 1913W        W20767  18.337  17.773   3.349 -0.1802 -0.3558  0.2468
 1914W        W20768  12.205  13.225   3.530 -0.0797  0.2771  0.0702
 1915W        W20769  17.234  17.226  11.760 -0.0764  0.2147  0.1922
 1916W        W20770  12.995  16.292  14.240  0.1109 -0.0332 -0.0358
 1917W        W20771   8.850   0.392  13.098 -0.0679  0.2303  0.0306
 1918W        W20772   7.784  16.912  13.999 -0.1062  0.1869 -0.0074
 1919W        W20773  14.855   3.401  12.110 -0.1685  0.1814 -0.1595
 1920W        W20774   3.250   8.172   5.466  0.0899 -0.0955  0.0004
 1921W        W20775   8.011  11.591  11.476 -0.0408  0.2929 -0.3002
 1922W        W20776  14.354  13.299   3.251 -0.1116  0.0596  0.3104
 1923W        W20777   0.422   9.310   3.838  0.1951 -0.0221 -0.1373
 1924W        W20778  10.380  16.997   4.452  0.0746 -0.2379  0.0047
 1925W        W20779  13.055   5.638   2.394  0.0688  0.2381 -0.0173
 1926W        W20780   7.068   1.208   0.220  0.1759  0.0291 -0.2841
 1927W        W20781   6.658  13.038  10.670 -0.1182  0.0052  0.1391
 1928W        W20782  11.426   4.205   4.379  0.3336 -0.0464  0.2502
 1929W        W20783  14.440   4.322  11.945  0.3426  0.1727  0.3358
 1930W        W20784   5.174   9.246   0.126  0.0580  0.0437 -0.2984
 1931W        W20785  16.112   2.119   2.026  0.1297 -0.2144  0.0965
 1932W        W20786   5.310   8.120  13.935  0.1002 -0.0317  0.0575
 1933W        W20787   1.776  15.916  11.759  0.1215 -0.0131  0.1385
 1934W        W20788   9.512   3.582   2.460 -0.0018  0.0165 -0.1419
 1935W        W20789   3.570  13.003  11.738 -0.1593  0.0259  0.1521
 1936W        W20790  18.616   3.551  11.072 -0.0998  0.1566 -0.1448
 1937W        W20791  18.093   3.600   3.440  0.0738 -0.1031 -0.1000
 1938W        W20792   7.418  13.911   3.685 -0.0158 -0.1505  0.0235
 1939W        W20793   5.002  18.052   1.845  0.1436  0.1509  0.0006
 1940W        W20794   8.367  18.364  12.345 -0.2739 -0.0493 -0.0638
 1941W        W20795   5.159  16.089   9.791  0.3093 -0.0876  0.0352
 1942W        W20796   2.384  15.246   2.985  0.2840  0.1974  0.0885
 1943W        W20797  12.203  16.425   3.299 -0.0743 -0.3485  0.0512
 1944W        W20798  10.714  18.556   2.474 -0.3359  0.2086  0.1429
 1945W        W20799  16.177  13.293  11.277 -0.0689  0.3167 -0.0239
 1946W        W20800   8.822   5.969  10.462  0.2401  0.0372 -0.1001
 1947W        W20801  16.661  14.397  14.648  0.0972 -0.1678  0.2779
 1948W        W20802   1.368   5.550   9.917  0.1786 -0.3251  0.3230
 1949W        W20803  18.880   3.183   3.077  0.2700 -0.2392  0.2939
 1950W        W20804  12.315  17.280  10.622 -0.2684  0.1636 -0.0183
 1951W        W20805  10.501  12.407   3.754 -0.0619  0.0392 -0.2267
 1952W        W20806   4.290   5.929  12.366  0.1224  0.0501 -0.1482
 1953W        W20807  10.820   7.296   1.958 -0.3848 -0.1694 -0.1938
 1954W        W20808   2.350   9.228   1.209 -0.0179 -0.1323  0.2205
 1955W        W20809  15.647  10.243   0.559 -0.0674  0.1068  0.0155
 1956W        W20810  13.863   0.367   1.095 -0.0063 -0.1311  0.2656
 1957W        W20811  15.674   7.957   2.651  0.2715 -0.2903 -0.0766
 1958W        W20812   2.916   4.232   0.859  0.0878  0.1486  0.2417
 1959W        W20813   7.026  16.465   0.310  0.2257  0.0444  0.1850
 1960W        W20814   2.207  15.344   1.333  0.1306  0.0993 -0.0542
 1961W        W20815  13.006  19.037   4.263  0.0537  0.0759  0.0251
 1962W        W20816   0.501   3.705   0.688 -0.0197  0.2885  0.0915
 1963W        W20817  17.536  16.764   2.637 -0.2507  0.2245 -0.0575
 1964W        W20818   7.702  18.666   3.897  0.1861 -0.0636 -0.1298
 1965W        W20819  15.423   7.610  11.863 -0.0300  0.1485  0.0473
 1966W        W20820   1.625  16.793   0.968  0.1572  0.0302  0.2178
 1967W        W20821  13.852  14.181  14.200 -0.1236  0.0500 -0.0631
 1968W        W20822  11.135  16.435   9.295  0.1062 -0.0873 -0.2547
 1969W        W20823   2.902   2.294   4.250 -0.2812 -0.0515 -0.0181
 1970W        W20824  10.347   3.450   0.134  0.0673 -0.1631 -0.2044
 1971W        W20825  17.004   1.864  11.833 -0.2959 -0.0820 -0.1351
 1972W        W20826   5.160   1.359   2.503  0.1962 -0.3367 -0.0360
 1973W        W20827  14.340  11.993   3.732  0.1828 -0.0291 -0.1909
 1974W        W20828   6.889  12.104  12.938 -0.0173 -0.2540 -0.1168
 1975W        W20829  13.859  11.897  11.922 -0.3176  0.0847  0.0737
 1976W        W20830  17.541   9.346   3.815 -0.0942  0.1959 -0.3284
 1977W        W20831  12.478   0.520  12.682  0.0212  0.0049  0.0679
 1978W        W20832  17.747  17.811  12.463 -0.0401 -0.3853  0.1360
 1979W        W20833  14.412  15.692   3.208 -0.1356  0.1720  0.0030
 1980W        W20834   3.228   7.159  10.971  0.1677 -0.0562  0.3528
 1981W        W20835   9.775   6.029  13.641 -0.1170 -0.0106 -0.0293
 1982W        W20836  13.982   7.865   0.417 -0.0083  0.0100 -0.0279
 1983W        W20837  15.302   5.260  14.633 -0.0688 -0.3330 -0.0491
 1984W        W20838   2.328  18.600   4.215  0.1806  0.1591 -0.1775
 1985W        W20839  14.524   9.839  11.993  0.5995 -0.1959  0.1030
 1986W        W20840  17.344   6.996  10.310  0.0085 -0.1485 -0.0225
 1987W        W20841  18.105  11.769   0.304  0.2473  0.0886  0.0566
 1988W        W20842  13.415  14.606  11.943  0.0695 -0.0301  0.1210
 1989W        W20843  13.085  18.796  14.323  0.0917  0.1699 -0.2560
 1990W        W20844  18.078   7.350   3.892 -0.2690 -0.2778  0.1562
 1991W        W20845   6.911   9.346   2.652  0.1732  0.0801 -0.1844
 1992W        W20846  15.163  14.971   0.324 -0.1837  0.0322 -0.0919
 1993W        W20847  12.497   1.293   1.733 -0.0436  0.1376 -0.0393
 1994W        W20848   3.484   2.468  13.210  0.4974 -0.0574  0.1439
 1995W        W20849  15.406   9.767  12.650 -0.0668  0.1745  0.2611
 1996W        W20850  14.187   9.689   1.113  0.2389  0.4681  0.1516
 1997W        W20851   9.861   4.674  10.391 -0.2136  0.1536 -0.2552
 1998W        W20852  17.563   7.282   1.658  0.1548 -0.0265 -0.1895
 1999W        W20853   2.792   4.425   3.445 -0.0633 -0.3048  0.2671
 2000W        W20854   1.929  10.079  12.777  0.1640  0.0812 -0.0579
 2001W        W20855  10.924  11.960   0.137  0.1474 -0.1566 -0.1610
 2002W        W20856   2.699  14.681  10.855  0.1108  0.1018 -0.1345
 2003W        W20857  11.395  12.538   0.638  0.4700  0.3106  0.0339
 2004W        W20858   4.119   4.748  14.076  0.1836 -0.3052  0.3211
 2005W        W20859   5.662  14.483   1.743  0.0034  0.1114  0.0776
 2006W        W20860  18.380  14.744   3.413  0.1675  0.0953 -0.2146
 2007W        W20861   7.563   8.534  14.434 -0.0460 -0.1045 -0.1369
 2008W        W20862   1.527   3.037   2.831  0.2146 -0.2481  0.0410
 2009W        W20863  13.355   8.215  11.717 -0.2280 -0.2938 -0.1518
 2010W        W20864  17.150  16.558   1.222  0.2030  0.0477  0.1866
 2011W        W20865   6.157  17.352  11.410  0.4130 -0.2028 -0.7233
 2012W        W20866   8.305   2.668  13.042  0.2298  0.1501  0.0601
 2013W        W20867   8.517   6.985   1.843 -0.0235  0.0294  0.1669
 2014W        W20868   2.930  10.177  12.990  0.2727 -0.2804 -0.2974
 2015W        W20869  16.591   4.605  12.860  0.1570  0.0894  0.0527
 2016W        W20870   9.343   1.991  10.493  0.2485  0.2963 -0.2976
 2017W        W20871   7.218   8.090   0.175  0.2738 -0.0259 -0.0664
 2018W        W20872   5.250   3.363   4.278 -0.1742  0.2856  0.1996
 2019W        W20873  13.672   2.087  13.873 -0.0492 -0.1255 -0.1264
 2020W        W20874   1.175   5.543  10.393 -0.0033 -0.0119 -0.0308
 2021W        W20875   6.283  17.562   3.982 -0.0736 -0.3877  0.4880
 2022W        W20876   3.713   1.290  12.278 -0.0137 -0.1419 -0.0335
 2023W        W20877   5.699   1.366  11.942  0.0285  0.1155  0.2726
 2024W        W20878   7.636  16.226  11.923 -0.0364 -0.4051  0.0396
 2025W        W20879   7.659   1.848   2.503  0.3283  0.3154  0.2512
 2026W        W20880  16.901   1.484  13.575  0.1186 -0.1519 -0.1093
 2027W        W20881   6.778   5.676   4.164  0.1299  0.3368  0.0384
 2028W        W20882  15.989   3.001   3.702 -0.2438 -0.2206  0.0694
 2029W        W20883   9.543  16.467  10.712 -0.0601 -0.2344  0.4756
 2030W        W20884   8.651  12.203   0.102  0.1590  0.0227  0.1323
 2031W        W20885  11.482  12.978  12.457 -0.2085  0.2628 -0.0411
 2032W        W20886  10.456   8.840  13.111  0.2330 -0.1473 -0.2730
 2033W        W20887  15.082  13.676  13.065  0.1412  0.0214 -0.0018
 2034W        W20888   2.667  13.526   1.579  0.1036 -0.0727 -0.2806
 2035W        W20889   9.897  13.276  11.392  0.0486 -0.3028 -0.1492
 2036W        W20890   1.466   8.577   5.078  0.2612 -0.1275  0.1314
 2037W        W20891   8.536  13.981  12.429  0.1049  0.0130  0.0816
 2038W        W20892   1.932   5.108   1.605  0.1570  0.1364 -0.1351
 2039W        W20893   0.752   5.122   1.314  0.1105 -0.2252  0.0141
 2040W        W20894  10.146   9.687   0.745  0.1840  0.3233 -0.0090
 2041W        W20895  18.312  12.793   3.013 -0.0775 -0.1700 -0.0346
 2042W        W20896  14.603  13.360   2.004 -0.2002  0.2027 -0.0656
 2043W        W20897  11.800  11.745  11.865  0.0207 -0.2410 -0.1966
 2044W        W20898   8.476  15.705  14.701 -0.1424 -0.1421  0.0732
 2045W        W20899   2.607   0.263  13.178  0.0821  0.1140  0.0345
 2046W        W20900  18.772   5.542  14.002  0.1054  0.0071  0.3865
 2047W        W20901   4.184   0.475  10.418 -0.0156 -0.0778  0.0781
 2048W        W20902   8.441  17.468  12.350 -0.1677  0.2033  0.1263
 2049W        W20903   0.017  14.242   1.725 -0.1028 -0.2111  0.0312
 2050W        W20904  10.534  16.908   0.552 -0.1708  0.2421 -0.0553
 2051W        W20905  16.777   6.941   2.720 -0.1935  0.0950  0.1870
 2052W        W20906  11.401   5.208   0.460 -0.2487 -0.3030  0.2733
 2053W        W20907   4.662  10.287  12.499  0.2189  0.0563 -0.2315
 2054W        W20908  12.214   9.630   0.113 -0.0912 -0.1980 -0.0852
 2055W        W20909  11.440  18.622  13.675  0.2622 -0.2180 -0.0971
 2056W        W20910   5.581  18.014   5.345  0.0525  0.0168  0.0329
 2057W        W20911  13.739   4.105   2.910  0.1070  0.1303  0.0601
 2058W        W20912   1.767  14.709   4.381 -0.6359 -0.1922 -0.3793
 2059W        W20913  18.070  17.798   2.882  0.2187  0.0872 -0.3786
 2060W        W20914   4.472  11.490   3.582  0.1094  0.0343  0.0815
 2061W        W20915   7.852   8.615   2.249 -0.0564 -0.0140 -0.0764
 2062W        W20916   4.030   4.620   3.327  0.2496 -0.3571  0.0314
 2063W        W20917  14.421  15.285   1.139 -0.0201  0.2130  0.3015
 2064W        W20918   3.725   1.578   2.552  0.1732  0.0599 -0.1089
 2065W        W20919   3.462   4.573  11.390  0.2125  0.0104 -0.2854
 2066W        W20920   6.948   5.552   3.706 -0.1404  0.2346 -0.1446
 2067W        W20921  16.210   1.927   2.905 -0.1830  0.2381  0.0289
 2068W        W20922   6.803  11.619  13.883  0.1178  0.2888 -0.0698
 2069W        W20923   4.092  17.950   2.006  0.1316  0.0795  0.0369
 2070W        W20924  12.641  13.275   4.072 -0.0304 -0.1633 -0.0522
 2071W        W20925   5.838   5.226   2.747  0.0539  0.2731 -0.1222
 2072W        W20926   5.269  15.570  14.736 -0.1124  0.1658 -0.2365
 2073W        W20927   9.060   5.032   0.131  0.0681  0.1236  0.0787
 2074W        W20928   3.587  13.937  12.761 -0.0055  0.2132 -0.0396
 2075W        W20929  10.562  18.239  14.773  0.0977 -0.1442 -0.2081
 2076W        W20930   9.457   1.240   0.791  0.0627  0.1046  0.1328
 2077W        W20931  15.196   2.657  11.593  0.1251  0.0946 -0.1706
 2078W        W20932   3.227   1.419  13.903 -0.0861  0.1140  0.0774
 2079W        W20933  12.724   5.284   2.504 -0.1408 -0.2091  0.1784
 2080W        W20934  19.151  13.637  12.303  0.0239  0.0269  0.0948
 2081W        W20935   7.268  18.912  13.448  0.0058 -0.0033 -0.2020
 2082W        W20936   9.477  17.118   2.052 -0.1055  0.0346  0.0003
 2083W        W20937  17.495   2.348   0.356  0.3083  0.2880  0.2819
 2084W        W20938   9.978   7.670  12.573 -0.1388  0.2068 -0.3522
 2085W        W20939  17.149   2.971  12.587  0.0981  0.2452  0.0963
 2086W        W20940  12.259  11.484   4.490  0.0562 -0.2888  0.1846
 2087W        W20941   5.920  13.808  13.537  0.1854 -0.0830  0.0486
 2088W        W20942   7.106  13.499  14.587  0.2702 -0.3070  0.0932
 2089W        W20943  13.402   5.145   1.342 -0.1371 -0.2396 -0.0507
 2090W        W20944  13.889  11.187  11.128  0.3787  0.0040 -0.2095
 2091W        W20945   2.076  13.617  12.282  0.0315 -0.1184 -0.0568
 2092W        W20946   7.132  11.163   4.000 -0.0309  0.3069 -0.0537
 2093W        W20947   0.527   4.598  13.240  0.0562 -0.2776  0.0374
 2094W        W20948   2.600   8.840   1.025  0.0771 -0.1252 -0.2487
 2095W        W20949  11.311   9.490  11.043 -0.3427  0.0284 -0.1844
 2096W        W20950   5.561  10.153  10.399  0.3424 -0.0066 -0.3908
 2097W        W20951   6.642   2.747  11.971 -0.1078 -0.2549  0.1750
 2098W        W20952  11.666  18.100  11.244 -0.1849  0.2961 -0.1118
 2099W        W20953   3.752   4.001  13.677 -0.4042 -0.0509  0.1724
 2100W        W20954  10.025  11.895  10.704  0.2948 -0.0723 -0.0723
 2101W        W20955   5.139   6.448  12.085  0.0359  0.0948 -0.0201
 2102W        W20956   8.921   6.355  12.336  0.0013 -0.1401  0.2093
 2103W        W20957   5.529   6.246  10.569  0.0834  0.1938  0.3175
 2104W        W20958  15.728  18.347   4.096 -0.0775  0.1297 -0.1067
 2105W        W20959   0.689   5.530   0.564 -0.1483  0.1299 -0.1066
 2106W        W20960   6.623   9.239  10.532  0.2711  0.1492 -0.0967
 2107W        W20961   6.767  15.723  11.606  0.1184 -0.1523  0.0480
 2108W        W20962  12.355   1.504   5.469  0.1093 -0.1943  0.0705
 2109W        W20963   3.474  12.557  10.897 -0.5569  0.0928  0.1714
 2110W        W20964  15.005  14.576  14.700  0.0332 -0.0192 -0.0839
 2111W        W20965   1.494   8.497  14.595 -0.3183 -0.2458 -0.2478
 2112W        W20966   7.125  16.057  11.459 -0.0312 -0.2793 -0.1409
 2113W        W20967  14.443  11.920  11.019 -0.0810  0.2051  0.4606
 2114W        W20968  15.192   6.438   2.616  0.0736 -0.1471 -0.1540
 2115W        W20969  11.001   3.695   3.649  0.0705 -0.0663 -0.0067
 2116W        W20970   1.371   0.816  12.617 -0.0681  0.0987 -0.0296
 2117W        W20971   2.077   7.677  11.793 -0.0319  0.0119 -0.1293
 2118W        W20972  16.958   2.934   0.491  0.0160  0.0312  0.2077
 2119W        W20973   1.894  14.043   2.324 -0.0288  0.1056 -0.0990
 2120W        W20974  16.938  10.581  14.398 -0.0359 -0.0402  0.1019
 2121W        W20975  11.977   2.577   4.840  0.0070 -0.1134  0.2332
 2122W        W20976  16.523  15.185  13.263 -0.0037  0.2078 -0.0857
 2123W        W20977   4.371  12.238  12.117  0.2618  0.0482 -0.3869
 2124W        W20978   3.112   2.623  10.401  0.0697  0.0949  0.0791
 2125W        W20979   4.126   8.294   0.516 -0.0241 -0.0496  0.0640
 2126W        W20980  17.358   3.247   0.889 -0.3778  0.1206  0.0836
 2127W        W20981   0.544   0.844   0.270 -0.1347  0.0836  0.1332
 2128W        W20982  11.314   9.906  10.603 -0.0820 -0.3341 -0.1094
 2129W        W20983  13.322   8.885   0.680  0.0858 -0.5007  0.3920
 2130W        W20984  19.010  17.009   3.493  0.1524 -0.0733  0.0704
 2131W        W20985  12.141   9.488  14.415  0.0743 -0.0211 -0.1402
 2132W        W20986   7.179  15.796   2.946  0.4125  0.3943  0.0508
 2133W        W20987  10.597  15.915  11.327  0.2039  0.3647 -0.1502
 2134W        W20988  18.982   0.907   1.600 -0.1766  0.1788  0.0941
 2135W        W20989   0.452  10.918   3.069 -0.2230 -0.0797  0.0165
 2136W        W20990   0.771   0.869   1.815  0.0730  0.0915 -0.2575
 2137W        W20991   7.441  16.170   1.506 -0.2452 -0.1111 -0.0708
 2138W        W20992  14.433  10.837   0.027 -0.0141 -0.0791 -0.1511
 2139W        W20993  12.897  19.127  12.101 -0.1257 -0.1107  0.0248
 2140W        W20994  16.326   9.540   1.540 -0.0578  0.1839  0.0792
 2141W        W20995  18.937   6.582   3.739  0.1654  0.0688 -0.1935
 2142W        W20996  13.030   1.343  13.151  0.1791  0.2299  0.3610
 2143W        W20997   7.013  18.693  14.684 -0.0430 -0.1456  0.0575
 2144W        W20998  19.017  15.133  14.248 -0.1806  0.0502  0.1648
 2145W        W20999  17.904   6.711  12.669  0.0753 -0.0811  0.4451
 2146W        W21000  14.526  17.869   3.609 -0.1553 -0.2867  0.0583
 2147W        W21001   0.441  12.789   1.110  0.3628  0.1684 -0.0906
 2148W        W21002   2.627  10.030   1.777 -0.3589  0.0545 -0.0788
 2149W        W21003   4.241   3.923   1.488  0.0432 -0.2243 -0.0046
 2150W        W21004  14.181   8.383   3.544  0.0069  0.0078  0.0791
 2151W        W21005  14.469  14.371   5.221 -0.1064 -0.0822  0.2076
 2152W        W21006  18.119   8.190  14.664  0.2238 -0.0715  0.2923
 2153W        W21007  18.913  18.753   0.569  0.0621 -0.0647 -0.0171
 2154W        W21008  10.831   3.441  14.046  0.2653 -0.0702  0.1417
 2155W        W21009  13.463  18.968  13.582  0.3115  0.1049  0.1531
 2156W        W21010  15.223  19.029  13.313 -0.1119 -0.0146 -0.0995
 2157W        W21011   9.052  13.373  13.449  0.2757  0.2434  0.1888
 2158W        W21012  12.393   6.601   2.017 -0.2260 -0.1126 -0.2446
 2159W        W21013   8.498  13.236  13.581  0.1204  0.4217  0.0295
 2160W        W21014  17.393  13.310   3.670 -0.0743  0.1347 -0.3372
 2161W        W21015   2.761   8.952  10.439 -0.2494 -0.1863  0.0404
 2162W        W21016   4.505   9.676   0.419  0.2592  0.2195 -0.0959
 2163W        W21017  12.807  14.052   1.278  0.1325  0.1524 -0.1576
 2164W        W21018   9.561   2.199   2.084  0.0277  0.1937 -0.0540
 2165W        W21019  16.923   2.602   4.299 -0.0427 -0.0567 -0.0443
 2166W        W21020  16.671  15.951  11.896 -0.0881 -0.0834  0.2072
 2167W        W21021  19.058   5.262   0.056  0.1204 -0.2633 -0.0293
 2168W        W21022  16.137   2.801  12.108 -0.0817  0.2797  0.2217
 2169W        W21023   1.361   3.262  14.762  0.0320  0.0509  0.0573
 2170W        W21024   4.116   0.378  11.991  0.2344 -0.1382  0.2750
 2171W        W21025   6.107  18.808   2.083 -0.1340  0.0958  0.1063
 2172W        W21026  14.283  12.671  13.148  0.2522 -0.1668 -0.0486
 2173W        W21027  15.423  16.017   3.456  0.1712  0.1622  0.0245
 2174W        W21028  11.198   7.218  11.485 -0.2383  0.3360 -0.0693
 2175W        W21029   4.289   2.877  11.898 -0.4537 -0.0877 -0.0233
 2176W        W21030  17.742  14.544   3.169 -0.3658 -0.1848  0.2371
 2177W        W21031   5.974   4.429   1.791  0.3097 -0.1371  0.2004
 2178W        W21032  12.798  17.175  13.592 -0.3796  0.2281  0.1633
 2179W        W21033   8.942   7.688   4.342 -0.1245 -0.1160 -0.0524
 2180W        W21034  11.817   3.962  10.803  0.2018 -0.0615  0.1967
 2181W        W21035   8.019   0.437   2.271 -0.1843 -0.0666 -0.0110
 2182W        W21036   0.544   4.029  13.177 -0.1800 -0.0461 -0.2100
 2183W        W21037   1.106   5.888  14.464  0.3812  0.2235  0.1297
 2184W        W21038   4.233   6.999   1.923 -0.1602  0.0786 -0.1477
 2185W        W21039   4.846   7.180   3.442 -0.1128  0.0878 -0.0050
 2186W        W21040   8.157  13.821  11.567 -0.0410 -0.0261 -0.0307
 2187W        W21041   3.422   5.703   0.040 -0.1211 -0.0583 -0.0377
 2188W        W21042   4.915  14.640  13.800 -0.0426  0.1777  0.2360
 2189W        W21043   3.595  11.483   3.843 -0.0854 -0.3555 -0.0269
 2190W        W21044  14.777   0.400   0.737 -0.0264 -0.0669  0.0103
 2191W        W21045  13.214   9.285   0.906  0.1476 -0.2596  0.0953
 2192W        W21046  10.401  17.087   3.888 -0.2169 -0.1499 -0.0773
 2193W        W21047  17.128   9.884  10.669 -0.0021  0.0255  0.0603
 2194W        W21048   8.027  11.948  12.153  0.0579  0.0406  0.1032
 2195W        W21049   5.345   7.341  13.343 -0.1134  0.0689  0.2703
 2196W        W21050   6.199   3.298   1.122  0.0206  0.5874  0.4810
 2197W        W21051   4.468   1.239   3.075  0.0835 -0.0197 -0.0352
 2198W        W21052  15.987   8.161   0.568  0.3220 -0.2685 -0.0426
 2199W        W21053   5.180   4.255  10.790  0.2659 -0.0773  0.2930
 2200W        W21054  17.846   7.810  11.696  0.0443 -0.1280 -0.0150
 2201W        W21055   3.449   6.708  13.097  0.1200  0.2962  0.0840
 2202W        W21056  17.148   0.604   0.907  0.0455 -0.2564 -0.0826
 2203W        W21057   3.336  12.562  13.086  0.0903 -0.1662 -0.1366
 2204W        W21058  13.958   0.284  11.010  0.0522 -0.2565  0.0613
 2205W        W21059  16.916  16.223  10.593  0.0079 -0.0811 -0.3033
 2206W        W21060   5.886  12.629   1.122 -0.0080 -0.1343  0.0305
 2207W        W21061  15.179   0.130   1.954 -0.2661  0.1758 -0.2005
 2208W        W21062   7.361  16.746   3.481 -0.0416  0.1550  0.2242
 2209W        W21063   3.761   0.653   2.301 -0.0330 -0.1991 -0.2137
 2210W        W21064  10.568  11.359   2.260 -0.2442 -0.0003  0.2010
 2211W        W21065  11.158   5.549   9.613 -0.2158  0.5910 -0.2922
 2212W        W21066  10.262   5.858  13.333  0.0822 -0.1826  0.1660
 2213W        W21067   2.094   1.702  13.259  0.1093  0.0683  0.0768
 2214W        W21068   1.843   6.542  12.950  0.0727 -0.0193 -0.3328
 2215W        W21069   2.278   1.024   4.715 -0.1254  0.0205  0.3494
 2216W        W21070  10.410   2.553   1.913 -0.0951 -0.2952 -0.0350
 2217W        W21071   5.125   4.108   1.958  0.0277  0.0357 -0.2531
 2218W        W21072  11.495  17.882  12.723 -0.0292  0.2495 -0.0468
 2219W        W21073   2.999  14.707  14.379 -0.0494  0.1023  0.1870
 2220W        W21074  10.088   1.929   4.308  0.0433  0.2228  0.1321
 2221W        W21075  18.068   6.385   1.108  0.0825 -0.1530  0.3946
 2222W        W21076  17.723  17.679   2.325  0.1635 -0.2276 -0.2159
 2223W        W21077  18.680   0.304  14.145 -0.1007  0.3676  0.1562
 2224W        W21078   7.653   2.743  11.929 -0.1658 -0.2249  0.0435
 2225W        W21079   0.393  13.340  13.830  0.0026  0.2427  0.1101
 2226W        W21080  18.543   3.446   3.475  0.2980  0.1721 -0.0459
 2227W        W21081   0.994  12.332  14.726  0.0956  0.0019 -0.0967
 2228W        W21082   1.859   7.119  12.580 -0.0323 -0.0361  0.1183
 2229W        W21083  15.576  17.900   4.249  0.0184 -0.0109  0.0004
 2230W        W21084  11.064   4.578   0.080  0.1005  0.1570  0.5027
 2231W        W21085  12.576   5.566  14.595 -0.0389 -0.1655  0.1555
 2232W        W21086   9.519  17.408  13.124  0.0704 -0.3141  0.3273
 2233W        W21087   5.004   8.848  13.274 -0.2969 -0.3036 -0.1516
 2234W        W21088   7.344   0.942  14.030  0.2827 -0.1215 -0.0285
 2235W        W21089   1.189   5.716   4.631 -0.4487  0.0828 -0.0770
 2236W        W21090   0.148  13.192   0.462 -0.0138  0.1838  0.1183
 2237W        W21091   4.666   1.677  10.614 -0.0739  0.0333 -0.1531
 2238W        W21092  11.493   1.990   3.813 -0.0589  0.0187 -0.0657
 2239W        W21093   4.938   2.433  10.758  0.2938  0.1842  0.1686
 2240W        W21094   4.091  11.120  13.492  0.1874  0.1310  0.0883
 2241W        W21095  16.567  14.646   2.779 -0.3644  0.0186  0.2532
 2242W        W21096   6.841   2.302  11.789 -0.0212 -0.2310  0.2082
 2243W        W21097  17.506   9.753  14.278 -0.0319  0.3308  0.0906
 2244W        W21098   2.791   9.683  11.813  0.1938 -0.4290  0.0904
 2245W        W21099   5.963  11.379   4.737  0.0784 -0.2638  0.2312
 2246W        W21100   3.288  12.241   3.550  0.1010 -0.0473  0.1233
 2247W        W21101  17.870  15.605  14.520  0.0314 -0.2023  0.1160
 2248W        W21102  18.503  11.113   2.272  0.0757  0.2562  0.3068
 2249W        W21103  15.775  16.204  14.152  0.0377 -0.0359 -0.2764
 2250W        W21104  12.050  14.006   5.026 -0.2521 -0.4129 -0.0334
 2251W        W21105  18.276  18.957  11.107  0.0916 -0.0793 -0.0516
 2252W        W21106  15.225  16.990  11.045  0.1391  0.2770  0.1104
 2253W        W21107   3.088   8.835   2.974 -0.3378  0.2020  0.3362
 2254W        W21108   4.331  10.648  12.159 -0.0910 -0.0724  0.1331
 2255W        W21109  13.734  10.574   4.443 -0.1178  0.1216 -0.3805
 2256W        W21110  16.835   0.093   5.280 -0.0168  0.0668  0.0314
 2257W        W21111   6.510   1.827  11.873  0.2474  0.0172 -0.0480
 2258W        W21112   1.908  13.220   4.246 -0.0875 -0.1172  0.0213
 2259W        W21113   4.036  11.284   2.673 -0.1921  0.3688  0.1894
 2260W        W21114  18.813  16.202   3.542  0.1183  0.1282 -0.1014
 2261W        W21115  16.288  11.638   4.658  0.0917 -0.1015 -0.0270
 2262W        W21116  16.893  17.152   2.365 -0.1723 -0.3378  0.0306
 2263W        W21117  16.800   5.939  13.504 -0.2441 -0.1978 -0.1326
 2264W        W21118  11.240   0.811   2.429  0.2387 -0.0397 -0.1243
 2265W        W21119   6.188   3.809  12.912  0.1883  0.3194  0.3285
 2266W        W21120   3.283  14.333   3.009  0.0819 -0.2426  0.4831
 2267W        W21121  12.113   0.622   0.393 -0.1385 -0.1594  0.1149
 2268W        W21122   6.300  12.762  12.650  0.1341  0.1442 -0.1047
 2269W        W21123   7.695   5.936   0.205  0.1539  0.0343  0.2009
 2270W        W21124   1.654   6.996  11.969 -0.3906 -0.1257  0.0717
 2271W        W21125  14.823  15.252   3.710  0.2305 -0.0035 -0.2110
 2272W        W21126  14.864   1.208   0.916  0.2649  0.0066  0.0129
 2273W        W21127  13.075   7.510   0.551 -0.1327 -0.3667 -0.0337
 2274W        W21128  15.476  13.704   0.344  0.0086 -0.2749 -0.3213
 2275W        W21129  16.914  10.556   1.014  0.0615  0.0036 -0.0623
 2276W        W21130   3.900   7.045  14.600  0.1874  0.4029 -0.0335
 2277W        W21131  18.219  14.915   3.856 -0.2008 -0.1320  0.3795
 2278W        W21132  11.787   8.133   1.882 -0.2810  0.1922 -0.0499
 2279W        W21133  15.505   5.606   2.479  0.0357 -0.0841 -0.0180
 2280W        W21134  10.423   7.383  14.734  0.0659 -0.1813  0.2070
 2281W        W21135   3.364  13.213   2.680  0.3305  0.0415  0.0913
 2282W        W21136  13.930   0.894   4.800  0.0661  0.2049 -0.0833
 2283W        W21137  18.046   7.031   5.235 -0.1750 -0.1845 -0.1351
 2284W        W21138   6.173  13.573   3.335  0.0424 -0.0016 -0.0413
 2285W        W21139   7.453  13.927  14.467 -0.0956  0.1065  0.2307
 2286W        W21140  18.361  18.377  12.614  0.1412  0.1470 -0.0645
 2287W        W21141  14.265   3.369  14.781 -0.1767  0.2461 -0.3638
 2288W        W21142  12.197  18.478   2.264 -0.1075  0.0126  0.0665
 2289W        W21143   3.680   3.846   0.514  0.1289 -0.0298 -0.0514
 2290W        W21144  10.975   4.126   4.243 -0.0332  0.1011 -0.2234
 2291W        W21145  16.788  13.476   1.584  0.3082  0.1750 -0.1482
 2292W        W21146   8.516  11.967  14.013  0.0818  0.1949  0.0914
 2293W        W21147   8.040  13.855   2.760  0.0932 -0.1729 -0.1179
 2294W        W21148  16.751  11.183   2.193  0.4049  0.1436  0.0917
 2295W        W21149   4.994   3.637  10.306  0.0730  0.2182  0.3123
 2296W        W21150  13.985   1.895  12.732  0.1648 -0.1502 -0.2859
 2297W        W21151   2.610   7.464   4.050 -0.2258 -0.1612  0.0825
 2298W        W21152   2.149   6.176  11.055  0.1246 -0.0305  0.0272
 2299W        W21153  13.439  10.171   1.374  0.3394  0.1962 -0.2872
 2300W        W21154  14.890   7.470  13.602 -0.5687 -0.0213 -0.0184
 2301W        W21155  11.003  16.397  13.353 -0.0643 -0.1273 -0.0417
 2302W        W21156   4.218  10.018   0.658 -0.0162  0.0814  0.2702
 2303W        W21157  11.385   7.008   3.009  0.0698 -0.0054 -0.0110
 2304W        W21158  15.230  18.019  11.526 -0.3408 -0.0470 -0.1744
 2305W        W21159   3.471  13.257   3.723 -0.3178  0.1699  0.1674
 2306W        W21160   8.822   1.024  10.503 -0.0039  0.3631  0.0370
 2307W        W21161  14.232   7.394   0.755  0.0921 -0.1133 -0.1542
 2308W        W21162  18.405  13.362  12.423 -0.0223  0.4642  0.1052
 2309W        W21163   4.945   8.682  11.281 -0.2528 -0.2055 -0.0493
 2310W        W21164   3.041  15.499   9.816  0.1442 -0.0568  0.0108
 2311W        W21165   3.170   5.575   3.714 -0.2079 -0.2079 -0.0891
 2312W        W21166  17.738  12.489  14.191  0.1981 -0.4103  0.0073
 2313W        W21167  12.070   2.210  11.064 -0.2812 -0.2264 -0.0897
 2314W        W21168  13.086   1.193  14.289  0.1265 -0.1395 -0.2324
 2315W        W21169   3.918   7.221   2.288 -0.2316 -0.2607 -0.1654
 2316W        W21170  15.969   0.874   2.989 -0.2402  0.3167 -0.2356
 2317W        W21171  11.963   4.225  14.620 -0.0365  0.1923  0.0076
 2318W        W21172   3.056   9.688   0.996 -0.1505  0.1523  0.4331
 2319W        W21173   1.953   3.331  11.551 -0.1026 -0.2112 -0.0797
 2320W        W21174   9.123   5.109  10.042 -0.0190  0.0357 -0.1226
 2321W        W21175   7.296   2.846  10.771  0.1115 -0.3099 -0.0108
 2322W        W21176   5.717  17.070   1.234  0.2534  0.0548  0.0302
 2323W        W21177  13.724   2.478   0.088 -0.1558 -0.0353 -0.2797
 2324W        W21178  15.804   4.842  12.218  0.1695 -0.0647 -0.1364
 2325W        W21179  10.108   7.279   0.772  0.4221  0.3937  0.0708
 2326W        W21180   0.983   8.105   3.993  0.3485  0.2313 -0.1855
 2327W        W21181  13.792  18.472   3.786  0.1895 -0.1417 -0.0125
 2328W        W21182   6.280  14.024  10.669 -0.3810 -0.0907  0.1780
 2329W        W21183   0.217   2.262   2.770  0.0778  0.0478  0.2049
 2330W        W21184  13.662  15.879  14.144 -0.0495  0.0120 -0.0200
 2331W        W21185  19.030  14.787   2.933  0.2489 -0.2160  0.0398
 2332W        W21186  18.426   7.054  12.810  0.1826 -0.4158  0.2678
 2333W        W21187  17.461   5.996  14.204 -0.1519 -0.1847 -0.2889
 2334W        W21188   3.804  16.220   3.712 -0.1831  0.2330  0.1437
 2335W        W21189   3.371   7.599  12.632  0.0849  0.1677 -0.1953
 2336W        W21190  17.815  14.380   0.742  0.3848  0.2226  0.0018
 2337W        W21191   3.093   5.244  13.715  0.1366 -0.0435  0.3396
 2338W        W21192  14.273  13.813   0.136  0.3395  0.0139 -0.0085
 2339W        W21193   7.735  14.885  14.764 -0.3363 -0.3107  0.0565
 2340W        W21194   8.314   2.011   0.777  0.3062 -0.2653 -0.1440
 2341W        W21195   2.622  13.304   3.943  0.2552  0.3120  0.1869
 2342W        W21196   0.906  18.299   1.398 -0.1989  0.1403 -0.4350
 2343W        W21197   6.438  13.904   0.579 -0.0869 -0.1060  0.2153
 2344W        W21198  18.128  12.128  12.726 -0.1292  0.1241  0.0623
 2345W        W21199   5.531  13.668  11.139  0.2896  0.2296 -0.0991
 2346W        W21200   5.937  15.878  11.566  0.0640 -0.6245  0.2367
 2347W        W21201  17.024   2.198  10.943  0.1046  0.1174 -0.4436
 2348W        W21202   0.340  12.001  12.385  0.0060 -0.2151 -0.0300
 2349W        W21203   0.059   4.181  13.131 -0.0177 -0.0685 -0.0195
 2350W        W21204  16.304   5.514  11.258 -0.2659  0.1992  0.2838
 2351W        W21205  11.872  15.294  14.581  0.3426  0.2807 -0.2481
 2352W        W21206  12.293   1.691   2.053  0.2457  0.0052 -0.2131
 2353W        W21207  19.024   1.365  11.108 -0.0302  0.1483 -0.0258
 2354W        W21208  14.829   0.024  10.608  0.1221  0.0854 -0.1045
 2355W        W21209  14.289   8.927   0.745  0.0305  0.2291 -0.2025
 2356W        W21210  11.514  12.499   1.567 -0.1772 -0.0144  0.0562
 2357W        W21211   0.746   3.595   4.036 -0.3312  0.1774 -0.2416
 2358W        W21212   6.151   9.905  12.657  0.0377 -0.3135 -0.0975
 2359W        W21213   8.454   4.741   0.517  0.0724  0.3026 -0.2330
 2360W        W21214   8.104   6.720  11.278  0.4771  0.0973 -0.0995
 2361W        W21215   3.942  10.667  14.371 -0.2472  0.0421 -0.4808
 2362W        W21216  18.680  14.742  14.155  0.2848 -0.0350  0.0370
 2363W        W21217   7.816  14.951  10.606 -0.0290 -0.0582  0.2577
 2364W        W21218  14.943  17.238  10.261  0.4395  0.1069  0.0368
 2365W        W21219  14.860   1.340   9.457 -0.1666 -0.1657  0.2067
 2366W        W21220  11.772   2.471  10.703  0.2007 -0.4070 -0.1049
 2367W        W21221  12.506   1.493  11.500  0.2839  0.0241 -0.0658
 2368W        W21222   9.344   8.010  11.566 -0.0177  0.2554 -0.2306
 2369W        W21223   6.122   3.253  12.583  0.1743  0.0724  0.0114
 2370W        W21224   9.514   4.948  12.478  0.0629 -0.2115 -0.0254
 2371W        W21225  18.270  13.813   1.633 -0.0581  0.0270 -0.1059
 2372W        W21226   9.503  18.254   4.349 -0.0450 -0.0728 -0.2027
 2373W        W21227   2.387   0.515   1.620 -0.0174 -0.2066  0.1675
 2374W        W21228   9.374  16.561  11.886 -0.0856  0.0613  0.3323
 2375W        W21229  12.244   9.490   3.974  0.1729  0.1610 -0.0637
 2376W        W21230  19.127   1.658   0.157 -0.1646 -0.1375 -0.0491
 2377W        W21231  12.372   5.618   3.205  0.1657  0.3227  0.0407
 2378W        W21232  17.394   6.135  12.982 -0.2843  0.0466 -0.2042
 2379W        W21233  12.159   2.710   2.746 -0.0969 -0.3179 -0.0279
 2380W        W21234  14.743  13.298   1.270  0.3115  0.0170  0.0499
 2381W        W21235   6.504  10.166  13.536  0.2994 -0.0764  0.1052
 2382W        W21236  15.084   2.036  13.931  0.2107 -0.3196 -0.0139
 2383W        W21237  10.227   3.239   1.030  0.2714 -0.1490 -0.1723
 2384W        W21238   5.115  18.773   2.573 -0.0299  0.2062  0.2503
 2385W        W21239  10.877   7.480  13.958 -0.0614  0.0213 -0.0885
 2386W        W21240  19.109   9.446  13.165  0.0883 -0.1228 -0.1263
 2387W        W21241  10.281   0.771  12.990  0.1402 -0.0971 -0.1170
 2388W        W21242  12.422   8.941  11.120  0.0060  0.0045 -0.0551
 2389W        W21243  19.048   6.955  13.361  0.3072 -0.2396 -0.1761
 2390W        W21244  18.592  12.312  12.764  0.0915  0.2274  0.1763
 2391W        W21245  14.732   4.452  13.295 -0.3189  0.0044  0.3677
 2392W        W21246   7.374  11.081  13.670  0.4788 -0.3570 -0.0287
 2393W        W21247   2.756  12.241  13.126 -0.1943  0.1740 -0.0605
 2394W        W21248  16.042  18.115  11.356  0.1652 -0.0037 -0.1281
 2395W        W21249   2.755   8.425  14.572 -0.2102 -0.0672 -0.2734
 2396W        W21250  16.366  13.114   3.634 -0.0576 -0.1736 -0.2865
 2397W        W21251   7.074   0.448   4.222 -0.0117  0.3080  0.0760
 2398W        W21252   8.609  18.693  14.003 -0.0818  0.1496 -0.2974
 2399W        W21253   2.599  10.138  12.552 -0.1876  0.0848 -0.0302
 2400W        W21254  12.100  14.884  14.703 -0.2225  0.2076  0.0027
 2401W        W21255   5.044  11.116  13.650  0.0569 -0.0610  0.0973
 2402W        W21256  13.662   5.429  10.593  0.0634  0.2028 -0.0288
 2403W        W21257   9.919  11.929   4.217  0.2355 -0.1608 -0.2436
 2404W        W21258   2.233   2.227   2.639  0.3145 -0.2646 -0.0158
 2405W        W21259  15.621  16.020   2.453 -0.0210 -0.3121 -0.1040
 2406W        W21260   2.619   4.077   3.167  0.0500 -0.0404 -0.1359
 2407W        W21261   7.882  11.580  12.417 -0.3171  0.0088 -0.2252
 2408W        W21262   9.282   5.863  10.462 -0.2324  0.1725 -0.1434
 2409W        W21263   3.082   3.774  14.110  0.2598 -0.1888 -0.0236
 2410W        W21264   0.101   3.904   0.853  0.3064 -0.0374 -0.2299
 2411W        W21265  17.280   6.337   3.770  0.2368  0.2044  0.1712
 2412W        W21266   3.177   5.486  14.142 -0.2087  0.0773 -0.0487
 2413W        W21267  14.636   1.202  14.376 -0.0723  0.0197 -0.0347
 2414W        W21268  17.892   9.133   2.379  0.0505  0.3637  0.0862
 2415W        W21269  17.961  11.667   3.377 -0.0434 -0.2901  0.0786
 2416W        W21270  14.868   6.240   3.815 -0.1002  0.1380 -0.0031
 2417W        W21271  13.944  15.422  10.851  0.0625  0.0751 -0.0228
 2418W        W21272  17.999  16.001   2.267 -0.3018 -0.2801 -0.1337
 2419W        W21273   0.309  15.635  14.227  0.0851  0.0142 -0.0016
 2420W        W21274   3.427   9.300  11.696 -0.1768  0.1273 -0.2394
 2421W        W21275  11.477   5.233   9.528  0.1624  0.1822 -0.0834
 2422W        W21276   1.538  15.391   3.575  0.2962  0.0191  0.3608
 2423W        W21277   9.757   5.680   3.306  0.0295  0.0164 -0.1543
 2424W        W21278   5.066   3.986  12.877 -0.2066  0.1671 -0.2061
 2425W        W21279  12.622  15.360   2.733  0.3042  0.4507  0.3134
 2426W        W21280   5.864  17.563   4.301 -0.1484  0.1498 -0.2523
 2427W        W21281   5.034  14.545  14.257  0.3485  0.1573 -0.0303
 2428W        W21282  13.798  15.311  12.912  0.2476  0.0172 -0.0776
 2429W        W21283  16.957  11.663   1.049 -0.1933 -0.0230  0.0283
 2430W        W21284  14.294  10.824   3.730 -0.0496 -0.2181  0.1012
 2431W        W21285   0.977   2.336  12.779 -0.1137  0.2607 -0.3300
 2432W        W21286   7.333   7.376   4.917 -0.1966  0.2310  0.0734
 2433W        W21287   6.661  13.840   2.991 -0.1831  0.1241  0.3245
 2434W        W21288   2.647  18.751  11.336 -0.1630  0.0480 -0.2353
 2435W        W21289  19.019   9.248   1.342  0.2481  0.0610 -0.1837
 2436W        W21290  14.140  10.092  11.753  0.2624  0.1331 -0.1229
 2437W        W21291  16.561  17.486   2.202 -0.2728  0.1634 -0.2431
 2438W        W21292   3.266   9.799  12.959 -0.1493  0.1217  0.1685
 2439W        W21293  12.667  13.027   0.567 -0.0078  0.1047  0.0651
 2440W        W21294  10.269  14.749   0.443  0.1109  0.1932 -0.1032
 2441W        W21295  16.484  10.347   1.612 -0.1722  0.0807 -0.1610
 2442W        W21296   3.708   7.098  13.440 -0.3662 -0.0970  0.0649
 2443W        W21297   5.531  16.128   2.691 -0.1632 -0.4212  0.0143
 2444W        W21298   0.860   8.656  14.684 -0.1953 -0.4493 -0.3486
 2445W        W21299   5.965  14.105   1.922  0.0505 -0.0296  0.4963
 2446W        W21300   5.420  16.184  14.238  0.0175 -0.1732  0.0145
 2447W        W21301   7.144   6.697  13.877  0.3391  0.2484  0.0307
 2448W        W21302  13.144  14.905  14.370  0.0617 -0.2410  0.1831
 2449W        W21303   7.080  15.548   0.231  0.0873 -0.0663  0.2169
 2450W        W21304  16.619  11.635   3.050  0.1134  0.0188  0.0677
 2451W        W21305  14.087   2.532  12.527 -0.1299  0.0412 -0.0997
 2452W        W21306  14.426  16.161   3.093 -0.1128  0.2399 -0.0372
 2453W        W21307   0.451   5.336   3.556  0.1917 -0.3674  0.4297
 2454W        W21308  12.065   2.294  12.570 -0.0405 -0.0797  0.1032
 2455W        W21309   4.723  17.449  10.790  0.0446 -0.1755  0.2103
 2456W        W21310  11.981  13.100   0.653  0.0931 -0.1796  0.1155
 2457W        W21311   1.666   8.797   1.242 -0.0881 -0.2302  0.1466
 2458W        W21312  14.485  12.274  14.620  0.1483 -0.0626  0.1521
 2459W        W21313  17.995   4.526  10.789 -0.2356 -0.2229  0.3140
 2460W        W21314   6.111  14.649   0.027  0.0426  0.0379 -0.1440
 2461W        W21315  11.915   1.344   3.459  0.3089  0.0666  0.2098
 2462W        W21316   6.867  15.592  12.186  0.2399 -0.1454  0.3132
 2463W        W21317   1.839  17.470   0.373 -0.1139 -0.0447 -0.0600
 2464W        W21318  13.915   5.424   0.491 -0.1584 -0.0235 -0.1614
 2465W        W21319  19.080  18.975  13.325 -0.0757  0.0469 -0.0129
 2466W        W21320   3.599   7.431   0.048 -0.0769  0.0390 -0.1315
 2467W        W21321   4.686  15.800  14.745 -0.2329 -0.2425  0.0895
 2468W        W21322  19.095   8.940   2.246 -0.4329  0.0596  0.2274
 2469W        W21323   1.064   6.213  11.025 -0.0005 -0.0741 -0.1646
 2470W        W21324   5.750   3.816  14.621 -0.0674 -0.0324  0.0950
 2471W        W21325  17.904   3.372   2.990 -0.3276 -0.1546  0.2580
 2472W        W21326  17.417   4.220   0.591  0.0474 -0.0852 -0.1826
 2473W        W21327  12.404   1.077   3.531 -0.0190  0.1419 -0.2180
 2474W        W21328  14.618   9.957  11.484  0.0307 -0.3248 -0.3459
 2475W        W21329   5.172   2.506  11.627 -0.1009  0.2017 -0.0748
 2476W        W21330   5.669   5.840   0.846 -0.0295  0.0693  0.1258
 2477W        W21331   9.000  13.134  10.831  0.0869 -0.0640  0.0011
 2478W        W21332   1.949  13.834  11.420  0.0696  0.1904  0.0948
 2479W        W21333  10.485   0.151   2.660 -0.0256 -0.2409 -0.1419
 2480W        W21334  16.863   1.403  11.725  0.4341  0.0254  0.0111
 2481W        W21335  13.299  16.895  10.818  0.0417  0.1497  0.1661
 2482W        W21336   1.765   1.910  12.036  0.0011 -0.2611  0.0030
 2483W        W21337   3.467   5.060   2.814  0.2521  0.2479 -0.0438
 2484W        W21338   4.823  19.071  11.609 -0.6103  0.0546 -0.0365
 2485W        W21339   3.637  13.336   1.975  0.0419 -0.0277  0.2005
 2486W        W21340   0.168  17.086   1.810 -0.1065 -0.2294  0.2968
 2487W        W21341  10.203   2.079  11.993  0.1677 -0.1982  0.0471
 2488W        W21342  17.218   7.089  12.171  0.1307  0.0072  0.0034
 2489W        W21343  11.060   1.449   0.505 -0.0393 -0.0040  0.5095
 2490W        W21344  15.159   7.293   0.256  0.3083  0.1619 -0.0824
 2491W        W21345  17.869   9.722  12.886 -0.1224 -0.1145  0.3735
 2492W        W21346   4.265  16.030   3.056 -0.4436 -0.0368  0.0584
 2493W        W21347   3.502   7.308   3.844 -0.1459  0.0996 -0.0362
 2494W        W21348  15.457   9.736   4.004 -0.1392  0.1445  0.0449
 2495W        W21349   8.213  11.569   4.080  0.0263  0.1338 -0.0335
 2496W        W21350  17.700   4.336  12.076 -0.3484 -0.2489 -0.0918
 2497W        W21351   5.905  11.908   4.724 -0.0471 -0.1171 -0.4437
 2498W        W21352  15.828   6.023  10.505 -0.1220 -0.2475 -0.3194
 2499W        W21353   9.995  19.030  10.907  0.1723 -0.3650  0.3742
 2500W        W21354   1.965   4.095  11.939  0.1222  0.0850 -0.0655
 2501W        W21355   6.769   6.201  11.280 -0.0988  0.0510  0.2440
 2502W        W21356   6.628  17.512  13.290  0.2294 -0.0274 -0.1035
 2503W        W21357  18.368   7.813   0.104 -0.3125 -0.2010 -0.2050
 2504W        W21358   9.116  17.330  10.461 -0.2241  0.1714  0.2102
 2505W        W21359   7.422   0.271   1.337 -0.3790 -0.1446 -0.0321
 2506W        W21360   5.936  17.805   4.764 -0.1871  0.2375 -0.0717
 2507W        W21361  12.734  14.290   2.115 -0.1171  0.0835 -0.2545
 2508W        W21362   4.848  16.618   2.564  0.0285  0.0505 -0.0183
 2509W        W21363  10.147  17.386  11.778 -0.0202 -0.0398 -0.2093
 2510W        W21364  10.398  11.204   3.347 -0.1843  0.1619  0.0322
 2511W        W21365  11.107  12.129   2.360 -0.0245 -0.0896 -0.0941
 2512W        W21366   4.523  17.796  13.851 -0.0348 -0.0108  0.3515
 2513W        W21367   3.872   0.697  14.338 -0.1325  0.2422  0.1463
 2514W        W21368  17.661  15.558   2.387 -0.1049 -0.0914  0.0266
 2515W        W21369  11.037  16.897  13.092  0.1107  0.0450 -0.0863
 2516W        W21370   6.154   8.300   1.648 -0.0339  0.2927 -0.0160
 2517W        W21371  11.655   0.515  14.033  0.1265  0.1218 -0.1737
 2518W        W21372   0.916   8.208   2.327 -0.0964 -0.1006  0.1535
 2519W        W21373  13.328  10.315   4.967  0.2648 -0.0708 -0.0296
 2520W        W21374   4.043  13.646   3.661 -0.1816 -0.0174  0.0289
 2521W        W21375   6.761   7.304  12.770  0.1501  0.1563  0.0917
 2522W        W21376  17.340  18.058  14.446  0.0386 -0.0035  0.0686
 2523W        W21377  14.282   3.368   2.490 -0.3116  0.0543  0.1006
 2524W        W21378  12.409  15.943   0.083 -0.2933 -0.3233 -0.1204
 2525W        W21379   5.226  13.667   4.231  0.0562  0.1459 -0.2731
 2526W        W21380   2.492   6.640   2.013  0.2301 -0.0102 -0.0832
 2527W        W21381   9.807  11.967   9.606  0.2089  0.1548  0.0448
 2528W        W21382   9.600  13.271   0.243  0.4057  0.0222 -0.2198
 2529W        W21383   3.057   7.083  14.452 -0.4063 -0.0749 -0.0496
 2530W        W21384  11.574   8.322   0.295  0.1009  0.3598 -0.3888
 2531W        W21385  16.491   2.466   5.005  0.2514 -0.2384 -0.1022
 2532W        W21386   9.000  10.981  12.779 -0.1077 -0.0290  0.0327
 2533W        W21387  14.825  14.998  10.813 -0.0030 -0.4816 -0.0516
 2534W        W21388  13.944  18.282  13.738 -0.1477 -0.1283 -0.1006
 2535W        W21389   1.251  17.378   1.066 -0.1454  0.0389  0.0873
 2536W        W21390   3.076   1.124  14.275  0.3757 -0.1154 -0.1038
 2537W        W21391   9.658   7.295  12.578 -0.3454  0.0928 -0.1594
 2538W        W21392   9.940  18.421  14.455  0.1842  0.0583  0.2172
 2539W        W21393  11.858   5.926   0.222  0.0789 -0.0329  0.2227
 2540W        W21394   5.409   3.169   0.894  0.0639 -0.4696 -0.1204
 2541W        W21395  15.091  18.138   1.316 -0.3318  0.1816 -0.2985
 2542W        W21396   4.748   2.871  10.622  0.0582  0.0262 -0.0871
 2543W        W21397  14.104  15.176   4.370 -0.1693 -0.0347  0.3929
 2544W        W21398   7.179  11.447  14.113 -0.2909  0.2258  0.1422
 2545W        W21399  18.275  12.657  12.593 -0.0641  0.0976 -0.1097
 2546W        W21400  11.792  17.639   0.522  0.0070  0.2519 -0.1768
 2547W        W21401   7.531   4.779  10.581  0.2344  0.0433  0.0207
 2548W        W21402  16.135   0.441  12.289 -0.0443 -0.0439 -0.0053
 2549W        W21403  15.576   0.858   0.504  0.1645 -0.1976 -0.3532
 2550W        W21404  18.761   9.944   3.909  0.0543 -0.1149  0.2888
 2551W        W21405   9.001  12.987  11.676 -0.1930 -0.0610 -0.1559
 2552W        W21406  17.993  18.225  12.319 -0.1572 -0.1071 -0.3344
 2553W        W21407   8.419  15.808   2.684  0.0393  0.4024  0.0418
 2554W        W21408  18.245  15.004  12.575  0.3626  0.0712  0.0882
 2555W        W21409  16.892   0.992   0.692 -0.0242  0.0960 -0.4277
 2556W        W21410  15.441  16.493   0.916  0.0015  0.0248  0.0022
 2557W        W21411   7.560  14.217  12.678  0.1815 -0.0297 -0.0149
 2558W        W21412   6.927  18.936   0.308 -0.2418  0.0699 -0.0391
 2559W        W21413   2.862  11.951  13.789  0.2451  0.1006 -0.1678
 2560W        W21414  12.564   6.146   1.192 -0.1757  0.1741  0.2735
 2561W        W21415  16.560  10.967  12.329  0.0078 -0.0128 -0.1263
 2562W        W21416  17.905   8.951  11.087 -0.1165 -0.0758 -0.1800
 2563W        W21417   6.859  14.422   2.166  0.0225 -0.0174  0.1296
 2564W        W21418   9.418   1.742  11.411 -0.2354  0.1592 -0.1094
 2565W        W21419   6.325   7.002  11.660  0.0967 -0.0965  0.1928
 2566W        W21420   2.494   2.127   0.327 -0.3513  0.0490  0.2064
 2567W        W21421   6.918  14.922   3.061 -0.0832 -0.0161 -0.0260
 2568W        W21422   1.108  12.410   0.878 -0.0847  0.0216 -0.0214
 2569W        W21423   3.924  14.774  11.812 -0.2697  0.1630 -0.0654
 2570W        W21424   4.749   3.921   0.869 -0.1672  0.2967  0.2592
 2571W        W21425  10.559  18.865   3.656 -0.3125 -0.1062  0.0350
 2572W        W21426  10.340   4.221  10.667  0.0601  0.0086 -0.0725
 2573W        W21427  17.742  16.582   0.543 -0.0746  0.0609  0.4889
 2574W        W21428   6.401  10.291  12.017 -0.0355 -0.0972  0.0882
 2575W        W21429   0.577  10.990  13.892  0.4532 -0.0110  0.1083
 2576W        W21430  10.189  11.364  11.372  0.3209  0.2852 -0.1237
 2577W        W21431   9.216  14.883   0.627  0.0969  0.1769 -0.3887
 2578W        W21432  13.992   6.422   0.307  0.0077  0.1578 -0.0583
 2579W        W21433  12.265  18.697   1.007 -0.0738  0.0085  0.2567
 2580W        W21434  14.526   2.479   4.156 -0.1821  0.2300  0.1224
 2581W        W21435  18.501  16.961   0.696 -0.3356  0.2073  0.0338
 2582W        W21436   6.090  11.726  11.687 -0.2521  0.1082  0.0610
 2583W        W21437   1.306   3.522  14.301  0.0944 -0.1423  0.0598
 2584W        W21438   9.326  10.802  13.180 -0.1169  0.2402  0.0933
 2585W        W21439   1.869   6.216   4.212 -0.1500  0.0841  0.1055
 2586W        W21440   6.029   3.640  12.188 -0.0580 -0.2641 -0.0656
 2587W        W21441   6.973  12.195   3.527  0.1409 -0.1581 -0.0456
 2588W        W21442   5.799   0.071  10.578  0.1316  0.1056  0.0172
 2589W        W21443  11.311   7.038   4.145 -0.0694 -0.2373 -0.1513
 2590W        W21444  10.321   5.857   1.838  0.2281 -0.3013 -0.2702
 2591W        W21445  13.188   9.785   1.615 -0.1574 -0.1557 -0.2403
 2592W        W21446   1.018   6.411  12.974  0.1599 -0.1981 -0.2345
 2593W        W21447   8.472   5.324   4.002  0.3411  0.1316  0.0748
 2594W        W21448   8.609  13.405  13.104  0.1552  0.2016 -0.1196
 2595W        W21449   1.150  19.055   0.749 -0.2365 -0.1244 -0.0688
 2596W        W21450  14.491  14.659  13.856 -0.2412  0.0836 -0.0731
 2597W        W21451  11.035  10.731   4.005 -0.3472  0.0012  0.2252
 2598W        W21452  14.013   7.241  12.914  0.1430 -0.0838 -0.4385
 2599W        W21453   9.224  14.440  13.862  0.0621 -0.0348 -0.0051
 2600W        W21454  10.255   6.987   0.144 -0.1361 -0.3317 -0.1903
 2601W        W21455  16.369   0.472  10.905 -0.1744 -0.1200  0.0994
 2602W        W21456   5.976   3.988   2.168  0.1257 -0.2377 -0.2221
 2603W        W21457   7.730   7.360  13.403 -0.1029  0.1728  0.2551
 2604W        W21458   0.941  16.284  11.860 -0.1503  0.0577 -0.1441
 2605W        W21459   6.269   9.747   0.067  0.0222 -0.4980 -0.0834
 2606W        W21460   1.668   9.760  12.990 -0.0822  0.1204 -0.2677
 2607W        W21461   3.895   8.543   1.134  0.0086 -0.1204 -0.2100
 2608W        W21462   3.994   3.980  12.596 -0.0409  0.0224  0.0235
 2609W        W21463  16.573  16.822  12.924  0.0859 -0.1735 -0.1110
 2610W        W21464   2.378   8.694  13.175 -0.1407 -0.0753  0.0860
 2611W        W21465  15.501   0.507   2.806  0.1960 -0.4194 -0.3149
 2612W        W21466   7.922   3.666   3.870 -0.2976 -0.2719  0.0676
 2613W        W21467   9.105   3.078  13.824  0.1572  0.0268  0.1016
 2614W        W21468   5.415  14.832   0.885  0.0512  0.1604  0.1030
 2615W        W21469  18.305   7.281  14.492 -0.2047 -0.0785  0.2431
 2616W        W21470  17.811   9.271   3.391  0.2313  0.2401  0.1415
 2617W        W21471   1.360   3.575   0.965  0.1620  0.1911  0.1053
 2618W        W21472  10.431   2.776  13.801  0.3043  0.0091 -0.0453
 2619W        W21473   3.765  15.307   3.144 -0.0252  0.0021 -0.3828
 2620W        W21474  16.740   8.881   3.753  0.2001  0.0877 -0.3939
 2621W        W21475   5.710  10.675   0.359 -0.0080  0.1725  0.3313
 2622W        W21476  11.589   9.160   4.995 -0.0199 -0.0313  0.1640
 2623W        W21477   4.239  18.654  11.019 -0.2507 -0.0340 -0.1240
 2624W        W21478   5.974  16.349   3.556  0.0846 -0.2067 -0.1050
 2625W        W21479   8.753  15.796  14.275  0.0038 -0.0462  0.1336
 2626W        W21480   0.384   8.333   2.766 -0.0485  0.2564  0.0437
 2627W        W21481  12.778   3.408   1.325  0.3035 -0.0639  0.1116
 2628W        W21482  16.777  14.034   9.951  0.0923 -0.1223 -0.1907
 2629W        W21483   2.405  16.416   2.339  0.0804 -0.4887  0.1259
 2630W        W21484  18.278   9.064  11.431  0.2244  0.0417  0.1244
 2631W        W21485   1.457   6.109   3.817 -0.0907  0.1546 -0.0085
 2632W        W21486   0.180  13.691   2.896  0.1430 -0.0509 -0.0872
 2633W        W21487   6.017  15.565  14.346 -0.3411  0.3615  0.2435
 2634W        W21488  14.121   8.348  14.512  0.0326 -0.0603 -0.2515
 2635W        W21489  17.371  13.524   4.178  0.0868 -0.3786  0.1497
 2636W        W21490   0.393   5.237   3.019 -0.2532  0.0874  0.0744
 2637W        W21491  12.542   0.781   2.730  0.1682 -0.0160 -0.3108
 2638W        W21492  15.125  10.469  11.941 -0.1698  0.0209 -0.2076
 2639W        W21493  12.570  15.091  12.179  0.0221  0.2498 -0.1350
 2640W        W21494  17.515  12.192  10.833  0.3196  0.0409 -0.0001
 2641W        W21495   9.446   1.468   0.022  0.1612 -0.1294  0.3264
 2642W        W21496   3.054   2.589   4.654  0.0682  0.0372 -0.0708
 2643W        W21497  18.030  10.036   3.697  0.0749  0.2108  0.1617
 2644W        W21498   9.249  10.677   4.603 -0.2791 -0.2725 -0.1022
 2645W        W21499   3.976  11.462  11.749 -0.2871  0.0922 -0.1719
 2646W        W21500   4.422   8.845  13.073 -0.1049 -0.0945 -0.3318
 2647W        W21501   7.140  14.766   0.183  0.3405 -0.0661 -0.1795
 2648W        W21502  14.607   0.819  13.275 -0.1672 -0.4296  0.2143
 2649W        W21503  16.425   1.207   1.405  0.0090 -0.1286 -0.0118
 2650W        W21504   1.966   9.333  14.087  0.0485  0.0861  0.3077
 2651W        W21505  10.860  19.136  11.036  0.3998  0.1696  0.1131
 2652W        W21506   5.644   3.953  10.932  0.1087  0.0559  0.1907
 2653W        W21507  16.953   0.048  14.433 -0.0024  0.0149 -0.1046
 2654W        W21508   5.459   7.487   3.671 -0.0504 -0.0968  0.1624
 2655W        W21509   7.612  12.997   3.902 -0.0598 -0.0351 -0.0288
 2656W        W21510   8.923   3.987   9.339  0.3376 -0.1009  0.0658
 2657W        W21511  10.784  16.897  10.450 -0.0144 -0.0311 -0.0589
 2658W        W21512  19.121  15.677  10.917 -0.1231 -0.1418 -0.0468
 2659W        W21513  18.026   0.178  10.893 -0.2927 -0.0514  0.2897
 2660W        W21514  14.131   0.096  11.875 -0.1874  0.1957  0.1244
 2661W        W21515   7.480   7.498   2.736  0.2714  0.1014  0.3686
 2662W        W21516  11.727   5.749  12.063  0.0229  0.3057 -0.0643
 2663W        W21517  16.118   0.304  14.269 -0.2156 -0.0065  0.0160
 2664W        W21518   4.306   9.918   2.831 -0.2295 -0.0143 -0.2978
 2665W        W21519   0.047  16.181  11.010  0.1526 -0.1334  0.0334
 2666W        W21520   9.955   1.897  10.560 -0.0145 -0.0128  0.0169
 2667W        W21521   1.686   9.131   3.443 -0.0270  0.0254 -0.5452
 2668W        W21522   9.733  13.749   5.100 -0.0692 -0.2453 -0.4409
 2669W        W21523  11.895  18.667  10.103  0.4739  0.3306 -0.2635
 2670W        W21524  14.495  12.416  13.615 -0.1154  0.0782 -0.2251
 2671W        W21525  17.016  17.520   1.979 -0.1699 -0.0660  0.0693
 2672W        W21526  10.858  11.366   1.211  0.1069  0.1220  0.3790
 2673W        W21527   9.607  18.668   0.753  0.1360 -0.1207 -0.0147
 2674W        W21528   6.169   9.815   4.911 -0.0297  0.1144 -0.1977
 2675W        W21529   3.845   1.050  13.502  0.2687 -0.3850  0.1836
 2676W        W21530   0.665   6.042  12.412  0.1073 -0.2421 -0.0872
 2677W        W21531   0.989  11.739   3.405 -0.1242  0.2083  0.2209
 2678W        W21532   3.015   5.835   3.279  0.0891 -0.1683 -0.0377
 2679W        W21533   5.705   2.665   2.027 -0.0268 -0.0177 -0.3412
 2680W        W21534   7.699  14.364   2.697 -0.3178  0.4432 -0.0913
 2681W        W21535   4.767  13.612  11.884  0.0255 -0.3762 -0.2396
 2682W        W21536   0.069   0.254   2.899 -0.0696 -0.1891 -0.0643
 2683W        W21537  15.643   4.904  14.744 -0.0378 -0.0850 -0.1639
 2684W        W21538   3.606  10.735  11.630 -0.2208 -0.1326  0.1642
 2685W        W21539   0.189   2.379  11.423  0.0960 -0.1060  0.0569
 2686W        W21540  18.455  18.872  13.924 -0.4116  0.2514  0.2890
 2687W        W21541   7.360   0.049   4.498 -0.0046 -0.0544  0.1147
 2688W        W21542   3.459  18.819  12.330 -0.4469  0.1183  0.2592
 2689W        W21543   1.506  18.481   2.605  0.0895 -0.2678  0.2232
 2690W        W21544  14.747   3.657   3.585 -0.1998  0.0264 -0.0607
 2691W        W21545  18.066  12.457   1.188  0.0741  0.1196  0.0557
 2692W        W21546   2.607  19.048   0.834 -0.1389  0.1327  0.1483
 2693W        W21547  16.202   8.599   2.112 -0.0453 -0.0658  0.0335
 2694W        W21548  10.778   4.206   3.633 -0.0824  0.4019  0.2327
 2695W        W21549   5.406  12.003  13.485  0.2402 -0.0422  0.1848
 2696W        W21550  13.736   5.795  10.921 -0.1612  0.1135 -0.0423
 2697W        W21551   8.305   8.151  12.168  0.0749  0.0012 -0.0277
 2698W        W21552  18.641  15.915  13.242  0.0457 -0.0588 -0.1595
 2699W        W21553   1.352   6.050   3.259  0.0566  0.0881  0.1013
 2700W        W21554  17.317   6.865   9.778 -0.1757 -0.2364  0.2919
 2701W        W21555   8.639  13.991  10.323  0.1564  0.0831 -0.2098
 2702W        W21556  12.363   5.875  12.748 -0.2403  0.1851  0.0385
 2703W        W21557  12.543  10.432  13.480  0.0591  0.3333  0.0843
 2704W        W21558   1.812   6.242  10.576 -0.0387  0.0124 -0.2998
 2705W        W21559   8.064  15.361  13.578  0.0249  0.0155  0.0279
 2706W        W21560  14.256  12.142   2.981  0.3565 -0.0929  0.0993
 2707W        W21561  17.787   8.293   0.429  0.1560 -0.1207  0.1930
 2708W        W21562   3.914  15.822  11.833  0.0736  0.1941 -0.1624
 2709W        W21563   0.934   6.344  12.063  0.0154 -0.2436  0.0341
 2710W        W21564  13.554  18.450   4.254 -0.2937 -0.2273  0.0353
 2711W        W21565  13.464   5.130   9.680  0.1904  0.1987  0.1465
 2712W        W21566  14.597   4.706  14.783  0.2940 -0.0978  0.0292
 2713W        W21567   8.374   2.679   1.502  0.0608  0.2385  0.0760
 2714W        W21568  10.683   1.822   4.197  0.4511  0.1467  0.1055
 2715W        W21569   4.416   1.381   0.989 -0.1436 -0.0098  0.0760
 2716W        W21570   2.597  17.372   0.930  0.4162  0.0109  0.1029
 2717W        W21571   1.400   3.835   4.199 -0.1889  0.3860 -0.2847
 2718W        W21572   3.878   4.784  11.151  0.0130  0.0909 -0.1194
 2719W        W21573  12.667   6.364   1.683 -0.0831 -0.1987 -0.1946
 2720W        W21574  18.828  13.914  14.263 -0.6467  0.0773  0.0200
 2721W        W21575  13.233   3.939  14.606 -0.0188  0.1086  0.0736
 2722W        W21576  18.329  10.566  11.102  0.0193  0.1491  0.1934
 2723W        W21577   3.651   8.868  13.273 -0.3847  0.3066  0.2109
 2724W        W21578   3.739  11.300   1.230  0.3963 -0.1300 -0.0938
 2725W        W21579   2.866   1.442  12.686  0.1265 -0.1172 -0.4266
 2726W        W21580  15.420  13.892  12.703  0.0533 -0.0658  0.1745
 2727W        W21581   3.567   0.858   1.897 -0.0906  0.3456  0.1371
 2728W        W21582   9.849   8.855   2.944  0.2984 -0.0566  0.1613
 2729W        W21583  15.399   0.225  11.701  0.1007 -0.2004  0.1920
 2730W        W21584  12.479  17.362  12.076  0.1022  0.2027  0.0722
 2731W        W21585   4.930  14.062  14.737  0.0797  0.0874  0.4232
 2732W        W21586  17.111   4.808  11.594  0.1290 -0.1461 -0.1339
 2733W        W21587   9.770  13.342   2.904 -0.4170 -0.1213 -0.2734
 2734W        W21588   5.207  13.473  13.107 -0.0171 -0.0377 -0.0545
 2735W        W21589   9.044   2.137  12.644 -0.2337  0.0948  0.3246
 2736W        W21590  15.771  14.549   1.970  0.1204  0.0217 -0.1198
 2737W        W21591   4.173  14.349   4.101 -0.1171  0.2100  0.1190
 2738W        W21592   9.120   6.313  10.754 -0.2868 -0.3748  0.2549
 2739W        W21593  15.089   4.230  14.732  0.0863 -0.0672 -0.0340
 2740W        W21594  11.464  13.665   2.583  0.0679 -0.0820  0.0067
 2741W        W21595   0.885  16.818  13.213  0.0165  0.0641 -0.1235
 2742W        W21596   3.871   1.021   1.549 -0.1764 -0.0469  0.2529
 2743W        W21597  11.176  17.491   1.025  0.0551 -0.2434  0.0634
 2744W        W21598  10.532   8.818  14.389 -0.1079  0.1404 -0.3135
 2745W        W21599   1.449   5.112   0.783  0.2060 -0.1887  0.0726
 2746W        W21600  10.145  10.620   4.003 -0.2764  0.0118 -0.1912
 2747W        W21601   3.825  17.483   2.706  0.0441  0.0994 -0.1740
 2748W        W21602  12.682   5.627   3.989  0.1766  0.1521  0.2651
 2749W        W21603  12.633   7.160   3.425  0.2815 -0.2082 -0.1957
 2750W        W21604  15.757   0.659  11.520  0.0362 -0.1859  0.0410
 2751W        W21605  11.390   9.060  14.323  0.2079 -0.0022 -0.0770
 2752W        W21606  17.869   7.939  10.881  0.0094  0.3053  0.1844
 2753W        W21607  11.509   0.430  12.777 -0.2663 -0.4151 -0.0402
 2754W        W21608   8.101  12.682   2.814  0.0751  0.2662  0.2405
 2755W        W21609  10.410   5.530  10.388 -0.0857 -0.0621  0.0064
 2756W        W21610   2.896  13.548   0.349  0.2288 -0.0283  0.0062
 2757W        W21611   1.918  14.693   1.737  0.1353  0.3205 -0.1346
 2758W        W21612  17.592  11.020  11.652 -0.4179  0.1143  0.0894
 2759W        W21613   5.215  16.537  11.383  0.3068 -0.0419  0.1398
 2760W        W21614   7.351  14.119   2.051 -0.0076 -0.2345  0.2468
 2761W        W21615   3.675  16.247  12.973  0.0999 -0.2183 -0.1892
 2762W        W21616   6.717   6.766  11.219 -0.0224 -0.2179  0.3735
 2763W        W21617  16.183   8.402   0.063  0.0111 -0.0283  0.0310
 2764W        W21618   1.639  17.274   1.377  0.1544 -0.1369  0.1217
 2765W        W21619   3.612  11.401   0.226 -0.0537  0.1471  0.2015
 2766W        W21620  11.676   4.049   1.707  0.1274  0.1837 -0.0115
 2767W        W21621  18.949   8.235  12.830 -0.3327 -0.1740 -0.2531
 2768W        W21622   7.270  12.669  11.953 -0.1012  0.0532 -0.0361
 2769W        W21623   0.700  11.659  12.184  0.4443 -0.0067 -0.2977
 2770W        W21624  13.689  13.467  11.178 -0.0163 -0.1452 -0.0654
 2771W        W21625  17.156  12.517  10.870  0.0927 -0.1505  0.1245
 2772W        W21626   4.974   4.082   0.120 -0.1356 -0.2487 -0.1041
 2773W        W21627   9.928   6.317  14.011 -0.0459 -0.0028 -0.2020
 2774W        W21628   1.856   5.962   1.127 -0.1986 -0.0206  0.1586
 2775W        W21629  15.788   7.926  10.628  0.3037  0.0106  0.1329
 2776W        W21630   3.033  18.811   0.719  0.0827 -0.0716  0.1908
 2777W        W21631  14.116  13.869   9.632  0.1275 -0.2312 -0.0855
 2778W        W21632  13.085   4.290  13.884 -0.3368  0.1216 -0.2741
 2779W        W21633  11.167  11.894   3.394  0.4461 -0.0877  0.0351
 2780W        W21634   2.007  18.854  12.627  0.0277 -0.2570  0.4521
 2781W        W21635  11.426   1.873   1.152 -0.4359 -0.1369  0.0532
 2782W        W21636  17.135  15.034  12.790 -0.2420 -0.2544  0.4756
 2783W        W21637  13.187  16.432   1.485  0.1828 -0.0199  0.2144
 2784W        W21638   6.056  18.753   4.986  0.2844  0.2939  0.0046
 2785W        W21639  11.888   3.382   3.596 -0.5376  0.1990 -0.2071
 2786W        W21640   2.263   4.745   3.518 -0.1186  0.0135 -0.2930
 2787W        W21641  16.863   9.854   3.925 -0.0872  0.2253 -0.1851
 2788W        W21642  14.163  14.797  10.840 -0.0671  0.0824 -0.1447
 2789W        W21643  11.606   9.538  14.255  0.2264 -0.4751  0.1793
 2790W        W21644  17.615   2.681   3.358 -0.1455  0.2452  0.0628
 2791W        W21645   6.699   2.100   0.134 -0.2426 -0.3200 -0.2420
 2792W        W21646   3.123   1.873   3.336  0.2798 -0.0636  0.1444
 2793W        W21647  14.248  14.529  13.397  0.0033  0.2146 -0.2389
 2794W        W21648   0.956  10.007   0.292 -0.0534  0.1654  0.2830
 2795W        W21649   4.056   5.617  10.858  0.3445 -0.2273  0.1091
 2796W        W21650   2.462  18.730  10.413 -0.3914 -0.0068 -0.0665
 2797W        W21651  17.905  17.958   0.478  0.1128 -0.0890 -0.0325
 2798W        W21652   3.790  16.510  10.991  0.1346 -0.1073  0.3345
 2799W        W21653   1.063  18.981  10.707 -0.2439 -0.0571 -0.2846
 2800W        W21654   2.259   6.438   0.775 -0.0261  0.2107  0.0080
 2801W        W21655  16.390  10.148  12.463  0.2176 -0.2992 -0.2789
 2802W        W21656   4.978   5.836   2.395 -0.0529  0.0419 -0.2763
 2803W        W21657  13.731   7.517   0.004  0.1745  0.1527  0.0100
 2804W        W21658   3.335   2.723   3.469  0.1832  0.2476  0.1686
 2805W        W21659   3.989   0.657   5.357 -0.1298  0.1019  0.1811
 2806W        W21660  18.132   7.046   4.292 -0.1188 -0.4097  0.0903
 2807W        W21661   3.498   6.389   2.969 -0.0471 -0.0334 -0.0010
 2808W        W21662  18.199   4.785  14.472  0.0770 -0.3641  0.2576
 2809W        W21663   3.957   3.119   1.879 -0.0012 -0.1549  0.0901
 2810W        W21664   2.925  10.002   2.939 -0.1788  0.1494 -0.2119
 2811W        W21665   7.628  19.082   0.992  0.1540  0.0155 -0.0013
 2812W        W21666   9.195  15.612   1.789 -0.0892  0.2684 -0.1018
 2813W        W21667  17.909  13.008  12.485  0.0711  0.2663 -0.4531
 2814W        W21668  14.352  16.436  14.408  0.0376 -0.1133 -0.1824
 2815W        W21669   3.194  10.052   5.324 -0.1444 -0.1216  0.1266
 2816W        W21670   7.384   6.666   1.076 -0.0941 -0.1483 -0.2559
 2817W        W21671   8.854   2.955   2.068 -0.1838 -0.1688 -0.0494
 2818W        W21672  17.096   3.807   3.136 -0.3304 -0.0960  0.1568
 2819W        W21673  11.022   0.775  10.900 -0.3528 -0.0473  0.2897
 2820W        W21674  16.243   9.677   0.520 -0.1843 -0.0531  0.1278
 2821W        W21675  12.556   3.120  13.155 -0.0869 -0.0383  0.0145
 2822W        W21676   1.207   4.779  10.930  0.2241 -0.5166 -0.4041
 2823W        W21677  12.063   3.359  14.096  0.0745 -0.1193 -0.0587
 2824W        W21678  10.390  10.286   0.757 -0.0644  0.2593  0.0081
 2825W        W21679   7.314   5.045   2.830 -0.0116  0.2260  0.0966
 2826W        W21680   7.602  11.047   5.212 -0.0366  0.2462  0.1853
 2827W        W21681   5.801   1.890   4.129 -0.0362 -0.0289  0.0720
 2828W        W21682  16.521   9.625   9.858 -0.0758  0.0534 -0.0848
 2829W        W21683   9.948   1.962   1.610  0.1324  0.1993  0.0028
 2830W        W21684   5.577  15.571   1.730  0.0888  0.2434  0.4336
 2831W        W21685   2.182  17.414   3.064  0.0350 -0.1237 -0.0750
 2832W        W21686  17.911  11.927   1.101  0.0516  0.2082  0.0534
 2833W        W21687   1.278  10.963  11.477 -0.4431 -0.0987 -0.1001
 2834W        W21688  10.661  18.050  13.789 -0.2484  0.0565  0.0674
 2835W        W21689  11.124   9.497  14.310  0.0995  0.1447  0.0876
 2836W        W21690   8.208  12.951   0.003 -0.0086 -0.1360 -0.1118
 2837W        W21691  16.239  15.855   3.509 -0.2066  0.1008 -0.3585
 2838W        W21692   5.135   4.105   2.703  0.2451 -0.1422  0.2057
 2839W        W21693  12.650  17.082  10.973 -0.1498 -0.0424 -0.2660
 2840W        W21694   7.230   5.128   3.393 -0.1779 -0.1328  0.2595
 2841W        W21695   7.854  16.878  10.613  0.2629 -0.0735  0.0673
 2842W        W21696   6.223   1.008   0.054  0.0072  0.0986  0.1360
 2843W        W21697   0.342  17.001   1.167 -0.2042  0.1431 -0.0551
 2844W        W21698  16.745  12.932   2.650  0.0948 -0.1388 -0.1934
 2845W        W21699  10.285   6.171  13.723  0.0388  0.1346  0.0818
 2846W        W21700   8.321  16.811   1.662  0.0068  0.0728 -0.1269
 2847W        W21701   3.020   9.276  12.060 -0.4938  0.2108  0.1195
 2848W        W21702  10.830   2.477   3.954  0.1521  0.2255 -0.0448
 2849W        W21703  12.044   3.644   0.701 -0.1506  0.1778 -0.3511
 2850W        W21704   1.782  13.567  13.577  0.4959  0.3694 -0.1815
 2851W        W21705  16.587   0.202  10.553 -0.1785  0.2059 -0.1266
 2852W        W21706   5.040   1.936   0.232 -0.3136  0.3278 -0.0032
 2853W        W21707   9.893   4.221  12.680 -0.2059 -0.3031 -0.1597
 2854W        W21708   2.095   6.059  13.045  0.0601  0.1652  0.0147
 2855W        W21709  17.372   4.906  13.889  0.0635 -0.1215 -0.1052
 2856W        W21710   1.318  18.733  13.261 -0.2748  0.0462 -0.0591
 2857W        W21711   2.695   4.952   0.887  0.0676 -0.1954  0.2216
 2858W        W21712  14.539   9.111   3.699  0.1275  0.0362 -0.1197
 2859W        W21713   1.506  14.529  14.689  0.0585  0.0953 -0.0785
 2860W        W21714  15.978   0.497   3.313  0.1923 -0.6869 -0.0923
 2861W        W21715  10.119   3.698  10.560  0.0190  0.0974  0.1369
 2862W        W21716   5.909   3.570   1.484 -0.0988 -0.2137 -0.0310
 2863W        W21717   4.963   7.197   0.272 -0.0423 -0.0056 -0.0907
 2864W        W21718  10.876   0.589  12.017 -0.0754 -0.0223  0.0099
 2865W        W21719   4.500  17.905  14.344 -0.1552 -0.0436  0.1477
 2866W        W21720  10.301  15.900  10.563  0.0035 -0.0075 -0.0518
 2867W        W21721   4.620  17.167   0.147  0.3686  0.3162  0.1305
 2868W        W21722  17.615  16.662   1.039 -0.0976  0.1982  0.3577
 2869W        W21723  14.572  17.770   2.622  0.0754  0.1055 -0.0121
 2870W        W21724   1.517   6.273  12.273  0.2099 -0.1843  0.5397
 2871W        W21725   4.229  10.787   4.637  0.1599 -0.0129 -0.0370
 2872W        W21726  10.073   2.343   3.463  0.0484  0.0531 -0.2056
 2873W        W21727   1.016   1.573   9.487 -0.0416  0.1743  0.0515
 2874W        W21728  12.858  15.473   1.853  0.1615  0.3030 -0.2986
 2875W        W21729  13.365  11.593  13.318  0.1992 -0.2783 -0.0641
 2876W        W21730  14.854   7.791   5.207  0.0052  0.0186  0.1402
 2877W        W21731   3.848   5.198  10.903 -0.0544  0.2533  0.3870
 2878W        W21732   9.894  12.065  12.031 -0.0946 -0.1121  0.3365
 2879W        W21733  15.733   4.615   4.233  0.0249 -0.0394  0.0551
 2880W        W21734  11.978   6.329  14.666 -0.2866 -0.3523  0.0717
 2881W        W21735  18.088   3.035   5.060 -0.0250  0.0351 -0.0761
 2882W        W21736  17.188   8.684   3.013 -0.4071 -0.0906 -0.0507
 2883W        W21737   5.699   7.359  11.030  0.1693  0.0352  0.1266
 2884W        W21738   4.944  13.116  14.089  0.1974 -0.1215 -0.1415
 2885W        W21739  19.029  14.065   1.235 -0.1896 -0.2363  0.0527
 2886W        W21740   5.785   9.571  11.193  0.1016 -0.4142  0.2020
 2887W        W21741   9.331  18.812  10.354  0.1048  0.0210  0.1420
 2888W        W21742   6.530  13.301   1.019  0.3441  0.3136  0.0650
 2889W        W21743   6.131   0.891   0.951  0.0543  0.1259  0.2082
 2890W        W21744   9.584  12.485  13.570 -0.1364  0.0718 -0.2904
 2891W        W21745   2.568  12.075  14.680 -0.2074  0.2518 -0.1450
 2892W        W21746  16.424   0.340   1.622  0.0672 -0.0881  0.1088
 2893W        W21747  17.291   6.832   3.865 -0.5075 -0.2778 -0.1135
 2894W        W21748  17.384   5.099  12.992  0.3831  0.0196 -0.2327
 2895W        W21749  16.582  19.018   1.453  0.2060 -0.1175 -0.1374
 2896W        W21750   8.527   5.983   2.050  0.0297  0.2158 -0.0268
 2897W        W21751   1.658  18.649   0.719 -0.0047 -0.3959  0.1243
 2898W        W21752   6.606  17.142   9.587 -0.0861 -0.2005 -0.2322
 2899W        W21753  14.829  13.336   2.586  0.1071 -0.2393  0.3224
 2900W        W21754   0.216   0.936  13.869  0.0639  0.0208  0.0988
 2901W        W21755  10.494   0.580   3.767 -0.0555  0.0030 -0.1882
 2902W        W21756  18.831  16.117  14.408 -0.1353  0.1216  0.2109
 2903W        W21757   9.888   8.757   3.422 -0.2770 -0.0054 -0.0669
 2904W        W21758   4.128   9.619   2.024 -0.0940  0.2032 -0.3535
 2905W        W21759  14.128   3.631   4.109  0.1961  0.0883 -0.4042
 2906W        W21760  10.458   0.657   9.733  0.0262  0.0173  0.3132
 2907W        W21761   1.993   0.814  14.224 -0.0680  0.4045  0.0989
 2908W        W21762   1.769  18.074  10.839  0.0723 -0.2025 -0.0799
 2909W        W21763   4.715   9.349  12.463  0.0891 -0.1350  0.1039
 2910W        W21764   8.385   5.696  13.534  0.2167  0.2267  0.2570
 2911W        W21765  11.723   9.994   1.983  0.4827  0.0999  0.0603
 2912W        W21766  17.822  12.376   3.934 -0.0356 -0.3797  0.1299
 2913W        W21767  15.763   6.432   9.641 -0.1554  0.0269  0.1586
 2914W        W21768  10.886  11.126   0.224 -0.0869  0.1737 -0.1514
 2915W        W21769  11.249  16.156   3.499 -0.3799  0.1113  0.1704
 2916W        W21770  13.464   4.478   3.123  0.1537 -0.0246  0.3936
 2917W        W21771   6.167  17.217  13.085  0.1322 -0.0364  0.5326
 2918W        W21772   9.109  17.066  11.864 -0.0730  0.2111 -0.1908
 2919W        W21773  12.653  13.798   4.355  0.2614  0.0527 -0.0574
 2920W        W21774  14.498   1.521   0.853  0.3054 -0.0042 -0.2813
 2921W        W21775  17.322   5.758   3.340 -0.1442  0.2629 -0.1577
 2922W        W21776   0.325  18.123  10.980 -0.3529  0.0826  0.1302
 2923W        W21777   5.301   2.530  12.443  0.2342 -0.0195  0.0049
 2924W        W21778   1.444   7.240   2.578  0.0593  0.0063  0.1019
 2925W        W21779  10.885   1.228  11.072 -0.1569  0.2428  0.1236
 2926W        W21780  13.623   9.108   2.763  0.2037  0.0248  0.0352
 2927W        W21781  10.589   7.341  12.680 -0.1326  0.3479 -0.1951
 2928W        W21782  15.652   2.763  11.811  0.1424 -0.2777  0.0031
 2929W        W21783   9.545  10.335  13.074 -0.4681 -0.1025  0.0060
 2930W        W21784  11.679   1.777   3.282  0.0069  0.2294  0.2132
 2931W        W21785   5.359  11.882   1.013  0.1091 -0.0340  0.1802
 2932W        W21786   3.301   7.902   0.075 -0.1232  0.2011  0.4422
 2933W        W21787   4.572  16.039  12.008 -0.0370  0.0377 -0.2477
 2934W        W21788   9.331   7.645   2.929 -0.2577  0.0938 -0.2009
 2935W        W21789   3.231  18.603  11.428 -0.0875 -0.0764 -0.1649
 2936W        W21790  14.945   8.845   0.232  0.0912  0.1317 -0.0707
 2937W        W21791  14.821   8.208  13.098 -0.0659  0.0057 -0.1479
 2938W        W21792  10.230   6.449   0.596  0.3400  0.1464  0.1864
 2939W        W21793  16.673  15.790   0.816  0.3440  0.0323 -0.0121
 2940W        W21794   0.706  17.026  14.154  0.1094  0.1438  0.1823
 2941W        W21795   4.226   6.769  13.662  0.3072  0.1554  0.0363
 2942W        W21796  15.707  18.728   2.779 -0.2389 -0.0069  0.2743
 2943W        W21797  14.628  10.117   2.633  0.3482  0.0044  0.0453
 2944W        W21798  10.573   0.265   4.630 -0.0325 -0.1400  0.0559
 2945W        W21799  12.730  17.763   3.851 -0.0131 -0.3870  0.0515
 2946W        W21800   5.382  10.866   0.908  0.0632  0.2455  0.3116
 2947W        W21801  15.500  10.504  14.414  0.2475 -0.0486 -0.1949
 2948W        W21802  16.232   1.253  12.503 -0.0109  0.0093 -0.0482
 2949W        W21803   4.725  10.227   4.898 -0.0643 -0.2481 -0.1611
 2950W        W21804  17.348   4.926  14.435 -0.1606  0.4392 -0.0169
 2951W        W21805  17.860   3.004  14.396  0.1994 -0.2573  0.1374
 2952W        W21806  17.818   8.298  11.867  0.2561  0.0114  0.0599
 2953W        W21807  10.508  13.676   4.672  0.1273  0.2608  0.2620
 2954W        W21808  18.089  16.764   9.305  0.1665  0.1970 -0.0529
 2955W        W21809   1.544  11.335   4.704  0.1695 -0.2695 -0.0015
 2956W        W21810  10.239   7.859  13.177 -0.0318  0.0195 -0.1518
 2957W        W21811  10.898   2.899  13.655  0.0580  0.1573  0.0358
 2958W        W21812   1.397   9.335  14.180  0.0736  0.5220  0.1964
 2959W        W21813  13.134   3.509   0.500 -0.1406 -0.0408 -0.0905
 2960W        W21814  11.305  13.665  10.109 -0.2277 -0.0237  0.0647
 2961W        W21815  12.001   9.072   3.822  0.3454  0.0074 -0.2283
 2962W        W21816  17.642  13.318   3.113 -0.2180  0.3767  0.0027
 2963W        W21817   6.643  10.527   1.563  0.0890  0.0442  0.2218
 2964W        W21818  16.540  17.639  10.711 -0.0035  0.2276  0.2458
 2965W        W21819  13.001   5.250   3.960 -0.1911 -0.0133  0.0555
 2966W        W21820   5.559   6.938   0.550 -0.0035 -0.3012  0.0593
 2967W        W21821  16.008  15.279   0.576 -0.0174  0.0536 -0.1690
 2968W        W21822  11.569   1.122  11.513 -0.2278  0.2453 -0.1067
 2969W        W21823  11.170  17.698  13.648  0.1009 -0.1511 -0.2437
 2970W        W21824   5.107   3.304  11.998  0.0701 -0.4172 -0.2650
 2971W        W21825   9.035  13.742   2.745 -0.1271  0.0816 -0.0724
 2972W        W21826   4.192   2.671   1.807 -0.3675 -0.2513 -0.0102
 2973W        W21827   0.091  11.982   2.808  0.2641  0.1461  0.1523
 2974W        W21828   2.729   3.569   1.426  0.1776 -0.0974 -0.4081
 2975W        W21829   9.251   9.817   3.340  0.0688  0.5219  0.0270
 2976W        W21830  16.633  13.595   1.081 -0.0568 -0.1410  0.0781
 2977W        W21831   5.924  18.848  12.704  0.1261  0.2896  0.0158
 2978W        W21832   9.379  17.750   2.940  0.0447 -0.0509 -0.0982
 2979W        W21833  17.636  19.146   2.888  0.1874 -0.0436  0.0683
 2980W        W21834  17.452   4.472   2.836 -0.0145 -0.2366  0.0682
 2981W        W21835   4.189   7.547   1.973  0.2243  0.1788  0.0718
 2982W        W21836   3.339   9.021  12.887  0.1318 -0.0786 -0.2055
 2983W        W21837  16.568  18.038  13.250  0.0351  0.2687  0.1769
 2984W        W21838   4.919   2.572  14.476 -0.0758  0.2742  0.0833
 2985W        W21839   3.791  11.386  12.274 -0.0470  0.2426 -0.1575
 2986W        W21840  18.731  11.731  13.418  0.2249 -0.0857  0.0646
 2987W        W21841   6.436  13.162   1.548 -0.0810  0.3541  0.3110
 2988W        W21842   9.719   0.440  11.346 -0.1444  0.0987 -0.1171
 2989W        W21843  10.916   2.043   3.738  0.0831  0.0185 -0.3503
 2990W        W21844  12.959   4.744  14.607 -0.1184 -0.0599 -0.1825
 2991W        W21845   1.926   1.300   3.842 -0.3201  0.0821  0.0205
 2992W        W21846   6.299   6.413  14.493  0.2558  0.1835 -0.1002
 2993W        W21847  16.591  14.902   0.781  0.0683 -0.1643  0.1695
 2994W        W21848  10.143   2.890   2.265  0.2791  0.0668 -0.1374
 2995W        W21849   5.063   3.826  11.802 -0.3087 -0.0884  0.0601
 2996W        W21850   0.276   9.311   0.109 -0.0608  0.0592 -0.3322
 2997W        W21851  18.812  10.480   3.946 -0.0662 -0.1345  0.4050
 2998W        W21852  16.028  17.738  10.907  0.0033 -0.1114  0.1150
 2999W        W21853  18.081  18.317   3.691  0.3932  0.1306 -0.0704
 3000W        W21854  17.455   3.170   3.018  0.2138  0.2623 -0.1745
 3001W        W21855  16.369   0.104   3.440 -0.0669  0.1122 -0.4042
 3002W        W21856   8.687   7.181   4.469 -0.1012 -0.1567  0.1979
 3003W        W21857   8.826   8.938   2.251 -0.1276  0.2638  0.1000
 3004W        W21858   9.692  16.230  11.652  0.1088  0.2534  0.0506
 3005W        W21859  11.404   4.622   4.096 -0.0376  0.0324 -0.0178
 3006W        W21860   2.323  11.047  11.301  0.2958 -0.0962  0.4139
 3007W        W21861   6.124  10.665  14.542 -0.0311 -0.1842 -0.1578
 3008W        W21862  10.206  13.537  12.836 -0.3169  0.2200  0.0030
 3009W        W21863  13.589  10.511   1.022 -0.0248  0.2820  0.0872
 3010W        W21864   3.623  10.888   1.570  0.0353 -0.0351  0.2147
 3011W        W21865   6.773   8.328   3.520 -0.0713  0.0517  0.2533
 3012W        W21866  18.627   4.282  13.965  0.2161 -0.2700 -0.2432
 3013W        W21867  10.943   2.519  10.361 -0.1365  0.4058  0.2381
 3014W        W21868  12.980   5.843   4.904  0.3243 -0.0836  0.3913
 3015W        W21869   4.666  16.138  14.302  0.1022 -0.1164 -0.0954
 3016W        W21870   0.458   5.239   4.111  0.3177 -0.0526  0.0010
 3017W        W21871  18.868   4.170   1.029 -0.0823  0.0085 -0.2234
 3018W        W21872   2.324   6.102  11.538  0.1953 -0.0055  0.1274
 3019W        W21873  15.516  17.686  10.738  0.2764  0.3633  0.0039
 3020W        W21874  19.010  15.324  13.805  0.1412 -0.3109 -0.0554
 3021W        W21875  10.752  19.072  11.513 -0.3407  0.1066  0.1467
 3022W        W21876  15.787   0.659  14.262  0.1650 -0.3370 -0.0193
 3023W        W21877   9.160  16.512  14.017  0.1593  0.2310 -0.1444
 3024W        W21878  17.446   4.789  13.397  0.2494  0.2097  0.0780
 3025W        W21879  14.210  18.713   2.342 -0.1419 -0.1610 -0.3661
 3026W        W21880   8.005   1.000  11.041 -0.3128 -0.4670  0.0621
 3027W        W21881   5.179   9.091   1.753  0.2984  0.0753 -0.0502
 3028W        W21882  14.480   5.976  12.770 -0.3838 -0.0629 -0.2675
 3029W        W21883   8.101  10.376   0.605 -0.2244 -0.0514  0.2154
 3030W        W21884   2.861  15.481  14.476 -0.2168 -0.0606  0.0993
 3031W        W21885   8.995  13.048   2.504  0.1537 -0.4405 -0.0931
 3032W        W21886  14.954   4.450  10.968  0.0249  0.0406 -0.0367
 3033W        W21887   9.517  10.003   0.109 -0.1809 -0.0059  0.0465
 3034W        W21888  17.149   9.081   5.222 -0.0855  0.2010  0.1858
 3035W        W21889   4.016   0.359   2.727  0.0724 -0.0686  0.0601
 3036W        W21890  16.718  14.161  12.708 -0.0585 -0.2172  0.1597
 3037W        W21891   8.360   2.542   3.733  0.0515  0.0111  0.0312
 3038W        W21892   3.446  15.648   3.648  0.0733 -0.0340 -0.0794
 3039W        W21893  11.577   3.519  12.037  0.2159 -0.1924 -0.4643
 3040W        W21894  10.501  10.748   1.660  0.0855  0.1540 -0.0439
 3041W        W21895   1.372  12.197  11.503  0.1101  0.0494 -0.1966
 3042W        W21896   1.522   6.137   0.333 -0.1978  0.0367  0.1746
 3043W        W21897   1.130  18.599  11.397  0.1043 -0.1537 -0.0401
 3044W        W21898  16.769  15.193   2.607  0.1428 -0.0812  0.1171
 3045W        W21899  12.328  14.967   3.137  0.4160 -0.1519 -0.1015
 3046W        W21900   1.479  17.751   3.871 -0.1068  0.0967  0.0465
 3047W        W21901   0.925  10.310  12.222 -0.1562  0.2447 -0.1660
 3048W        W21902  14.894  14.501   2.613 -0.1030 -0.1162  0.3378
 3049W        W21903   6.995   7.839   1.326  0.0995 -0.2570 -0.0144
 3050W        W21904  14.238   6.366   2.459 -0.1276 -0.1558  0.0990
 3051W        W21905   6.440  11.860   4.158  0.1526  0.1394  0.3865
 3052W        W21906   4.902   0.997   2.766 -0.0322 -0.1068  0.2817
 3053W        W21907   8.316  11.174   2.411 -0.3262  0.1653 -0.0866
 3054W        W21908  11.430   3.401   4.907  0.2036 -0.2419  0.0564
 3055W        W21909   8.358  12.109   2.700  0.0374  0.2348  0.2804
 3056W        W21910  14.738   1.897   4.464 -0.0815 -0.0830 -0.0312
 3057W        W21911   2.823   7.913  12.405  0.1237  0.0189 -0.4833
 3058W        W21912   3.532   7.635   2.231  0.0782  0.0950  0.0806
 3059W        W21913  17.359   4.759   1.414 -0.0144  0.1329  0.2446
 3060W        W21914   6.583   5.306   4.495 -0.2107 -0.0363  0.2161
 3061W        W21915   2.711  15.710  12.310 -0.2237 -0.3935 -0.2326
 3062W        W21916   4.777  12.827   2.033 -0.1056 -0.1551 -0.0337
 3063W        W21917   8.087   9.089  12.423  0.0060 -0.0993  0.1519
 3064W        W21918  11.193   0.464  10.468 -0.1687 -0.3689  0.3621
 3065W        W21919   2.775   7.310  11.185  0.2427  0.1450  0.2142
 3066W        W21920   4.647   8.738   2.344 -0.1744  0.3152  0.0659
 3067W        W21921  17.921  10.929   0.582  0.0977  0.0132 -0.1100
 3068W        W21922   7.047   3.653  13.622  0.3926  0.0414 -0.3662
 3069W        W21923  16.056   9.491   2.777 -0.0920  0.0901  0.0653
 3070W        W21924   1.976   0.283   1.799  0.0928 -0.1722  0.0071
 3071W        W21925   0.374  17.437   3.528 -0.1601  0.0766  0.1424
 3072W        W21926   1.361  11.832   0.945 -0.1665 -0.3009  0.0547
 3073W        W21927  17.787  16.770  13.836 -0.0502  0.2159  0.2957
 3074W        W21928  11.582  16.353   1.038 -0.1098  0.2815 -0.0895
 3075W        W21929  17.102  13.501  11.183  0.0917 -0.0039 -0.2134
 3076W        W21930   3.086  11.023  10.670 -0.1255  0.1919  0.0162
 3077W        W21931   9.365  16.126   1.988 -0.4694  0.1493  0.0398
 3078W        W21932  13.597   7.530   0.632  0.1582 -0.1195 -0.1543
 3079W        W21933   1.599   5.434   4.562  0.0443  0.2695 -0.0036
 3080W        W21934   9.153   9.059   4.122 -0.2028 -0.0761 -0.2721
 3081W        W21935  16.232   3.548  11.735 -0.0148 -0.4494  0.0581
 3082W        W21936  10.847   2.818  11.851  0.0396  0.2906  0.2252
 3083W        W21937  15.342   8.531  12.254  0.0925 -0.2081 -0.2939
 3084W        W21938  11.977   8.853  14.307 -0.1939 -0.2804  0.0515
 3085W        W21939  16.748  13.952   1.765  0.1991 -0.1092  0.0076
 3086W        W21940  18.169   3.717  13.211  0.0911  0.0944 -0.0052
 3087W        W21941   5.607   3.297  13.942 -0.0336  0.3388  0.3212
 3088W        W21942  17.375  14.071  12.933  0.0026 -0.0900  0.1257
 3089W        W21943  16.288  14.046   3.586 -0.1064 -0.0741 -0.0446
 3090W        W21944   5.133   3.287  10.619  0.0944  0.0235 -0.0001
 3091W        W21945   0.705   7.240   1.432 -0.3252  0.1049 -0.3407
 3092W        W21946   1.488   1.955   1.718 -0.1339  0.0827 -0.1265
 3093W        W21947   8.976   3.463   2.250  0.1289 -0.2262  0.0264
 3094W        W21948   0.566   2.279   5.162 -0.0250  0.0761  0.1180
 3095W        W21949   6.132  13.064  11.345 -0.1190 -0.2701 -0.1812
 3096W        W21950   9.169  16.249  14.479 -0.1582  0.2412  0.0285
 3097W        W21951  16.431   8.429   0.583 -0.0398 -0.2633  0.0302
 3098W        W21952   6.961  17.321  12.208  0.1048  0.1405 -0.2217
 3099W        W21953  10.347   5.919   4.044 -0.3135  0.2385 -0.2051
 3100W        W21954   2.314   2.823   2.468  0.1554  0.3956 -0.0486
 3101W        W21955  17.143  14.110   3.904  0.0922  0.2284 -0.5311
 3102W        W21956   9.072  14.272   1.803  0.3315 -0.4125 -0.1480
 3103W        W21957   0.363   3.582  14.132  0.1269  0.1543 -0.3956
 3104W        W21958  10.147   1.239  12.953 -0.1084  0.1429  0.0127
 3105W        W21959   9.098  13.428   0.486  0.3528 -0.2968  0.1237
 3106W        W21960   0.363  16.315   3.110 -0.0585  0.1715  0.0747
 3107W        W21961  14.142  14.495  12.388 -0.0391 -0.1116 -0.1945
 3108W        W21962   5.341  15.287   3.763  0.1791  0.1206  0.1592
 3109W        W21963   8.592   6.798   3.577  0.4877  0.1905 -0.1494
 3110W        W21964   7.223  13.226   3.130  0.1594 -0.0004  0.2774
 3111W        W21965   4.213  10.589  10.829  0.0854 -0.0197  0.0362
 3112W        W21966  12.287  16.495   4.155 -0.2680 -0.1301 -0.0346
 3113W        W21967   4.139  12.855  13.457  0.0636  0.0464 -0.2987
 3114W        W21968   9.220  16.198   0.466 -0.0570 -0.1951 -0.0316
 3115W        W21969   0.885   8.669  14.203  0.0206  0.1686  0.0211
 3116W        W21970   3.721   8.957  10.945 -0.1501  0.0435 -0.1376
 3117W        W21971  14.895   1.263   1.727  0.3262 -0.0262  0.5412
 3118W        W21972   7.272   9.787  14.558 -0.0558  0.1613 -0.0441
 3119W        W21973  18.451  10.698  12.626  0.4163 -0.2397  0.1948
 3120W        W21974   9.616  17.290  12.618 -0.0587  0.2937 -0.3898
 3121W        W21975   8.940  18.125   4.257 -0.2022 -0.0755  0.0515
 3122W        W21976   4.585  11.890  12.927 -0.3118  0.4092  0.0964
 3123W        W21977   7.393   3.510   3.136 -0.0173  0.1345 -0.3018
 3124W        W21978   5.414   2.531   2.374 -0.1922  0.1480  0.1757
 3125W        W21979   2.066  17.074   1.674  0.1869  0.1931  0.1674
 3126W        W21980  17.687   9.442  12.513  0.2964  0.0843  0.0272
 3127W        W21981   3.439  16.237  11.832  0.1330 -0.0878 -0.1246
 3128W        W21982  10.780   6.475  13.210 -0.2301  0.0684 -0.0360
 3129W        W21983   0.551  12.979  14.488  0.2821  0.0499  0.0802
 3130W        W21984  10.473   9.222  12.047 -0.1626  0.2204 -0.1578
 3131W        W21985   3.362   7.264   1.005 -0.0291  0.0434 -0.3054
 3132W        W21986   9.097  17.315  14.277 -0.0752  0.2594 -0.1847
 3133W        W21987  18.417  14.726  13.558 -0.1682 -0.2673  0.0336
 3134W        W21988  10.433   7.949   1.350  0.0428 -0.1554  0.0033
 3135W        W21989  16.347  18.200   2.226  0.0113 -0.0101  0.0206
 3136W        W21990  11.023   4.147   1.821  0.0393  0.1655 -0.0948
 3137W        W21991  12.711   8.257  12.554  0.1387  0.1815 -0.3732
 3138W        W21992  10.231  14.199  13.110  0.2731 -0.1935  0.1388
 3139W        W21993   7.850   0.575   1.391  0.3515 -0.0572 -0.2508
 3140W        W21994  15.860   9.702  11.787  0.4068  0.1227 -0.1449
 3141W        W21995  16.010   5.685   2.629 -0.1531 -0.0241  0.0164
 3142W        W21996   9.034  13.944   3.681  0.2395 -0.0352  0.3446
 3143W        W21997  18.735   8.009   2.521 -0.0025  0.1424 -0.0064
 3144W        W21998  16.907  18.135  11.681 -0.0791 -0.2517  0.0766
 3145W        W21999   1.830   2.624   2.825 -0.1536  0.0607 -0.0566
 3146W        W22000   4.470   6.388  10.690 -0.2244  0.3293 -0.2400
 3147W        W22001  17.733  12.405  11.242 -0.0477  0.0826  0.0130
 3148W        W22002   2.169  17.278   0.762  0.0879  0.3704 -0.2060
 3149W        W22003  18.241  13.490   0.853  0.3974 -0.0989  0.1405
 3150W        W22004   5.001   5.739  13.177  0.3435 -0.0616  0.2439
 3151W        W22005   9.859   2.645  11.506  0.0048  0.0259  0.2790
 3152W        W22006  16.913   9.627  12.972  0.1939  0.0629 -0.1150
 3153W        W22007   7.174   1.485   3.252  0.0706  0.1147 -0.2986
 3154W        W22008  14.785   1.913  11.436 -0.0979  0.0796 -0.1537
 3155W        W22009  17.552  15.235   4.289  0.0794  0.0597 -0.0949
 3156W        W22010   5.917   9.245   2.815  0.0337 -0.2903  0.0487
 3157W        W22011   9.745  17.742  12.564  0.2832 -0.1294  0.1531
 3158W        W22012  16.493   2.671  10.187  0.4456 -0.2717  0.0216
 3159W        W22013   7.173   7.669  14.639 -0.1651 -0.2526  0.1565
 3160W        W22014  16.203  11.107   0.498  0.1582 -0.2230 -0.0521
 3161W        W22015   0.925  12.769  11.623 -0.0435  0.2645 -0.1090
 3162W        W22016   5.838   5.860  10.644  0.0548 -0.0659 -0.1442
 3163W        W22017  14.385   6.954  12.435  0.1912  0.3446 -0.1447
 3164W        W22018  12.326   6.297  11.903 -0.1758 -0.3495  0.2918
 3165W        W22019  17.281   1.459   1.415 -0.1341 -0.2386 -0.2287
 3166W        W22020   3.343   5.767   0.761  0.1876  0.1823  0.1293
 3167W        W22021  15.114   7.979   1.011  0.0028 -0.0555  0.0297
 3168W        W22022  16.830   3.421  11.744 -0.3346  0.0400 -0.3835
 3169W        W22023  10.394  13.420   4.073 -0.2610 -0.3419 -0.2610
 3170W        W22024  14.433  13.061   2.438  0.2540 -0.4586 -0.2628
 3171W        W22025  13.478  10.952   3.119 -0.1610 -0.1988 -0.0506
 3172W        W22026  17.277  19.132  11.013  0.2289  0.0099  0.0564
 3173W        W22027  13.002  10.221  10.991 -0.0470  0.0540  0.0909
 3174W        W22028  13.960  13.537  13.076 -0.1938 -0.0265  0.2838
 3175W        W22029   8.250  16.844   3.921  0.1919  0.0294  0.1339
 3176W        W22030  13.761  12.662   3.550 -0.4875 -0.2115  0.1643
 3177W        W22031   8.550   8.633   0.542 -0.0094  0.2383 -0.0457
 3178W        W22032  16.903   2.087   4.643  0.1518 -0.2163  0.1146
 3179W        W22033  18.973  15.377  10.526 -0.0226 -0.0957  0.2332
 3180W        W22034   4.351   8.175  12.746  0.1307  0.0576 -0.1472
 3181W        W22035   0.317   8.578  12.105 -0.2477 -0.2700 -0.2547
 3182W        W22036  19.115   5.013  14.285  0.0298  0.1347  0.2863
 3183W        W22037   6.649   4.601  10.831 -0.0498  0.2280 -0.0436
 3184W        W22038   4.452  13.581  11.132  0.2067 -0.0532  0.0545
 3185W        W22039  15.771  15.726   3.599 -0.0334  0.2918  0.1122
 3186W        W22040   8.833  10.749  14.775  0.0971 -0.1500 -0.0089
 3187W        W22041   3.831   5.182  13.186  0.3711  0.2417  0.5633
 3188W        W22042  16.300   3.099  14.587 -0.0933  0.2833 -0.0727
 3189W        W22043   0.213   6.157  11.052 -0.1817  0.2164  0.1237
 3190W        W22044  12.685   2.944   1.176 -0.1246 -0.1213  0.1417
 3191W        W22045  12.004  12.050   2.841  0.1070  0.1051  0.4764
 3192W        W22046   6.709   4.629   3.439  0.0129 -0.0504 -0.0606
 3193W        W22047   3.462   2.203   2.488  0.1765 -0.0579 -0.2247
 3194W        W22048  14.656   7.643   3.739  0.0039 -0.0754 -0.1913
 3195W        W22049   2.135  15.031  14.189 -0.2614 -0.2879 -0.1956
 3196W        W22050  13.269   9.378  11.234  0.0582 -0.0288  0.1618
 3197W        W22051  15.302  15.055   3.840  0.0401 -0.2649  0.1871
 3198W        W22052   9.085   0.901   0.892  0.2990  0.1232 -0.2253
 3199W        W22053  13.354  16.902   1.647  0.2398 -0.1576  0.3909
 3200W        W22054   1.308   9.502  12.737  0.0384 -0.1069 -0.2547
 3201W        W22055   3.388  14.025   3.390  0.0837  0.0727  0.1897
 3202W        W22056   3.387   2.087  12.128  0.1875  0.1763 -0.1792
 3203W        W22057   4.026   5.312   1.023 -0.1440  0.2729  0.1074
 3204W        W22058  16.496   5.204  13.332  0.2640  0.0859 -0.2081
 3205W        W22059  13.073   3.846   3.162 -0.3443 -0.2849  0.0153
 3206W        W22060   4.375  11.496   0.797  0.1644 -0.0307  0.1242
 3207W        W22061  17.505   2.504  11.845  0.1245 -0.1327 -0.1750
 3208W        W22062  15.897  14.621   1.026  0.3526  0.2050  0.0347
 3209W        W22063  15.139  15.107  11.147 -0.2451 -0.1758 -0.1443
 3210W        W22064   4.396   7.405   3.235 -0.0429  0.1234 -0.0118
 3211W        W22065  17.078   3.488   2.775 -0.4063 -0.1767 -0.2045
 3212W        W22066  18.779   7.010   5.992 -0.2684  0.0844  0.0595
 3213W        W22067  17.455  13.615   2.210 -0.1608  0.2950  0.0428
 3214W        W22068  10.698   0.404  10.617 -0.1496 -0.1235  0.1233
 3215W        W22069  15.406   4.707   2.224  0.0884 -0.0056 -0.1031
 3216W        W22070   6.359  14.299  12.405 -0.2427  0.1211 -0.0129
 3217W        W22071   7.054   0.642   1.110  0.1598  0.4250  0.0113
 3218W        W22072   9.102   4.642   2.932 -0.1080  0.0625  0.0194
 3219W        W22073  18.380   3.535   2.255 -0.1945 -0.3703 -0.2894
 3220W        W22074  14.283   6.156  14.769 -0.3212 -0.1244  0.0738
 3221W        W22075  15.110   4.712   0.091  0.3495  0.1650  0.1945
 3222W        W22076  10.053  12.872  11.720  0.2800 -0.0019 -0.1085
 3223W        W22077  12.681   4.113  11.915 -0.0801 -0.3805  0.1669
 3224W        W22078   4.556   6.360   0.244  0.0810 -0.0196  0.0904
 3225W        W22079  18.095  17.392   3.165 -0.0778 -0.0746 -0.2154
 3226W        W22080   9.493  18.217  14.270  0.1212  0.1223  0.0744
 3227W        W22081   3.094  15.449   1.393  0.1273  0.2941 -0.3059
 3228W        W22082   0.358   0.611   0.947 -0.1449 -0.3853 -0.0725
 3229W        W22083   5.549   2.066  11.360  0.1217  0.1304 -0.3837
 3230W        W22084   5.573  12.050   4.375 -0.0505 -0.1830  0.3217
 3231W        W22085   0.858   6.746   0.795  0.1529  0.3266  0.2695
 3232W        W22086  10.783   9.501  11.016  0.0191 -0.2938 -0.0267
 3233W        W22087   2.500   4.497   1.018 -0.1992 -0.1513 -0.2037
 3234W        W22088   1.691   7.935  12.106 -0.0345  0.1947 -0.1049
 3235W        W22089  12.690  18.626   1.267 -0.2488 -0.1904  0.0405
 3236W        W22090   8.121  10.703  12.279  0.1452  0.0720 -0.0616
 3237W        W22091  13.508  16.262   2.844  0.0106 -0.1316  0.0193
 3238W        W22092   8.601  16.947  13.453  0.2101 -0.0205  0.2193
 3239W        W22093   1.425   6.500   2.997  0.2701  0.4744  0.0673
 3240W        W22094   0.521   1.472   4.391 -0.0340  0.2856 -0.1261
 3241W        W22095  15.479   7.093  11.627 -0.1083 -0.0458 -0.0588
 3242W        W22096  17.363   8.570  12.109  0.0367 -0.0223  0.1912
 3243W        W22097  11.520   5.025   1.904  0.1524 -0.1527 -0.1928
 3244W        W22098   2.737   1.088   2.255  0.1930 -0.1115 -0.0684
 3245W        W22099  15.107   2.597  12.153  0.0165  0.1428 -0.1439
 3246W        W22100   5.786   4.974  11.723  0.1124  0.2379 -0.1408
 3247W        W22101   5.750   5.291  13.048 -0.1770  0.1626  0.0384
 3248W        W22102   2.112  10.849   2.419 -0.1250  0.0631 -0.0205
 3249W        W22103  11.795  15.599  11.689  0.5497 -0.1171 -0.1625
 3250W        W22104   4.215  12.397  14.681  0.1551  0.0471  0.1037
 3251W        W22105  18.547  17.735  10.942 -0.2844 -0.4064 -0.0591
 3252W        W22106  15.777  15.975   1.943  0.2893 -0.1843 -0.4175
 3253W        W22107   5.763  16.839   9.813  0.0066 -0.1326 -0.2873
 3254W        W22108   6.265   8.572  13.724 -0.2308  0.4054  0.1618
 3255W        W22109   3.626  17.941  12.583  0.2313 -0.0773  0.3786
 3256W        W22110  19.139   9.036   4.410 -0.1654  0.1612  0.2503
 3257W        W22111  16.215  18.060  12.845 -0.0244 -0.2871 -0.0277
 3258W        W22112   9.250  14.007  12.582 -0.0363  0.3457 -0.0442
 3259W        W22113   0.156  11.929  13.948 -0.2044 -0.1303 -0.0034
 3260W        W22114  12.852  12.412  10.831  0.0796 -0.1895 -0.2729
 3261W        W22115  18.538  10.593   2.545 -0.2567 -0.0478 -0.0078
 3262W        W22116   5.937  17.505  10.975 -0.3688 -0.2415  0.2266
 3263W        W22117  17.539  16.298  13.841  0.0055 -0.0482  0.2370
 3264W        W22118  13.356  10.843   4.195 -0.0390  0.1568  0.1678
 3265W        W22119   5.920  16.409  13.074 -0.0281  0.0157 -0.3337
 3266W        W22120  11.682  15.428   0.783 -0.1944 -0.0609  0.1351
 3267W        W22121  14.986  12.549   1.938 -0.0576 -0.0190  0.2572
 3268W        W22122   8.483  13.093  12.520 -0.3939 -0.1414  0.3403
 3269W        W22123   7.950  12.145  10.810 -0.1198  0.0396  0.0580
 3270W        W22124   2.981   0.980  10.665  0.2674  0.2491 -0.0880
 3271W        W22125  12.187   3.372  11.652  0.2109  0.1932  0.0810
 3272W        W22126  15.377  18.196   0.792  0.0928 -0.0052 -0.1205
 3273W        W22127  18.115   1.551  11.290 -0.2575  0.2692 -0.0173
 3274W        W22128   1.790  17.572   3.524  0.0427 -0.2762 -0.1163
 3275W        W22129   8.883  11.828   1.584  0.0910  0.1001 -0.0363
 3276W        W22130  15.912  10.285  12.480 -0.0946  0.1318 -0.1423
 3277W        W22131  18.744  16.819  10.852  0.2904 -0.0772  0.0622
 3278W        W22132  17.322   8.261   2.663 -0.1668 -0.0127 -0.3548
 3279W        W22133   5.260  14.391  13.114 -0.0670 -0.2601  0.0337
 3280W        W22134  13.591  12.004   1.078 -0.3401 -0.1461 -0.3948
 3281W        W22135   9.092   4.635   2.436 -0.2156  0.3776 -0.0907
 3282W        W22136  19.134  13.590   5.188  0.0231 -0.5205 -0.0954
 3283W        W22137  10.036  15.152  13.318  0.1055  0.0765 -0.2634
 3284W        W22138  18.387   7.978   4.009  0.0018  0.2639  0.1636
 3285W        W22139   0.150   7.444  11.601  0.2462  0.1535  0.1056
 3286W        W22140  17.176  14.371   4.342 -0.0998  0.2661  0.1879
 3287W        W22141   3.834   6.546   0.449  0.0309 -0.1496  0.1912
 3288W        W22142  15.298   2.245  12.958  0.0663  0.2368  0.0219
 3289W        W22143   8.610  16.979   1.226  0.0559  0.0391 -0.2258
 3290W        W22144  18.292   9.836  13.172  0.1479  0.1035 -0.2142
 3291W        W22145  10.137   3.287  14.412 -0.4285 -0.1370  0.2767
 3292W        W22146   4.641   4.474   2.332  0.1271  0.0314  0.3467
 3293W        W22147   8.862   1.323   1.287 -0.0775 -0.2834  0.1175
 3294W        W22148   4.290  10.768  13.800  0.0836  0.0525 -0.0662
 3295W        W22149  10.930   7.089   1.472 -0.2050  0.1578  0.3273
 3296W        W22150   4.361   6.276   4.077  0.0759  0.1886  0.2438
 3297W        W22151  13.386   3.737  14.058  0.1428 -0.2252 -0.2014
 3298W        W22152  15.023   1.048  13.142 -0.0375  0.0380 -0.0249
 3299W        W22153  17.272   4.064  11.339 -0.2004  0.0631 -0.0098
 3300W        W22154  15.694  11.693  14.610 -0.1388  0.0694 -0.0038
 3301W        W22155  16.125   9.306  13.386  0.1669  0.1492 -0.2181
 3302W        W22156   1.613  16.612  14.332 -0.0733 -0.1829  0.0544
 3303W        W22157  14.360   8.582   2.225  0.0554  0.1944  0.3372
 3304W        W22158  17.415   9.412  13.019 -0.3935  0.0863 -0.0525
 3305W        W22159   0.201   3.314  12.669 -0.1813 -0.0472 -0.0322
 3306W        W22160  18.025  16.652  11.650  0.1547  0.1566  0.2663
 3307W        W22161   8.393  17.388   1.560 -0.2287 -0.2784 -0.2311
 3308W        W22162  17.287  18.884   3.146 -0.5527 -0.3842  0.0937
 3309W        W22163  14.172  18.481   1.463 -0.1807  0.2015 -0.2926
 3310W        W22164  14.872  12.222  12.275  0.1318 -0.1360 -0.0453
 3311W        W22165   5.754  12.617  12.095  0.2692 -0.2496 -0.2983
 3312W        W22166   2.050  12.819   3.050  0.1125 -0.0633  0.0417
 3313W        W22167  17.017   8.094  14.653  0.3129 -0.4299  0.0411
 3314W        W22168   5.005  12.118  13.733 -0.0620  0.1877  0.0407
 3315W        W22169   6.104   0.947  11.840 -0.0942 -0.0575  0.0395
 3316W        W22170   0.920   4.202  11.750 -0.0539  0.1674  0.0385
 3317W        W22171   9.914   7.665  10.418  0.0244 -0.0395  0.1280
 3318W        W22172  16.160  15.997  13.625 -0.3288  0.1816  0.4231
 3319W        W22173  11.634   5.854  10.353  0.0919  0.3167  0.3318
 3320W        W22174  10.419  18.970  12.723 -0.2635 -0.0125  0.0382
 3321W        W22175  16.229  16.962   0.904  0.3094  0.1751  0.0371
 3322W        W22176  10.874   4.800   2.519 -0.0880  0.2012  0.4837
 3323W        W22177   7.323  14.576  11.279 -0.3632  0.1938 -0.0418
 3324W        W22178  18.602  16.274   4.004  0.0824  0.1511 -0.0650
 3325W        W22179  17.094   7.601   0.105 -0.3931  0.2816 -0.2981
 3326W        W22180   5.235   5.874  11.600  0.1990 -0.4075 -0.3793
 3327W        W22181  15.227   7.682   2.699  0.0057 -0.0748  0.0668
 3328W        W22182   8.987   5.264   2.458  0.1782  0.2211 -0.4274
 3329W        W22183   4.614  11.377   4.587 -0.0071  0.3359  0.0656
 3330W        W22184  14.320   3.796  12.726  0.2610  0.0315  0.2230
 3331W        W22185  16.573  10.857   2.565  0.0991  0.0315  0.4425
 3332W        W22186  14.734  17.374   0.950 -0.0272  0.0069  0.0388
 3333W        W22187  11.936   8.835  11.263  0.0461 -0.1393 -0.1748
 3334W        W22188   9.438   9.920   1.555 -0.3507  0.2232  0.0428
 3335W        W22189  10.043  18.643   0.525 -0.1447  0.1230  0.0913
 3336W        W22190  17.996  19.080  14.127  0.1060  0.0777  0.1632
 3337W        W22191   5.811  13.259  10.503 -0.2337  0.0049 -0.0025
 3338W        W22192   6.860   0.621   1.532 -0.1234  0.0721 -0.3426
 3339W        W22193   9.661  11.956   0.318 -0.2099 -0.1267  0.1749
 3340W        W22194   8.819   7.248  14.792  0.3414  0.1131 -0.2283
 3341W        W22195  13.669  10.479   3.281  0.0334 -0.3248 -0.0065
 3342W        W22196  17.446   2.236  12.302 -0.0218  0.3828  0.2496
 3343W        W22197  14.160   3.901  14.653 -0.3384  0.2250 -0.0600
 3344W        W22198   5.006   2.441   0.139  0.0493 -0.1645  0.0979
 3345W        W22199  13.819   8.348   2.262 -0.2725  0.0049 -0.1149
 3346W        W22200   0.092   9.601   4.582 -0.0177  0.1273 -0.1317
 3347W        W22201  15.215   2.121  11.497 -0.1409 -0.3840  0.2164
 3348W        W22202   2.266  15.510  12.415 -0.1704 -0.0189  0.3224
 3349W        W22203   1.578  13.881  13.172 -0.3802  0.3286  0.2151
 3350W        W22204   2.455  14.449  11.775  0.0165  0.1118  0.0157
 3351W        W22205  18.322   2.307  11.682 -0.0916  0.0391 -0.3772
 3352W        W22206   4.653  15.901   3.351  0.0655 -0.1361 -0.1132
 3353W        W22207   2.919  13.831   3.964  0.4284 -0.0552 -0.0208
 3354W        W22208   0.317   0.126  11.999  0.0467 -0.1731  0.0545
 3355W        W22209  11.048   0.363   2.202  0.0969 -0.0886  0.4423
 3356W        W22210   4.493   3.825   4.611 -0.0309 -0.0655  0.0248
 3357W        W22211   3.949   7.741  12.637 -0.2450  0.1665  0.2492
 3358W        W22212  15.495  10.470   1.931  0.2128  0.1924  0.0579
 3359W        W22213   2.587  10.441  13.946 -0.1231  0.2733 -0.0864
 3360W        W22214   4.632  12.376  13.976  0.0193 -0.0168  0.0461
 3361W        W22215   2.611  13.567   3.515 -0.0068  0.1341 -0.0840
 3362W        W22216   4.196   4.723   9.864  0.1907  0.0514  0.0416
 3363W        W22217   6.011  11.993   2.903  0.0822  0.3370  0.0868
 3364W        W22218   1.285   0.631  11.266 -0.1328 -0.4280 -0.0565
 3365W        W22219   6.428   5.732   3.733  0.2042  0.0717 -0.0750
 3366W        W22220  17.537  10.209  10.794 -0.1104  0.1630 -0.1458
 3367W        W22221  11.078  12.602  12.163 -0.0735  0.1668 -0.0670
 3368W        W22222   6.551   2.517  11.204 -0.1274  0.0552 -0.0785
 3369W        W22223  13.962   7.259  10.894  0.1340  0.0396  0.0984
 3370W        W22224  15.232   2.845   1.601 -0.0130 -0.0298 -0.2676
 3371W        W22225  11.704   9.245  14.639 -0.5390  0.0716  0.1383
 3372W        W22226  12.710   6.506   3.789 -0.2220  0.0732 -0.0333
 3373W        W22227  15.520   6.420  13.930  0.1804 -0.0253  0.2048
 3374W        W22228  11.933   6.245   2.203  0.1283 -0.0738 -0.1346
 3375W        W22229   3.686   9.916   5.102 -0.0641 -0.1713  0.3050
 3376W        W22230   8.893   9.456  13.924  0.2843  0.4164 -0.1872
 3377W        W22231  11.438  14.816  10.927  0.1323  0.0894  0.0834
 3378W        W22232   6.928  15.968   1.713  0.1616 -0.0698 -0.0044
 3379W        W22233  10.280  15.597  10.998  0.0722  0.0333  0.1697
 3380W        W22234   7.815  13.603  14.280  0.0199  0.0891  0.3565
 3381W        W22235   8.753   0.656  12.298  0.2897  0.2592  0.1801
 3382W        W22236  15.325  14.152   2.771  0.0620  0.0896  0.0047
 3383W        W22237   1.611  11.387   4.076  0.0815  0.2011 -0.0578
 3384W        W22238  10.644  16.014  13.208  0.0117 -0.0122  0.1004
 3385W        W22239  17.290   2.932   4.578 -0.0103  0.1018 -0.2868
 3386W        W22240   9.320  11.413  12.427 -0.0304 -0.1934 -0.1532
 3387W        W22241  10.830   7.483   5.084 -0.2098 -0.2170  0.0742
 3388W        W22242   5.562   0.435   0.985  0.2514  0.0896  0.1531
 3389W        W22243  13.379  15.525   1.354 -0.0192  0.0147  0.0375
 3390W        W22244   1.005   8.685   2.109 -0.1915  0.0964  0.1852
 3391W        W22245   4.899  11.031   0.065  0.0017 -0.2202  0.1852
 3392W        W22246  13.531   8.853   1.129  0.2277 -0.0393 -0.0160
 3393W        W22247   0.457  12.938  11.460 -0.2756 -0.1598  0.0755
 3394W        W22248  14.016   7.651  11.190  0.1088 -0.1088  0.1774
 3395W        W22249   7.713  14.550   2.229  0.1617 -0.0640  0.1688
 3396W        W22250  11.656  19.012   0.914  0.5539  0.0374  0.2180
 3397W        W22251   5.689  18.266   1.456  0.1509  0.0888 -0.0928
 3398W        W22252   7.314  15.758  12.784 -0.0103  0.0243  0.0135
 3399W        W22253  18.141  16.196  13.141  0.1555  0.4745 -0.0551
 3400W        W22254   7.968   8.154  14.686 -0.2333  0.2613  0.2409
 3401W        W22255   2.379  16.026   1.989  0.1341 -0.3219 -0.2591
 3402W        W22256   4.804  11.746   4.304 -0.1111 -0.0603 -0.1655
 3403W        W22257  15.579  11.950   3.376  0.0753 -0.1124 -0.4390
 3404W        W22258   8.571  14.903  10.359 -0.4147  0.1665 -0.0386
 3405W        W22259  16.049   4.957   3.688 -0.3326 -0.1863  0.0545
 3406W        W22260  17.828  16.489   3.963  0.1275  0.3293  0.4050
 3407W        W22261  11.626   5.012   0.030 -0.0185 -0.2991 -0.1822
 3408W        W22262   4.698   8.785  13.649  0.1526 -0.0337 -0.1344
 3409W        W22263  18.918   1.247  12.452 -0.1225  0.3861  0.3374
 3410W        W22264  13.195   3.590   4.484 -0.2456 -0.1299  0.2725
 3411W        W22265  12.874   8.133  11.587  0.0594 -0.0299  0.0721
 3412W        W22266  14.288   8.156  13.129 -0.1785  0.1915  0.3224
 3413W        W22267   6.106  17.886  10.727 -0.0598  0.1840 -0.0526
 3414W        W22268   0.715   4.559   4.918  0.0931 -0.0098  0.1806
 3415W        W22269   4.050   3.071   2.644  0.0159  0.0669  0.2032
 3416W        W22270   1.911  10.691  11.977  0.0291 -0.3121 -0.3436
 3417W        W22271   8.677   4.442  12.235  0.0498 -0.1289 -0.0858
 3418W        W22272  13.576   1.220   2.706  0.3160 -0.0127 -0.0869
 3419W        W22273   3.373   9.905   9.968 -0.0483  0.1371  0.0029
 3420W        W22274  16.133   3.939   2.007  0.0987  0.2076  0.0210
 3421W        W22275  18.608  18.800   1.923 -0.3278 -0.2238 -0.2022
 3422W        W22276  13.442  12.821   2.255  0.1777 -0.2183 -0.1375
 3423W        W22277   0.482  16.273   4.145 -0.0861 -0.2370  0.0381
 3424W        W22278   0.573  18.891   2.855  0.0865 -0.0294 -0.5199
 3425W        W22279  15.321  13.554   2.741 -0.2953  0.2340  0.0810
 3426W        W22280   3.267  10.903  11.104 -0.0269 -0.1618  0.2738
 3427W        W22281  14.051   2.437  14.020 -0.0661 -0.0339  0.2195
 3428W        W22282   9.357  12.698   2.357 -0.2063  0.0149  0.0512
 3429W        W22283  17.634  10.161   3.384  0.1532 -0.2975  0.3871
 3430W        W22284   1.976  11.779   1.843  0.1199 -0.0589 -0.2152
 3431W        W22285   7.435  16.827   4.028  0.0760 -0.0565  0.1411
 3432W        W22286   7.935  14.583   9.239 -0.1060 -0.1368 -0.4711
 3433W        W22287   8.620   6.423  10.607  0.2979 -0.1280 -0.1321
 3434W        W22288   3.957   0.506  13.030  0.0273  0.0910 -0.0603
 3435W        W22289   3.845   3.210  14.105 -0.0324  0.1284 -0.1524
 3436W        W22290   2.559   6.107  14.747  0.3157  0.2670 -0.0345
 3437W        W22291   6.767   8.418   0.941  0.0048  0.1836 -0.3051
 3438W        W22292   0.648   6.137   2.580 -0.1568  0.2195 -0.1721
 3439W        W22293   6.894  10.269  12.182 -0.4592 -0.0121  0.0176
 3440W        W22294  18.765  14.671   1.675  0.1370  0.1325  0.0618
 3441W        W22295  14.240  15.199   1.704  0.0098 -0.1447  0.0510
 3442W        W22296   6.838  16.706  10.515  0.1563 -0.0145  0.0999
 3443W        W22297  12.964  14.469  14.155  0.1480  0.0193  0.1253
 3444W        W22298  10.592   7.357   0.675 -0.2836  0.1271 -0.0051
 3445W        W22299  17.942   5.358   0.308  0.0346 -0.0143  0.0881
 3446W        W22300  14.916   9.718  12.874  0.1070 -0.0557 -0.2449
 3447W        W22301   8.031  12.703   1.743  0.0562  0.0347  0.0309
 3448W        W22302   8.141   6.071   0.081 -0.0778  0.0672  0.1205
 3449W        W22303   3.643  19.107   4.010  0.1266  0.1059 -0.1074
 3450W        W22304   7.293   8.206  13.604  0.4210 -0.1584 -0.0167
 3451W        W22305   4.371   8.344  10.577  0.1560 -0.2903  0.1915
 3452W        W22306  15.986  11.330   0.040 -0.3618 -0.1695 -0.1329
 3453W        W22307   7.125  13.006  12.286  0.0770  0.4168  0.1612
 3454W        W22308   9.316  15.279  11.286 -0.2744 -0.1779 -0.2222
 3455W        W22309   8.058  18.462  13.742 -0.2516 -0.0760  0.3585
 3456W        W22310   9.523  16.584  14.380 -0.0361 -0.0165  0.0175
 3457W        W22311  19.112   3.198   9.802  0.2252  0.4017  0.1474
 3458W        W22312   5.097   2.223  14.162 -0.0300  0.0035  0.3733
 3459W        W22313  16.172  12.620   3.753 -0.1086  0.2034 -0.0318
 3460W        W22314  18.101   1.463   2.726  0.0256 -0.0571 -0.0939
 3461W        W22315  10.224  14.530  11.305  0.1925 -0.2120 -0.1414
 3462W        W22316   6.663   2.324   2.339  0.1245 -0.0056 -0.0157
 3463W        W22317  15.181  17.630  10.413  0.0181  0.1022  0.0400
 3464W        W22318  10.354  11.215  14.202  0.1451  0.3573  0.3860
 3465W        W22319   1.649  11.866   2.791 -0.1307  0.0280 -0.1749
 3466W        W22320   4.388   9.433   3.098  0.0183 -0.1220 -0.0580
 3467W        W22321  15.390   3.871  11.262  0.1429 -0.0305 -0.0909
 3468W        W22322  18.128  12.737   2.401 -0.4123 -0.0722 -0.2328
 3469W        W22323   7.770  18.956   0.566  0.1685 -0.3838  0.0700
 3470W        W22324  13.067   4.240   9.793 -0.0563  0.3475  0.1435
 3471W        W22325   7.737   3.281  14.180 -0.0872  0.3086 -0.0231
 3472W        W22326   7.897   9.850   0.708  0.0787 -0.0204  0.2109
 3473W        W22327   8.923  15.929   2.657 -0.0520 -0.0498 -0.0402
 3474W        W22328  18.046   1.670  14.295  0.1242 -0.1516 -0.1586
 3475W        W22329  12.940   0.966   2.225  0.1862 -0.0751  0.0244
 3476W        W22330  17.744   4.145   2.654 -0.2535  0.0199  0.1027
 3477W        W22331   7.819   1.489   4.175 -0.3036 -0.1102 -0.1067
 3478W        W22332   0.997  16.065   4.134 -0.4314 -0.3340  0.1063
 3479W        W22333   7.595  11.242   1.785 -0.0285 -0.1729  0.1607
 3480W        W22334  17.111  14.105  11.740  0.0617 -0.1557  0.1839
 3481W        W22335   8.495   9.654   3.055  0.1357  0.1035 -0.0023
 3482W        W22336   0.191  17.598   3.015 -0.0495  0.0100 -0.0412
 3483W        W22337   1.934   4.758   2.990  0.0774 -0.2742 -0.2200
 3484W        W22338   0.642   0.223  14.380 -0.1294  0.0010  0.1420
 3485W        W22339  17.662   0.626   0.939  0.0954  0.1358 -0.0179
 3486W        W22340   8.542   7.221  14.291 -0.0445  0.2363 -0.0528
 3487W        W22341   1.715   0.418  11.133 -0.0658  0.0470 -0.3071
 3488W        W22342  14.512   5.137   2.394 -0.3590  0.0937  0.1120
 3489W        W22343  13.183  11.376   2.472  0.2674 -0.1600  0.1940
 3490W        W22344  12.274   6.703   3.485 -0.1659 -0.0807 -0.1251
 3491W        W22345  15.858   3.762  11.068  0.0311 -0.0480 -0.3552
 3492W        W22346  12.061   1.287  10.305 -0.4417 -0.2191 -0.0363
 3493W        W22347   9.146   8.395   3.586 -0.3316 -0.1959  0.1812
 3494W        W22348   7.776   7.933   1.992  0.2604 -0.0031 -0.0213
 3495W        W22349   0.683   0.536   1.470  0.0645  0.0013 -0.2492
 3496W        W22350  11.231   7.908   0.470 -0.2789 -0.2191  0.0967
 3497W        W22351   8.446   9.208  13.628  0.2360 -0.1786  0.3059
 3498W        W22352   5.223  15.608  11.207  0.0275  0.1796  0.0106
 3499W        W22353   1.404  10.083   1.320 -0.0755  0.1776 -0.0260
 3500W        W22354   4.553   3.753  10.191 -0.4119 -0.2035  0.0516
 3501W        W22355  11.714  16.585  14.342 -0.2547  0.0341  0.5378
 3502W        W22356   6.689  18.810   1.372 -0.1344  0.0231  0.1464
 3503W        W22357   6.141   4.530  10.531 -0.2108  0.1972  0.0728
 3504W        W22358   4.258  15.283  12.745 -0.0979 -0.1697 -0.2041
 3505W        W22359  17.707  17.019   4.078 -0.1487 -0.0318 -0.1266
 3506W        W22360   4.993  10.654  12.412  0.4636 -0.0646  0.4148
 3507W        W22361   6.020  13.501  12.499 -0.0850 -0.1707 -0.0978
 3508W        W22362  10.870   1.868  13.002 -0.0257 -0.0208 -0.4433
 3509W        W22363   2.578   5.701   1.659 -0.0197  0.0081  0.0220
 3510W        W22364  17.730   5.517  13.252 -0.3270 -0.0657 -0.0625
 3511W        W22365   9.653  10.640  10.891 -0.0628  0.0059  0.0482
 3512W        W22366  13.456   6.345   4.375  0.3318  0.0987  0.2074
 3513W        W22367   2.678   1.820   1.473  0.3431  0.0361 -0.1965
 3514W        W22368  16.984   8.678   0.576  0.0285  0.2394 -0.1820
 3515W        W22369   2.973   3.413   2.821  0.1516  0.1552 -0.1076
 3516W        W22370   1.510   0.749   4.316  0.1676  0.0407 -0.0023
 3517W        W22371  18.810   7.523  12.659  0.2764 -0.0721  0.0755
 3518W        W22372   2.013   2.804  11.072 -0.0908  0.0143 -0.1286
 3519W        W22373  12.867   9.030   3.546 -0.1985 -0.1207  0.0246
 3520W        W22374  10.166  14.989  14.701  0.0332  0.2621 -0.0467
 3521W        W22375   9.575   5.012  11.467 -0.2048 -0.0951  0.0038
 3522W        W22376  14.451  10.906   0.615  0.2468  0.0585  0.1047
 3523W        W22377   3.856  11.285   3.383 -0.0356 -0.0594 -0.0049
 3524W        W22378  11.983  12.913  12.423 -0.1557 -0.1256 -0.0833
 3525W        W22379  16.937   8.448   5.577  0.0517  0.1022 -0.1148
 3526W        W22380   7.698   6.517   3.164 -0.1491 -0.2863  0.0218
 3527W        W22381   9.515   5.554  12.954 -0.1145  0.1686  0.0136
 3528W        W22382   5.588   3.045  11.086  0.0542  0.2204  0.0012
 3529W        W22383  16.935   9.796  11.668  0.1088 -0.1088  0.0621
 3530W        W22384  12.251   6.816  13.523 -0.1401 -0.1243 -0.0210
 3531W        W22385   2.532  11.072  12.656  0.0995  0.0172  0.0223
 3532W        W22386  18.120   7.673   4.357 -0.1608  0.2129 -0.0563
 3533W        W22387   9.762   7.270   0.178 -0.1085  0.1442  0.0415
 3534W        W22388   0.737  11.894   3.879 -0.0240  0.1051  0.2924
 3535W        W22389   6.993   0.447  14.792 -0.1124 -0.3580  0.1900
 3536W        W22390   3.612  13.345  14.397 -0.2251  0.1772  0.0191
 3537W        W22391  11.273   0.359   0.109  0.2697 -0.1179  0.1338
 3538W        W22392  10.554   5.045   1.667  0.1947  0.2938 -0.0736
 3539W        W22393  15.176   1.241  13.837  0.1338  0.0889 -0.3815
 3540W        W22394  19.095  10.076   1.466 -0.0286  0.1668  0.1085
 3541W        W22395   8.755  10.328   4.376  0.1244  0.0655  0.0023
 3542W        W22396   2.072  10.480  11.511 -0.1490  0.1029 -0.0595
 3543W        W22397  15.932  14.492  13.270 -0.0016 -0.0276 -0.1104
 3544W        W22398  11.547   6.067  12.415  0.2028 -0.3239  0.1458
 3545W        W22399   6.748   3.305  13.824 -0.0859 -0.1563  0.1738
 3546W        W22400   1.495   3.221  11.629 -0.1345  0.2694 -0.1159
 3547W        W22401   9.961   2.595  13.843  0.0956  0.1004 -0.1975
 3548W        W22402   6.383   4.924   3.139  0.2110 -0.0399  0.1471
 3549W        W22403  14.827  10.556   0.376  0.0626  0.0522 -0.1786
 3550W        W22404   9.525   2.068   0.742 -0.0812  0.1427 -0.1870
 3551W        W22405   4.467   9.305  12.917  0.2636 -0.1771  0.0431
 3552W        W22406   7.944  13.263  13.873 -0.0286  0.1840  0.0307
 3553W        W22407   2.365  16.413  10.650 -0.0334 -0.3674  0.1790
 3554W        W22408  12.412   8.245   0.619  0.1233 -0.0288 -0.1392
 3555W        W22409   7.979  11.157  11.202  0.0335  0.3441 -0.0903
 3556W        W22410  19.132  12.345  12.656 -0.2266 -0.2138 -0.4503
 3557W        W22411   0.667   1.049   0.764 -0.0879  0.1058  0.0383
 3558W        W22412   7.226   2.226  13.653 -0.1053 -0.1709  0.2541
 3559W        W22413   2.293  13.467   1.251  0.0170  0.5035  0.2735
 3560W        W22414   7.997  17.694   4.066  0.4184 -0.2082  0.1658
 3561W        W22415   2.370   6.599  14.780  0.0564  0.4075  0.0110
 3562W        W22416  15.981   7.812  12.302  0.4834  0.0307 -0.7532
 3563W        W22417   8.682   8.218   4.143  0.2082  0.2100 -0.1093
 3564W        W22418  13.371   3.548  12.808 -0.1617  0.0866  0.1387
 3565W        W22419  11.831  17.231   2.630 -0.2673 -0.0284  0.1398
 3566W        W22420   4.629  17.988  10.180  0.2279  0.3949 -0.2936
 3567W        W22421   7.596  17.584   0.258 -0.2588  0.1175 -0.3762
 3568W        W22422   2.125  16.530  12.592  0.3363 -0.1556 -0.2102
 3569W        W22423  17.860   6.620   9.663 -0.0534  0.0432 -0.1596
 3570W        W22424   2.956  11.778   2.301  0.3376  0.2650 -0.3184
 3571W        W22425   6.842  15.130   0.421  0.3723 -0.1556  0.1554
 3572W        W22426   8.726   6.415   1.114 -0.0672 -0.0863  0.0873
 3573W        W22427   6.975   7.562   0.429  0.1485 -0.1556 -0.1295
 3574W        W22428   9.916  12.311  11.131  0.1518 -0.1453  0.1594
 3575W        W22429  10.829   9.560  13.678 -0.1236 -0.1524  0.0995
 3576W        W22430   0.833   6.552   2.252 -0.0308  0.0042  0.0814
 3577W        W22431   2.295   6.239  13.906 -0.0528 -0.4818  0.0688
 3578W        W22432   5.828   9.372  14.188  0.1042 -0.1683 -0.0014
 3579W        W22433   9.289   4.188  13.537  0.0784  0.1246  0.0441
 3580W        W22434   0.371   0.168  11.480  0.2571  0.1007  0.1244
 3581W        W22435  17.378  12.787   9.512 -0.0052  0.1494 -0.3197
 3582W        W22436  10.135  17.477  12.270 -0.2383 -0.1332  0.0963
 3583W        W22437  16.402   9.559   2.031  0.0605 -0.3181 -0.2442
 3584W        W22438  15.151   4.681   3.591  0.2829 -0.0859  0.3787
 3585W        W22439   7.653  16.886  11.492  0.0047  0.3325 -0.0750
 3586W        W22440  15.536   0.305  11.199 -0.2647 -0.1490 -0.2516
 3587W        W22441   1.417  14.057   0.611  0.2894  0.0735  0.0455
 3588W        W22442  10.559  17.565   2.122 -0.1328 -0.2312  0.0122
 3589W        W22443  15.015  10.017  10.973 -0.1448 -0.2484 -0.1674
 3590W        W22444   9.656  11.042  14.380  0.2392 -0.0223  0.1549
 3591W        W22445   7.818   3.684  12.006  0.4672  0.1660 -0.1671
 3592W        W22446  19.119  15.452   2.234 -0.4254 -0.2229 -0.0338
 3593W        W22447   8.318  16.386   1.320 -0.0153 -0.0373  0.0905
 3594W        W22448  10.568   2.874   3.769  0.0023  0.0587 -0.2055
 3595W        W22449  17.927   3.362   3.835  0.0161  0.2826  0.1156
 3596W        W22450   2.440   8.863   3.500 -0.2041 -0.1487  0.1773
 3597W        W22451   5.700  10.969  14.522 -0.1645  0.5260 -0.1262
 3598W        W22452  17.597  16.190  13.233  0.0875 -0.0919  0.0461
 3599W        W22453   1.024   2.757   2.840 -0.0151  0.1643  0.0440
 3600W        W22454   6.909   7.727   3.612  0.0338 -0.1198 -0.2585
 3601W        W22455   1.343   7.131  13.570  0.0258 -0.1741  0.1899
 3602W        W22456   3.993   7.992  13.147 -0.0745  0.0216  0.1213
 3603W        W22457  10.606  12.443   5.367 -0.1913 -0.2538 -0.2572
 3604W        W22458  15.465  16.982   3.319  0.1068  0.2030  0.0219
 3605W        W22459  13.405   5.867  10.531  0.2559 -0.3606  0.2519
 3606W        W22460   4.006   6.134  14.339 -0.0499  0.3958  0.0212
 3607W        W22461  11.120  13.011   2.099  0.1754 -0.0633 -0.1531
 3608W        W22462  14.570  16.596  12.142 -0.1843  0.0706  0.0624
 3609W        W22463   4.860  13.515  14.473  0.0074 -0.0267 -0.0398
 3610W        W22464  18.333  18.578   2.272  0.1984 -0.0376 -0.3318
 3611W        W22465   5.896  17.798  11.362  0.2346  0.1364 -0.0509
 3612W        W22466  18.717  16.845   2.187  0.3689  0.1554  0.0700
 3613W        W22467  11.766  10.786   0.751 -0.1841  0.1287 -0.0428
 3614W        W22468   6.318   6.937  10.944  0.3103 -0.0161 -0.0109
 3615W        W22469   6.176   3.865  14.323  0.0620 -0.3006  0.2376
 3616W        W22470   5.384   5.447  13.375  0.2296  0.1820 -0.0655
 3617W        W22471   9.827   2.761   1.342 -0.0069 -0.0370 -0.1253
 3618W        W22472   9.178  16.177  11.507 -0.1740 -0.1696  0.0767
 3619W        W22473   3.860  12.272   3.442  0.0776 -0.2290 -0.1887
 3620W        W22474   8.177   7.441  12.962 -0.1918 -0.2086 -0.3663
 3621W        W22475  10.785   8.304  12.367 -0.0715  0.0719  0.1078
 3622W        W22476  13.317  13.598   3.358 -0.0256 -0.0673 -0.4622
 3623W        W22477  12.989   8.006   2.351  0.0238 -0.1357 -0.0496
 3624W        W22478   7.443  12.446   1.167  0.0201  0.1831  0.0977
 3625W        W22479  10.983  13.065  12.439  0.3553  0.1807  0.2618
 3626W        W22480  16.995   3.098  11.403  0.2049  0.2905  0.2510
 3627W        W22481   6.284   1.325  10.446  0.1480  0.1326  0.1656
 3628W        W22482   4.631  19.002   0.952 -0.0883  0.1607  0.0169
 3629W        W22483  16.108   9.603   0.999 -0.0857 -0.2421 -0.0132
 3630W        W22484   6.272   8.512   3.496 -0.1278  0.3041 -0.0377
 3631W        W22485  10.835   0.675  12.595 -0.0531 -0.1837  0.3449
 3632W        W22486   0.403   1.097  11.022 -0.0105  0.0481 -0.0429
 3633W        W22487   9.638  18.597   2.228  0.1294  0.0556  0.0737
 3634W        W22488   8.095  16.592  11.958  0.0815 -0.0571 -0.0457
 3635W        W22489   7.240   1.301  13.758 -0.2626 -0.0957 -0.2779
 3636W        W22490   0.929   1.474   0.992  0.0530  0.2703 -0.0662
 3637W        W22491   0.895  17.045  11.432 -0.4806 -0.0673 -0.1695
 3638W        W22492  13.440   1.014   4.365  0.2482  0.3389  0.1353
 3639W        W22493  17.457   7.755   1.918 -0.0422 -0.1576 -0.1070
 3640W        W22494   0.630  19.032  12.250  0.1690 -0.0173 -0.2093
 3641W        W22495  17.598   1.433   2.701 -0.1697  0.0084  0.2381
 3642W        W22496   1.669  12.247   3.571  0.3461  0.0814  0.0130
 3643W        W22497   4.230   3.160  10.714  0.0100 -0.2136  0.2225
 3644W        W22498   3.247  13.846  13.618 -0.0540 -0.0482  0.0403
 3645W        W22499  14.514   0.291  13.716 -0.0100 -0.4762  0.2260
 3646W        W22500  10.620   5.044  10.340  0.3572  0.0701 -0.0790
 3647W        W22501   6.913   2.333   2.819 -0.1250 -0.0859 -0.1157
 3648W        W22502  17.540   8.443   3.957 -0.0480 -0.1396 -0.1114
 3649W        W22503   9.778   7.144   2.149 -0.0067  0.2550  0.1782
 3650W        W22504  13.207   4.759  10.969  0.0071  0.0421  0.1275
 3651W        W22505   8.814  17.091  10.779  0.0184 -0.4382  0.0039
 3652W        W22506  10.370  15.390  12.082 -0.1036  0.1213 -0.0855
 3653W        W22507   7.868  10.244  13.911 -0.1251  0.1949 -0.0852
 3654W        W22508  18.067   4.264  11.736 -0.2391  0.4048 -0.2652
 3655W        W22509  12.258  15.457   3.068  0.0539 -0.4500  0.0538
 3656W        W22510  16.349  14.201  14.234 -0.1933  0.0105  0.1366
 3657W        W22511  17.735  17.592   0.958 -0.1280  0.2634 -0.0468
 3658W        W22512  12.823  12.797   1.027  0.0630 -0.1230 -0.3003
 3659W        W22513   6.234   5.212  13.212 -0.0294  0.0921 -0.1678
 3660W        W22514  18.792   6.148   4.464 -0.1395  0.2142 -0.1239
 3661W        W22515   8.015   6.992   4.123 -0.0068  0.3362  0.1766
 3662W        W22516  14.818   6.087  10.549  0.0230 -0.1156  0.1826
 3663W        W22517   9.280  12.974   0.457 -0.1748  0.0423 -0.0709
 3664W        W22518   5.725  12.011   2.498 -0.0219  0.1939 -0.3211
 3665W        W22519  11.328  17.392  10.231  0.1861  0.1102  0.0424
 3666W        W22520   1.885  18.806   3.131 -0.2666 -0.3865  0.2125
 3667W        W22521  12.775   8.073   4.823 -0.2766  0.1217  0.2347
 3668W        W22522   3.288  11.208   1.739 -0.1936  0.1093 -0.0243
 3669W        W22523  18.897   9.400  14.719 -0.0260 -0.0041 -0.3624
 3670W        W22524  11.497  17.111   3.085 -0.0617  0.2564 -0.1077
 3671W        W22525  18.350  13.967  10.661 -0.0927 -0.1010 -0.1038
 3672W        W22526   0.959   7.084  11.086 -0.0574 -0.2196 -0.5156
 3673W        W22527   6.584  12.550   3.325 -0.2083 -0.0452  0.0461
 3674W        W22528  10.835  13.250   0.751 -0.2955  0.3224 -0.0001
 3675W        W22529  10.379   5.413  13.471  0.0391  0.1996  0.2640
 3676W        W22530   3.601  10.598   3.261 -0.1202 -0.4067  0.0213
 3677W        W22531   1.340   2.021  12.516 -0.4367  0.1244  0.0830
 3678W        W22532  10.264   0.496  12.175  0.0229 -0.3916  0.1708
 3679W        W22533  10.688   2.487   0.808 -0.0887  0.0954 -0.1296
 3680W        W22534  11.902   4.464   1.774  0.3215 -0.2501  0.0579
 3681W        W22535  11.341  16.666   1.377 -0.0059 -0.2331 -0.1609
 3682W        W22536   9.409   4.979   3.146  0.2301 -0.0775 -0.3247
 3683W        W22537   0.442   6.468  12.251  0.2478 -0.0020  0.2126
 3684W        W22538  14.823   6.796  12.677 -0.1276  0.0915 -0.1886
 3685W        W22539   3.926   3.204  12.732  0.0786  0.0090  0.0953
 3686W        W22540   0.105  15.722  11.875 -0.3163  0.0963  0.1233
 3687W        W22541   6.326  15.886   1.003 -0.1302  0.1975 -0.0829
 3688W        W22542  17.287  11.618   2.761 -0.1369  0.2719 -0.0127
 3689W        W22543   8.455   3.865   0.308  0.0283  0.0382  0.1317
 3690W        W22544  17.558  17.651   1.886  0.3096  0.0131 -0.4322
 3691W        W22545   8.559  15.506  13.457 -0.4109 -0.0193 -0.2200
 3692W        W22546   8.492   5.089   0.898 -0.0910 -0.1517 -0.1827
 3693W        W22547   9.432  12.000   0.904 -0.0272 -0.0669  0.3178
 3694W        W22548  15.337  14.787   1.200 -0.1441 -0.0538  0.1668
 3695W        W22549   0.935  10.408   4.530 -0.0260 -0.1811  0.0192
 3696W        W22550   6.103   9.241   0.919  0.0779  0.0262  0.3412
 3697W        W22551   6.170   7.837   0.783 -0.1493 -0.1285  0.1433
 3698W        W22552   6.187  11.078   1.419  0.1414 -0.1697  0.1562
 3699W        W22553  14.912   2.436   1.660  0.1592  0.0148 -0.1181
 3700W        W22554  13.125   4.325   3.882  0.1763 -0.2141 -0.0172
 3701W        W22555   2.267  11.990  11.460  0.1365  0.2182 -0.3200
 3702W        W22556  10.190   2.617   0.008  0.1928  0.2578  0.4719
 3703W        W22557  17.525  17.497   4.140  0.1171 -0.0472 -0.0306
 3704W        W22558   1.234  15.992   1.296  0.1897  0.1460 -0.3876
 3705W        W22559   3.534   1.005   1.174  0.1284 -0.2612 -0.3966
 3706W        W22560  11.169   8.843   3.321  0.2852  0.0209  0.1187
 3707W        W22561   6.396  16.581  11.296  0.1152  0.0805 -0.0785
 3708W        W22562   9.304  14.841  12.445  0.2675 -0.0961  0.5210
 3709W        W22563  13.844   8.259   0.224  0.1252 -0.1221 -0.0967
 3710W        W22564  18.570   7.357   1.354 -0.0875  0.1104  0.0923
 3711W        W22565   8.362   3.445  10.992 -0.2362  0.1980 -0.3530
 3712W        W22566  18.445  19.026  14.439 -0.2743  0.0871  0.2921
 3713W        W22567   8.190  11.442  11.997  0.2321 -0.0118 -0.0597
 3714W        W22568  17.068   9.017  11.148  0.4889 -0.0996  0.0557
 3715W        W22569   7.668   5.712   1.261 -0.2773 -0.1417 -0.4178
 3716W        W22570  17.635  16.772   3.602  0.2256  0.0968  0.3654
 3717W        W22571  17.526   1.893   0.103  0.2859  0.2317  0.1056
 3718W        W22572  18.467   1.840  11.668 -0.1262  0.2003  0.1377
 3719W        W22573   4.246   2.812   3.247 -0.0624  0.0339 -0.0725
 3720W        W22574   1.142  10.466   2.696  0.3110 -0.2773  0.0733
 3721W        W22575  14.345  16.799   3.215 -0.1347 -0.0057  0.0491
 3722W        W22576  11.169  10.570   3.573  0.1067 -0.1393  0.0963
 3723W        W22577  16.419   9.674   2.480  0.1258  0.0169  0.0213
 3724W        W22578  16.423   4.779   2.684 -0.2346  0.1948 -0.3897
 3725W        W22579   5.246   1.038   1.094  0.2601  0.1892  0.2684
 3726W        W22580   2.183   1.026  14.714 -0.1307  0.1088 -0.3938
 3727W        W22581   9.077  12.655  14.254  0.2443  0.2718  0.0799
 3728W        W22582  10.610   1.484  12.810  0.0424  0.0545 -0.0134
 3729W        W22583  12.583  15.439  10.798 -0.0120 -0.0435 -0.0532
 3730W        W22584   2.352   4.828   2.743  0.0355 -0.2500 -0.0676
 3731W        W22585   4.093  10.547   1.074 -0.0041  0.0763 -0.1336
 3732W        W22586   4.880   4.916  14.657  0.0074  0.0871 -0.2765
 3733W        W22587   6.527   5.014   0.144 -0.0392  0.1545 -0.0140
 3734W        W22588   5.013   9.812  12.644  0.2283  0.0775 -0.2281
 3735W        W22589  15.339  12.655   1.410  0.2275  0.0573  0.0287
 3736W        W22590  11.927  17.950   2.064 -0.0505 -0.1603  0.3424
 3737W        W22591  17.087   4.570  12.080  0.6580 -0.0144  0.1039
 3738W        W22592   3.056  17.930  13.417  0.0426  0.1330 -0.0097
 3739W        W22593  12.411   2.362   4.440  0.1518 -0.1093  0.0841
 3740W        W22594  15.616   2.067  13.821 -0.0626 -0.2030 -0.0191
 3741W        W22595   5.779   7.137  10.562  0.2921 -0.2218  0.0352
 3742W        W22596   8.120   3.974  14.643 -0.1933  0.0698 -0.1361
 3743W        W22597   3.737  12.166   2.708 -0.2399  0.1235 -0.0076
 3744W        W22598  11.198   7.496  10.827 -0.2170 -0.1478  0.0990
 3745W        W22599   1.111   4.608  12.043 -0.0197 -0.1948 -0.2611
 3746W        W22600  10.336   9.049  10.078 -0.1831  0.1017 -0.1358
 3747W        W22601  14.582   3.515  11.369 -0.0384  0.0878 -0.1197
 3748W        W22602   9.335   6.501   4.005  0.1481 -0.3352  0.0817
 3749W        W22603  14.899  12.312  13.264  0.2854  0.1366  0.1128
 3750W        W22604   3.439  13.465  12.831 -0.1833  0.2964 -0.1333
 3751W        W22605  18.115  18.982  13.542 -0.0005 -0.0991  0.0353
 3752W        W22606   6.713   6.111  11.984  0.0014  0.1716 -0.3031
 3753W        W22607   1.984  10.164  11.901 -0.1871 -0.0155  0.0111
 3754W        W22608   6.245  14.604   3.513 -0.3101  0.1790 -0.3151
 3755W        W22609  10.176  15.451  14.554  0.0996 -0.0818 -0.0156
 3756W        W22610  14.652  14.005   0.388 -0.1298  0.0343 -0.0000
 3757W        W22611   1.437  10.541  12.844 -0.2545 -0.1325  0.2327
 3758W        W22612   6.496  16.609  13.738  0.0789 -0.1428 -0.1688
 3759W        W22613   7.433  10.496  13.087 -0.1017 -0.0126 -0.0118
 3760W        W22614   7.731  17.542   3.289 -0.1907  0.0028 -0.2803
 3761W        W22615  10.530  13.205  12.646 -0.1757 -0.1810 -0.0325
 3762W        W22616  10.456   1.653  14.675 -0.1254 -0.0542 -0.1873
 3763W        W22617  15.483   9.745  14.097  0.0159 -0.4552  0.0509
 3764W        W22618  11.114  16.218   5.375 -0.1018  0.0586 -0.1225
 3765W        W22619   3.808   9.634   3.541 -0.1955  0.0989  0.1813
 3766W        W22620   9.226   5.876  12.021  0.0190 -0.0205 -0.1560
 3767W        W22621   2.887   9.461  13.699  0.0565 -0.2265  0.0199
 3768W        W22622  17.176  14.057   2.018 -0.0771  0.3636 -0.0471
 3769W        W22623  18.482  10.904   1.023  0.2506 -0.0064 -0.1456
 3770W        W22624   0.803   5.585   3.349 -0.0895  0.1925 -0.2388
 3771W        W22625   9.262  12.247  12.010  0.2292 -0.1961  0.3276
 3772W        W22626   2.800  10.971   0.753 -0.0998  0.0947 -0.1061
 3773W        W22627  17.110  12.685   2.431  0.0312 -0.1643 -0.1188
 3774W        W22628  17.256  14.920   0.183  0.2265  0.0400 -0.0614
 3775W        W22629  13.723   7.054   0.167 -0.1914 -0.1170 -0.0227
 3776W        W22630  14.547  11.165   4.872 -0.0553  0.2807  0.2466
 3777W        W22631   4.701  15.744   1.917 -0.1962  0.2364  0.2196
 3778W        W22632  16.472   9.223   1.091  0.0083 -0.0466 -0.1699
 3779W        W22633   7.827   9.656   2.801 -0.1400 -0.0230 -0.1845
 3780W        W22634  13.766  17.956   2.006 -0.1971  0.0321  0.0101
 3781W        W22635   5.578  11.854   0.083 -0.0538 -0.0766 -0.2293
 3782W        W22636  17.778   4.029  11.419 -0.0897 -0.1420  0.0781
 3783W        W22637   0.573   4.751   2.954 -0.1445 -0.1589 -0.0026
 3784W        W22638   0.191   0.594   1.522 -0.1290  0.1705  0.1657
 3785W        W22639  13.763   6.599   2.473  0.2067  0.0217  0.0921
 3786W        W22640   9.829  18.103   0.768  0.0840  0.1039  0.0533
 3787W        W22641  13.281  14.819   3.252 -0.2275  0.2853  0.0783
 3788W        W22642   5.815  17.846   9.804  0.1291 -0.0569  0.3227
 3789W        W22643   6.549   4.101  10.748 -0.0920  0.2839 -0.1237
 3790W        W22644  13.264   0.274  12.584 -0.0573  0.0047  0.1216
 3791W        W22645   0.575   4.810   3.570 -0.0714 -0.3404  0.1255
 3792W        W22646  12.651  11.913  13.556 -0.2041 -0.0197 -0.3100
 3793W        W22647   5.824   6.682   3.139 -0.0831 -0.0832  0.1106
 3794W        W22648  17.733  11.724   0.683  0.1617 -0.1166 -0.0064
 3795W        W22649  13.979   6.270  10.969 -0.0981  0.1413 -0.1275
 3796W        W22650   8.380   2.251  10.939 -0.2485 -0.1123  0.1850
 3797W        W22651   3.585  18.856  14.652 -0.0769  0.2676 -0.2353
 3798W        W22652  17.151   3.370   1.587 -0.0729 -0.0888 -0.1613
 3799W        W22653   1.885   5.831   2.438  0.0507 -0.0675 -0.0273
 3800W        W22654  10.557   9.834   0.531  0.1018 -0.1812  0.0119
 3801W        W22655  15.467   8.933   0.252  0.1277  0.2497  0.1519
 3802W        W22656  10.322   5.147  11.302 -0.1318 -0.1812  0.2214
 3803W        W22657   4.219   0.824   3.447 -0.0302  0.0195  0.3876
 3804W        W22658  18.994  16.433  13.301  0.0020 -0.1443 -0.0093
 3805W        W22659  10.792   0.595   2.709 -0.0473 -0.0761  0.0793
 3806W        W22660  13.287   1.340  10.848  0.0886 -0.0051  0.0909
 3807W        W22661  17.833   3.136   3.422  0.0390 -0.0493  0.3147
 3808W        W22662   4.566   9.149   2.667 -0.3663  0.0394 -0.3372
 3809W        W22663   6.986  12.590   0.375  0.2036 -0.1423 -0.3955
 3810W        W22664  12.381   1.897   4.135  0.0640 -0.2174  0.0364
 3811W        W22665  11.705   8.271  13.965 -0.0247 -0.2466  0.2083
 3812W        W22666   0.750   0.523   0.641  0.0371  0.2338  0.2811
 3813W        W22667   1.136   5.416   0.402  0.1135 -0.0688 -0.0249
 3814W        W22668   0.163  15.435   4.136  0.2666  0.0884 -0.1535
 3815W        W22669   7.952   3.092  10.770  0.0193 -0.2475  0.0562
 3816W        W22670   2.355  14.192  13.698  0.2224 -0.1728  0.2592
 3817W        W22671   9.404   5.915  14.609  0.0584 -0.2861  0.2137
 3818W        W22672   1.003   3.144   3.105  0.3423  0.0439  0.0073
 3819W        W22673   4.476  17.461   3.269 -0.0799  0.1110 -0.2734
 3820W        W22674   0.721   0.959   1.246  0.3291 -0.1671 -0.1353
 3821W        W22675  11.316  15.876  13.243 -0.0917 -0.0217 -0.0806
 3822W        W22676  17.104  16.841  12.857 -0.1646  0.0728 -0.1195
 3823W        W22677  13.611   5.070   0.361  0.0638 -0.1455 -0.0850
 3824W        W22678   4.610  11.861  11.849  0.0060  0.0953 -0.0131
 3825W        W22679  11.994  10.800  11.066  0.1846  0.4090 -0.1606
 3826W        W22680   3.625   2.935   3.859  0.2846  0.2104 -0.2162
 3827W        W22681  13.555   2.157   0.453 -0.2303  0.0077  0.2585
 3828W        W22682  14.823   3.796   3.003  0.2489 -0.4255  0.1109
 3829W        W22683  17.989  14.327   2.724 -0.1649 -0.2626  0.1771
 3830W        W22684   1.703   8.231  12.499 -0.1001 -0.3200 -0.1472
 3831W        W22685  10.174  13.965   3.416 -0.1326 -0.1403  0.2512
 3832W        W22686  16.728  13.366  14.697  0.4278  0.0354  0.3484
 3833W        W22687  15.829   2.166  10.550 -0.2313 -0.0792 -0.2211
 3834W        W22688   1.820  15.943   3.072  0.1012  0.3989 -0.1214
 3835W        W22689   9.624   7.293  14.326  0.0813  0.1197  0.0247
 3836W        W22690  16.160   6.931   1.828  0.0717  0.4377 -0.0694
 3837W        W22691  14.323   0.157   2.650 -0.2216  0.1113 -0.1201
 3838W        W22692  14.409   9.152  11.276  0.0073  0.0325 -0.2901
 3839W        W22693   0.309  14.563   0.005 -0.0080  0.2528 -0.2623
 3840W        W22694   4.865  16.048   4.291  0.4204  0.2706  0.0400
 3841W        W22695   0.815  18.314   2.143 -0.0968  0.3313 -0.0973
 3842W        W22696  10.591   2.910   3.222 -0.0867 -0.1233 -0.1036
 3843W        W22697   5.246   0.895   3.635  0.1120  0.1219 -0.0288
 3844W        W22698  16.325   3.197   1.655  0.1724 -0.0558  0.1089
 3845W        W22699  16.420   1.684   3.514 -0.0687 -0.0154 -0.0065
 3846W        W22700   9.583  10.643   1.647  0.1064 -0.1628 -0.0346
 3847W        W22701  13.012  14.479   3.795  0.1673 -0.1172 -0.0138
 3848W        W22702   7.151   4.805   0.301 -0.0788  0.0645 -0.1815
 3849W        W22703   1.014   1.018   3.495  0.1671 -0.1580  0.2246
 3850W        W22704  13.073  18.386  12.761 -0.1073  0.0829 -0.1926
 3851W        W22705   2.480   2.332   2.220 -0.5736 -0.0235 -0.0558
 3852W        W22706   5.272   2.726   0.635  0.1465 -0.2237  0.0758
 3853W        W22707  14.781   7.951   2.926  0.4001 -0.0621  0.0608
 3854W        W22708  13.280  15.891   3.905  0.2786 -0.0745 -0.4020
 3855W        W22709  17.307   8.893  13.598  0.0013  0.2493 -0.0637
 3856W        W22710  17.971   6.390  11.452  0.0729  0.1120  0.1086
 3857W        W22711  18.752  17.007  14.613  0.1455 -0.1923  0.1963
 3858W        W22712  17.176   5.228  11.897 -0.2031  0.0033  0.3612
 3859W        W22713   9.835  17.069   1.171 -0.5293  0.0153 -0.0320
 3860W        W22714   4.001   1.973   4.099  0.2164 -0.1697 -0.4721
 3861W        W22715   8.049   8.361   0.458 -0.0754 -0.2159  0.0913
 3862W        W22716   4.105  10.138  13.535  0.3226  0.2536 -0.0922
 3863W        W22717   0.086  14.126  11.253 -0.1944 -0.1735  0.2266
 3864W        W22718   8.845  19.142   2.361 -0.2267 -0.0504 -0.1287
 3865W        W22719  14.950   4.521   4.677  0.0123 -0.0921 -0.3662
 3866W        W22720  12.969  10.949  13.099  0.1392 -0.0968  0.2037
 3867W        W22721   0.339  13.770  11.974 -0.1718  0.0337 -0.4462
 3868W        W22722  15.768   4.803  14.234 -0.0630  0.0453 -0.2675
 3869W        W22723   2.348   3.591  10.129  0.4138 -0.1057  0.2928
 3870W        W22724   7.034  14.745   5.314  0.0034  0.0113  0.1816
 3871W        W22725  13.084  13.387  12.495  0.2865 -0.1304 -0.2868
 3872W        W22726   7.083   7.047   2.859  0.3262  0.0081  0.1429
 3873W        W22727   7.369   0.547  13.120 -0.0374  0.0930  0.0467
 3874W        W22728   2.963  13.166   3.572 -0.0904 -0.3141 -0.2056
 3875W        W22729   9.208  11.365  11.809 -0.5658  0.1869  0.0137
 3876W        W22730  12.284   2.153  13.104  0.2563 -0.3213 -0.1747
 3877W        W22731   2.027   0.858  12.932 -0.2905  0.0476  0.0609
 3878W        W22732  13.590   4.821  14.025 -0.3224  0.0516  0.1528
 3879W        W22733  12.439  11.107  11.742  0.1201 -0.0363 -0.1042
 3880W        W22734   6.902  10.513  11.154  0.0105 -0.0893  0.0903
 3881W        W22735  17.467   7.448  11.970  0.3699 -0.1267  0.0871
 3882W        W22736   2.284  17.174  11.835 -0.2390 -0.1001  0.1589
 3883W        W22737  16.798  10.413   4.284 -0.1855  0.1239 -0.1199
 3884W        W22738   5.902  10.431  11.136  0.0852 -0.0588  0.0300
 3885W        W22739   1.531   0.252   2.546 -0.0625 -0.0102 -0.3510
 3886W        W22740   5.866   1.225  13.314 -0.2465 -0.1093 -0.0168
 3887W        W22741   5.628   0.071  11.978 -0.3728  0.3059 -0.0769
 3888W        W22742   9.327  17.624  12.262  0.3598  0.0307 -0.1528
 3889W        W22743  18.134  14.394  12.829  0.0242  0.0368  0.1945
 3890W        W22744  12.654   4.552   3.691  0.2637  0.2096 -0.0572
 3891W        W22745   9.294  13.033   4.310 -0.1291 -0.1611  0.0815
 3892W        W22746   8.033   2.688  11.040  0.2938  0.1065  0.1706
 3893W        W22747  18.698  10.308   1.843 -0.0848  0.1059 -0.3951
 3894W        W22748   1.598  12.606  10.911 -0.1169 -0.0511  0.3090
 3895W        W22749   9.908   2.301  12.795 -0.0961 -0.0063 -0.0336
 3896W        W22750   4.628  11.930   4.743 -0.0434 -0.4107  0.2908
 3897W        W22751  16.538   9.247   4.061  0.1482 -0.0233  0.1189
 3898W        W22752   0.002   2.923  10.583  0.3056 -0.0335  0.1253
 3899W        W22753  13.216  11.901  11.608  0.3530  0.1651 -0.2671
 3900W        W22754   4.373   6.502   1.994 -0.0410 -0.2243 -0.1085
 3901W        W22755   9.026  15.767  14.688 -0.0663  0.1025 -0.1571
 3902W        W22756   6.060  16.237   2.661 -0.1670  0.0553 -0.0197
 3903W        W22757  16.239   9.275  13.872 -0.2927 -0.0388 -0.0671
 3904W        W22758  12.615  15.099  12.881  0.1072 -0.2914 -0.3304
 3905W        W22759  15.061   2.222   0.553  0.0731 -0.1726  0.0224
 3906W        W22760  11.785  16.252   4.281  0.0093 -0.2558 -0.0643
 3907W        W22761  13.346   2.525  11.423  0.3324 -0.1938  0.2943
 3908W        W22762  16.302   7.437  11.416  0.2873 -0.2534 -0.0822
 3909W        W22763  18.667   7.336  13.164  0.1085 -0.2960  0.1085
 3910W        W22764  18.338   8.411   1.839  0.1030  0.1121 -0.1379
 3911W        W22765   2.714   1.376   0.595 -0.1140  0.3410  0.3179
 3912W        W22766   9.518  13.968   3.773  0.0539  0.0708  0.0397
 3913W        W22767   3.807   1.948  10.123 -0.0546  0.0794  0.0937
 3914W        W22768  15.548  18.967   1.701 -0.1412 -0.2818 -0.2369
 3915W        W22769   8.742   0.411  11.271 -0.1868 -0.1568 -0.1693
 3916W        W22770   7.592   5.333   2.524  0.1376  0.1870  0.0959
 3917W        W22771  11.090   1.502   3.871 -0.1596  0.2313  0.3065
 3918W        W22772  17.029   6.800   0.718 -0.0256 -0.3496  0.1426
 3919W        W22773   0.007   1.008   3.649  0.0659 -0.4336 -0.3480
 3920W        W22774   8.522  13.081   2.268 -0.4026 -0.0565 -0.1480
 3921W        W22775   0.819   2.954   0.626 -0.0231 -0.2420  0.0127
 3922W        W22776  11.766   9.601   3.768  0.0865  0.2034  0.1494
 3923W        W22777   3.063   4.208  13.494  0.0796  0.0466  0.0218
 3924W        W22778  12.834  13.536   1.449  0.0729  0.0472 -0.0621
 3925W        W22779   8.878  13.290   9.739  0.2932  0.3118  0.0249
 3926W        W22780   5.644  13.242  12.838  0.2184 -0.0131  0.0054
 3927W        W22781  15.658  15.706  11.876 -0.0622  0.1196 -0.0492
 3928W        W22782  17.191   6.957   3.042 -0.3426  0.2138  0.1625
 3929W        W22783   9.170  17.494  11.581  0.1306  0.2692 -0.1629
 3930W        W22784   3.965   2.324   1.311 -0.1454 -0.3844 -0.3150
 3931W        W22785  16.253  17.910  14.376 -0.1323 -0.1343 -0.0118
 3932W        W22786  12.776  12.906   4.391 -0.0691  0.0496  0.0114
 3933W        W22787   9.880  10.883   3.016 -0.0491 -0.3071 -0.3016
 3934W        W22788   6.831  16.303  13.677  0.0701  0.0975 -0.1792
 3935W        W22789  13.168  13.550  10.302  0.0198  0.1426 -0.0839
 3936W        W22790   9.883   7.467   2.627  0.0273  0.3225  0.1696
 3937W        W22791   0.299   0.258   3.355  0.0376 -0.1413 -0.0304
 3938W        W22792   6.306  10.657   1.162  0.0115 -0.0061  0.2303
 3939W        W22793  17.965   7.574   9.890 -0.0636  0.0927 -0.0845
 3940W        W22794   4.690  14.769   3.434  0.0316  0.1653  0.0272
 3941W        W22795  17.406   7.760   0.684  0.0167 -0.1267  0.1409
 3942W        W22796   8.747  17.271   2.427 -0.3290  0.2059 -0.1823
 3943W        W22797  16.243  15.609   0.320  0.3860  0.1596 -0.0690
 3944W        W22798  11.140   3.683  12.219 -0.3177 -0.0275 -0.0675
 3945W        W22799   9.707  10.366   4.189  0.0580 -0.0567  0.1262
 3946W        W22800  12.350   4.280   3.341 -0.0805 -0.2990 -0.3701
 3947W        W22801  10.592   5.618   2.896 -0.0040 -0.3492  0.0333
 3948W        W22802  11.312  14.285  10.898 -0.0078 -0.1832 -0.2350
 3949W        W22803  13.579   0.504   2.169 -0.1896 -0.1324  0.0493
 3950W        W22804  18.607   9.174   2.286 -0.0890  0.1704 -0.1206
 3951W        W22805  14.993   1.252  11.661  0.3762  0.0183 -0.1807
 3952W        W22806   3.993   6.475  10.662 -0.0553 -0.1105  0.1595
 3953W        W22807  10.497  10.167   0.179 -0.1607 -0.3002  0.0566
 3954W        W22808   2.254   0.211  12.421 -0.0542 -0.0600  0.1652
 3955W        W22809  15.886   1.658   2.379  0.0917  0.0487  0.0865
 3956W        W22810   2.970  11.413   3.793  0.1730  0.1193  0.1686
 3957W        W22811  15.128   5.074  12.949 -0.0191  0.1943  0.0347
 3958W        W22812   6.533   8.518   3.933  0.2052 -0.0711 -0.1084
 3959W        W22813   8.415   8.685   3.422  0.3590  0.2155  0.1772
 3960W        W22814  11.011  13.918  11.988 -0.0569  0.2435  0.2108
 3961W        W22815  13.943   5.682   1.955  0.1418 -0.3711 -0.1072
 3962W        W22816  18.556   5.202   2.748  0.2779 -0.3013 -0.1488
 3963W        W22817  13.559  18.450  12.044  0.1583  0.2444 -0.2625
 3964W        W22818  13.446  11.436   2.894 -0.1035 -0.1892  0.4273
 3965W        W22819   1.954  18.224   2.001 -0.3785  0.0099  0.2258
 3966W        W22820  16.987   2.848   3.881  0.2339 -0.3690 -0.2898
 3967W        W22821   5.628  13.836   2.115  0.1911  0.2018 -0.4386
 3968W        W22822  12.592  18.426   4.599 -0.2822  0.0276  0.1319
 3969W        W22823  18.282   8.091  11.087  0.0075 -0.2560  0.0144
 3970W        W22824   6.306   5.793   4.515  0.0889  0.6773 -0.0931
 3971W        W22825  10.850   6.834  11.484 -0.1645  0.4567  0.0405
 3972W        W22826  17.041  17.561   3.855 -0.0899  0.0317 -0.2519
 3973W        W22827  12.598   4.461  12.938 -0.0230  0.3110  0.1934
 3974W        W22828   9.357  18.126  12.208 -0.3320  0.1132 -0.0725
 3975W        W22829   9.859   0.849   0.716 -0.2349  0.0560 -0.2296
 3976W        W22830  15.488  12.576   3.849 -0.0834  0.1691 -0.3020
 3977W        W22831  17.444   8.307  11.561  0.1362 -0.2633  0.1331
 3978W        W22832  10.495   2.003   3.360 -0.2963 -0.2227  0.1198
 3979W        W22833  18.908  17.144  11.259 -0.1864 -0.0117 -0.0893
 3980W        W22834   3.471  14.257   1.634 -0.4395 -0.0299 -0.2405
 3981W        W22835  15.629  11.930   1.304 -0.0335  0.0659 -0.1746
 3982W        W22836  10.106  14.180  10.893  0.0768 -0.0048  0.1784
 3983W        W22837  17.772   1.251  14.543  0.2528  0.3355 -0.1065
 3984W        W22838   9.366  15.254  13.903  0.0904 -0.2156 -0.0624
 3985W        W22839  17.065  17.232  14.654 -0.2604 -0.0724 -0.4137
 3986W        W22840  14.445   5.219  14.643 -0.1217 -0.0252 -0.2940
 3987W        W22841   8.069  12.411  12.438 -0.1729  0.0955  0.2469
 3988W        W22842   0.927   5.852  13.485  0.0395 -0.2155  0.2063
 3989W        W22843  16.303  17.303  11.792  0.0497  0.3504 -0.5354
 3990W        W22844  18.933  16.906  13.645 -0.0523 -0.1060 -0.3365
 3991W        W22845  14.743   2.905   4.123 -0.1616  0.0353 -0.1021
 3992W        W22846  19.084  15.783   0.376 -0.1855 -0.0179 -0.1608
 3993W        W22847  13.437  17.794  12.264 -0.0824 -0.0269 -0.1996
 3994W        W22848   5.243   6.876  14.470  0.2320  0.0416 -0.0009
 3995W        W22849   2.998  13.185  14.282 -0.2178  0.1445  0.4140
 3996W        W22850   7.575   7.372   4.117  0.1830  0.1593  0.1028
 3997W        W22851  13.944   4.955  14.386  0.0858  0.1027  0.2104
 3998W        W22852  10.380   1.666   1.899  0.0590  0.2411 -0.2514
 3999W        W22853   3.554  15.366  13.881  0.1467  0.0036  0.0245
 4000W        W22854  18.866  16.244  11.596 -0.1416  0.2408 -0.2611
 4001W        W22855   9.102   2.527  13.286  0.2933 -0.0784  0.0844
 4002W        W22856   3.356   4.454   0.832 -0.4817 -0.2330  0.2415
 4003W        W22857   6.828   9.755   3.018 -0.0327  0.0215 -0.0010
 4004W        W22858  18.748   7.467   4.691  0.2871 -0.0327  0.1277
 4005W        W22859  16.482  18.320   2.702 -0.0712 -0.2880 -0.1273
 4006W        W22860  17.349   3.411   4.665 -0.1016  0.2070  0.1022
 4007W        W22861  17.884   7.612   2.835  0.0856 -0.2618 -0.1418
 4008W        W22862   8.648   9.920   0.130 -0.0456  0.0585 -0.1154
 4009W        W22863   7.176  18.582  11.774  0.3303  0.1159 -0.0035
 4010W        W22864   3.813  16.617   2.322 -0.0884 -0.0107 -0.2263
 4011W        W22865  10.229   7.701  10.910  0.2566 -0.2075 -0.3746
 4012W        W22866   7.884   0.621  12.286 -0.0971  0.1996 -0.0367
 4013W        W22867   6.547   5.673  13.262 -0.0268 -0.2523 -0.0012
 4014W        W22868  16.160   8.243   3.976 -0.1809 -0.0227 -0.2816
 4015W        W22869   9.145   9.440  11.457  0.5411 -0.2744  0.0728
 4016W        W22870   0.289   4.168  10.974 -0.0625  0.0873 -0.2307
 4017W        W22871   7.503  15.588  12.328 -0.0892  0.2215  0.2770
 4018W        W22872  14.482  18.180  13.526  0.1907  0.3293  0.0644
 4019W        W22873   5.220   9.265   3.457 -0.2324 -0.1038 -0.0406
 4020W        W22874  18.708   5.847   2.119  0.0579  0.3211  0.0491
 4021W        W22875  13.133   1.019  11.912 -0.0770  0.1422  0.4323
 4022W        W22876   6.888  11.939   4.308  0.0396 -0.1052  0.0615
 4023W        W22877  14.451   7.923  10.934  0.3572 -0.2733 -0.2527
 4024W        W22878  10.220  15.960   0.504 -0.0037  0.1222  0.1655
 4025W        W22879  16.583   5.841   1.706 -0.3168 -0.3926 -0.1599
 4026W        W22880   1.136   6.649  11.240  0.1537  0.0936 -0.1284
 4027W        W22881  13.878  18.906   1.504 -0.0589 -0.3518  0.1122
 4028W        W22882   7.781  11.567   5.243 -0.0269 -0.0840  0.2598
 4029W        W22883  13.846   4.877   1.116  0.3153 -0.0973  0.1895
 4030W        W22884   6.901   3.761  12.070 -0.0594  0.1679  0.3362
 4031W        W22885  15.476   7.808  12.337 -0.0165  0.0346  0.0990
 4032W        W22886  13.196   9.588   0.486 -0.2212 -0.3847  0.0155
 4033W        W22887  18.517   6.504  14.653  0.1708 -0.0024 -0.0022
 4034W        W22888   5.282  10.404  13.796  0.1411  0.0633 -0.3436
 4035W        W22889   1.799   1.434   2.461  0.0827  0.2138  0.6412
 4036W        W22890  13.913   7.815  12.685 -0.2627  0.0802 -0.0670
 4037W        W22891  17.048  16.752   1.717 -0.1932  0.1048 -0.1553
 4038W        W22892  11.448   9.982  14.551  0.0577 -0.0117 -0.0163
 4039W        W22893   2.714  13.007  13.100 -0.1521 -0.2098  0.0832
 4040W        W22894  17.929  16.442   1.905  0.1032  0.1223  0.1315
 4041W        W22895   7.332   7.617   2.282  0.1238 -0.1742 -0.0110
 4042W        W22896  18.217   4.648  13.898  0.2190 -0.0740  0.3396
 4043W        W22897   2.251   5.839  12.290  0.0523  0.1797  0.0497
 4044W        W22898  10.474   3.246  13.656  0.0522 -0.0855 -0.1728
 4045W        W22899  13.265  17.575   2.109 -0.1550 -0.2378  0.3196
 4046W        W22900  12.726  11.833  14.055  0.1929 -0.2155 -0.0674
 4047W        W22901  12.628   9.225  11.492 -0.0617 -0.1947  0.1176
 4048W        W22902   8.782   7.374  13.072  0.1462 -0.1585 -0.0766
 4049W        W22903   8.889   2.674   1.672  0.4078 -0.0307  0.0348
 4050W        W22904   3.634   6.871  10.536 -0.0162 -0.0323  0.0081
 4051W        W22905  16.450   0.062  14.544  0.0099 -0.0461  0.1390
 4052W        W22906   8.278   7.488  10.625 -0.3276 -0.0901  0.2007
 4053W        W22907   1.583  17.139   1.826  0.1650 -0.1451  0.1130
 4054W        W22908   1.036  13.393   2.372  0.1743 -0.1179 -0.2493
 4055W        W22909   6.062  12.174   4.314 -0.1186 -0.2594  0.0850
 4056W        W22910  15.788  13.379   1.073 -0.2600  0.0245  0.0468
 4057W        W22911  14.132  16.187   1.300  0.1278  0.2597  0.1193
 4058W        W22912  13.404   3.972  10.367 -0.0073 -0.1846  0.2564
 4059W        W22913   4.459   0.363   3.601  0.1112  0.0793 -0.4063
 4060W        W22914   0.252   6.956  11.573  0.2851  0.1612 -0.0627
 4061W        W22915   6.110   3.967  13.803 -0.1029 -0.1929  0.1442
 4062W        W22916  15.276  13.576  14.245  0.2313  0.3022 -0.1740
 4063W        W22917   5.409   5.421   0.911  0.0977 -0.2334  0.0225
 4064W        W22918  11.345   9.113  12.308 -0.1005  0.0695  0.2032
 4065W        W22919   4.126  10.386  13.029  0.0810 -0.3462  0.0422
 4066W        W22920  11.059   4.978   2.998  0.5520 -0.2220 -0.0397
 4067W        W22921  10.056  12.492   2.788  0.3153  0.2420  0.2180
 4068W        W22922  16.114  12.486  14.009 -0.2227  0.2958  0.3422
 4069W        W22923  13.891  11.493   1.955 -0.1649  0.1738  0.0695
 4070W        W22924  13.311   1.603  14.654  0.0467  0.0796  0.0657
 4071W        W22925  10.220  11.692  14.402  0.4035  0.0776  0.0487
 4072W        W22926   6.816   1.280   2.907 -0.0573 -0.1915  0.0358
 4073W        W22927  17.496   9.090  11.364  0.0476 -0.1593  0.2681
 4074W        W22928   4.581  13.333   1.663 -0.0992 -0.2116  0.1225
 4075W        W22929  17.956  15.125  12.169  0.2257  0.3132 -0.0433
 4076W        W22930  15.667   0.648  12.042  0.2090  0.0854  0.0580
 4077W        W22931   0.508  17.565  11.586 -0.1299  0.1935  0.0956
 4078W        W22932   1.318   3.542   2.881  0.1796 -0.5500  0.0481
 4079W        W22933   6.681  11.523  14.566 -0.2314  0.3068  0.1550
 4080W        W22934  16.029   2.925   2.041 -0.0430  0.1469  0.1894
 4081W        W22935   0.960   5.443   4.259  0.0700 -0.1433 -0.1518
 4082W        W22936  14.840  16.243  10.588  0.0911  0.0790  0.1304
 4083W        W22937  17.070  10.942  11.451  0.1378  0.0189  0.0234
 4084W        W22938   7.830  12.899  13.532 -0.0697  0.1790  0.0680
 4085W        W22939   1.584   4.595   1.038 -0.0280  0.2476  0.1832
 4086W        W22940  10.013   6.835  13.183  0.2496 -0.2006 -0.0339
 4087W        W22941   6.122   7.370  14.462  0.3640 -0.1366 -0.1720
 4088W        W22942  15.225  14.107  13.502 -0.0699  0.3233 -0.1258
 4089W        W22943  13.939  10.077  10.936 -0.1843  0.0111  0.0534
 4090W        W22944  13.376  11.683  12.039 -0.1058  0.0545  0.2676
 4091W        W22945   4.272   7.535  12.218  0.0330 -0.1711  0.0578
 4092W        W22946  14.713  10.877   3.969 -0.0416 -0.1403 -0.3430
 4093W        W22947  15.897   0.970   3.545 -0.1192  0.2798  0.1364
 4094W        W22948  13.968   2.322  13.112  0.1172 -0.2723 -0.3650
 4095W        W22949   8.500  13.074   2.838 -0.0473 -0.2363  0.1756
 4096W        W22950   5.352  17.660   1.756  0.1600 -0.2142  0.1326
 4097W        W22951  17.284   5.950   1.085  0.0501 -0.0053 -0.2577
 4098W        W22952  11.361   8.720   1.533 -0.0880 -0.2194  0.2437
 4099W        W22953  11.693  16.419  12.536  0.0996  0.0247 -0.2201
 4100W        W22954   6.749  11.221  14.163  0.0532  0.0384  0.0720
 4101W        W22955  19.149   9.545   0.972 -0.0382 -0.3982  0.2412
 4102W        W22956  14.972   1.929   2.287 -0.3730 -0.1554 -0.2359
 4103W        W22957  13.914   6.699  13.899  0.0000  0.2141  0.0691
 4104W        W22958   5.388  13.079  10.332  0.5467 -0.1322 -0.0336
 4105W        W22959  18.185  16.046   0.570  0.1952 -0.0369  0.3736
 4106W        W22960   2.435  10.542  13.443 -0.2944  0.0572  0.2377
 4107W        W22961  11.878  11.203   3.680 -0.1832 -0.2957 -0.0832
 4108W        W22962  18.701  17.448   0.565  0.0680 -0.4647 -0.0443
 4109W        W22963  15.783   9.544  11.340 -0.1176  0.0201  0.0627
 4110W        W22964   7.127   9.690  11.042 -0.0796 -0.2144  0.0174
 4111W        W22965  11.231  12.905   3.217  0.1208 -0.2672  0.0602
 4112W        W22966  18.288  17.062   2.812  0.0160 -0.4191 -0.0390
 4113W        W22967   1.227  18.594  12.779 -0.0756 -0.0231 -0.0667
 4114W        W22968   8.471   5.605   1.748 -0.3648 -0.0117  0.2074
 4115W        W22969   9.396   7.492   2.465 -0.3467  0.2905  0.0553
 4116W        W22970  14.947   7.661  12.239  0.0276 -0.2643  0.0022
 4117W        W22971  16.832   8.252   2.846  0.2167 -0.2214  0.2481
 4118W        W22972   8.739  13.256   4.889  0.2147 -0.2267 -0.2170
 4119W        W22973   9.659   0.050   1.606  0.0820 -0.0942 -0.2783
 4120W        W22974  14.512   9.172   4.787  0.2927 -0.4681 -0.1409
 4121W        W22975   4.404   4.321   0.971  0.0949  0.0605  0.0962
 4122W        W22976  16.296  15.473  12.952  0.1851  0.1803  0.1437
 4123W        W22977  11.679   2.106  11.938  0.1479  0.0746  0.1094
 4124W        W22978  17.383  12.180   0.523 -0.0116  0.1579  0.1937
 4125W        W22979  11.961  13.818  14.777 -0.0635 -0.1922 -0.1362
 4126W        W22980  11.548   5.516  13.378 -0.1206 -0.0753 -0.0489
 4127W        W22981   4.494   3.707   3.125  0.1917  0.1342 -0.1188
 4128W        W22982  14.722  13.898  11.865 -0.0666  0.0810  0.0521
 4129W        W22983  14.078  16.894  13.495 -0.0453 -0.3026  0.3288
 4130W        W22984  18.709   4.655   3.150  0.1348 -0.2530 -0.2141
 4131W        W22985   6.695  18.665   2.473  0.0724 -0.2007  0.1759
 4132W        W22986  15.684   7.399  12.260  0.0592  0.1283  0.0491
 4133W        W22987   6.779  11.736   0.753 -0.0263  0.1169 -0.0221
 4134W        W22988  15.752   4.442  14.571  0.2478 -0.2130 -0.1527
 4135W        W22989   2.368   2.364  12.673  0.0258 -0.0461 -0.2813
 4136W        W22990   1.458   3.480  12.110 -0.0226 -0.3795 -0.0933
 4137W        W22991  12.644   9.552  13.477 -0.0189 -0.2552 -0.0932
 4138W        W22992  14.616  14.295  11.632 -0.0469 -0.0435 -0.1847
 4139W        W22993   6.692   3.376   1.079  0.2212 -0.1265 -0.4126
 4140W        W22994   3.894  10.729   1.926 -0.1208 -0.0050 -0.0098
 4141W        W22995  15.992   9.858  12.650  0.0559  0.1270 -0.3483
 4142W        W22996  11.164  17.565  12.969  0.1577  0.0391  0.0663
 4143W        W22997   2.699  11.819   1.298  0.0685  0.2023  0.1951
 4144W        W22998  15.006  13.726   0.528 -0.0160  0.1224  0.3399
 4145W        W22999   0.405   8.057   2.098 -0.2637 -0.1471 -0.0683
 4146W        W23000  14.167   7.264   1.854  0.2965 -0.1397 -0.1362
 4147W        W23001   5.867  10.418   1.404  0.1500 -0.1180 -0.1121
 4148W        W23002   0.138   8.653   0.520  0.3242  0.1313  0.1350
 4149W        W23003  18.006   3.902   3.069  0.1810 -0.2745  0.1277
 4150W        W23004  16.912   9.648   2.726  0.0274 -0.0042  0.0732
 4151W        W23005   8.130  12.055  12.796 -0.1379 -0.3080 -0.2021
 4152W        W23006  18.147  11.822   2.719 -0.0369  0.0405  0.1014
 4153W        W23007  15.893   5.537   2.115  0.2663 -0.3193  0.1221
 4154W        W23008  15.468   0.249  13.576 -0.2051 -0.1135 -0.0466
 4155W        W23009  14.030   3.272   4.441  0.1986  0.1380 -0.1621
 4156W        W23010  10.627  17.550   4.028 -0.1127  0.3854 -0.0696
 4157W        W23011   9.549   8.852  11.077  0.0716 -0.0962  0.2509
 4158W        W23012   8.728   4.862  12.901  0.1128  0.0712  0.1687
 4159W        W23013  18.483   1.529   3.878  0.1342  0.1432  0.0202
 4160W        W23014  18.963   8.314   9.563 -0.0700 -0.0656 -0.0547
 4161W        W23015  12.963   0.447   2.959  0.1706  0.1228 -0.0242
 4162W        W23016  17.782  13.227  12.938 -0.0453  0.3884  0.0740
 4163W        W23017  10.502   8.919   1.055 -0.1639  0.1565  0.1581
 4164W        W23018  17.470   9.815   0.001  0.1742 -0.1771  0.1878
 4165W        W23019   3.950   5.880   2.568 -0.0167  0.1554  0.0276
 4166W        W23020   8.850  16.153  12.840  0.0223  0.0072  0.1043
 4167W        W23021   5.626  16.221   3.936  0.1002 -0.1902  0.0610
 4168W        W23022  13.191   0.472  13.739 -0.1538  0.2327  0.1700
 4169W        W23023  15.299   8.429  11.585 -0.1400 -0.2238  0.0843
 4170W        W23024   5.862   8.104   5.113 -0.2488 -0.1323  0.2491
 4171W        W23025  18.553   0.098   2.062 -0.0230  0.0710  0.0001
 4172W        W23026   8.123   6.995   3.538 -0.0627 -0.0689 -0.0723
 4173W        W23027   0.034   1.656  13.951 -0.1562  0.1638 -0.0474
 4174W        W23028   4.809  10.130   0.509  0.0462  0.1577  0.0661
 4175W        W23029  12.565   4.638  13.928 -0.0565 -0.1950  0.0149
 4176W        W23030  18.554  18.431  14.544  0.1756 -0.3129 -0.0630
 4177W        W23031  18.376   4.243  13.370  0.0836 -0.0164  0.0468
 4178W        W23032   5.031   5.173   4.305 -0.2401  0.0892 -0.1489
 4179W        W23033   0.898   9.860   3.146 -0.1983  0.1679 -0.0059
 4180W        W23034  18.093  13.019   1.081 -0.0103  0.1054 -0.3071
 4181W        W23035  13.661  14.894  10.720 -0.2039  0.0898  0.0265
 4182W        W23036   4.137  18.765   0.982  0.1046 -0.0925  0.0472
 4183W        W23037   0.543   8.303  14.767 -0.1112 -0.1641 -0.1377
 4184W        W23038   6.946   6.198  13.894  0.3785 -0.0386 -0.1982
 4185W        W23039   5.957  13.592   1.747  0.0226  0.1191  0.0049
 4186W        W23040   9.603  10.538   2.730 -0.1544 -0.3450  0.1352
 4187W        W23041   4.328  17.745   1.612 -0.1844 -0.1923 -0.1695
 4188W        W23042  17.114   0.928  12.953 -0.1430 -0.3679  0.1101
 4189W        W23043   2.009  15.307   3.292 -0.1345 -0.0434  0.0921
 4190W        W23044  13.780   2.828  11.348  0.4751 -0.3755  0.2749
 4191W        W23045   1.743  17.516  11.215 -0.3061  0.1972 -0.0500
 4192W        W23046  18.018   3.442  14.502 -0.4218  0.2095 -0.1069
 4193W        W23047   8.107  13.879  12.036  0.0276 -0.1195 -0.2253
 4194W        W23048  17.064  14.433   0.298  0.0346 -0.0386 -0.0686
 4195W        W23049  14.003  17.987   3.970  0.0977  0.0324  0.0734
 4196W        W23050  17.961  14.599  12.429  0.1702  0.4747  0.0180
 4197W        W23051   3.117   0.595  10.289 -0.1163 -0.1547  0.1613
 4198W        W23052  18.323   2.188  12.369 -0.1856  0.1301  0.1937
 4199W        W23053   4.552   3.344  12.042 -0.2895 -0.1543  0.4299
 4200W        W23054   1.646  16.698  12.073  0.1309 -0.1772 -0.0000
 4201W        W23055   2.622  17.777  10.834  0.1879  0.0734  0.0740
 4202W        W23056   0.803   8.698   3.030 -0.1886  0.0409  0.1591
 4203W        W23057  18.581   9.399  12.318 -0.1549 -0.2887  0.0148
 4204W        W23058  16.657  12.412  12.021 -0.1707  0.4425 -0.1611
 4205W        W23059   1.147  13.417  10.949 -0.0586  0.0648 -0.1571
 4206W        W23060   7.785  16.489   1.289  0.1680  0.0998  0.0644
 4207W        W23061  12.117   5.791  14.564 -0.1350 -0.1067 -0.2344
 4208W        W23062   6.353  13.096   0.205  0.4125  0.4453 -0.0563
 4209W        W23063   7.078  14.853  11.761 -0.2755  0.0837 -0.2375
 4210W        W23064  15.089  13.341  11.407 -0.0345 -0.3197 -0.0561
 4211W        W23065   7.742   2.473  13.533 -0.0887  0.1461  0.0463
 4212W        W23066   3.023  13.400  13.821 -0.0348 -0.0961  0.1874
 4213W        W23067   2.228   4.534   4.208 -0.1550  0.2468  0.0457
 4214W        W23068  18.451   1.377  10.922  0.0039  0.2679  0.1643
 4215W        W23069   2.565  15.883  14.762  0.1385  0.0416 -0.1517
 4216W        W23070   6.843   9.252  11.926 -0.2013  0.1889 -0.1434
 4217W        W23071  15.840  17.654   2.431 -0.5813 -0.1750 -0.4199
 4218W        W23072   5.989   2.243   4.584  0.1234 -0.1638 -0.0861
 4219W        W23073   4.617   6.468  11.425 -0.0635  0.0567 -0.0562
 4220W        W23074   7.762   9.197   4.146  0.1237 -0.1098  0.2096
 4221W        W23075   7.761  12.109  10.011 -0.1183 -0.0011  0.0982
 4222W        W23076  10.786   7.008   2.972  0.0487  0.0348  0.1122
 4223W        W23077   4.810  14.528   2.068 -0.1425 -0.0750 -0.0403
 4224W        W23078  16.942   6.292  11.962 -0.3144 -0.1378  0.2358
 4225W        W23079   0.604  12.543  10.978  0.1508 -0.0740  0.3700
 4226W        W23080  16.207  18.376  10.446  0.0758 -0.2846  0.2843
 4227W        W23081   6.619   0.245  12.005 -0.1103 -0.1091 -0.0126
 4228W        W23082   2.714   6.319   0.399 -0.0241 -0.1342 -0.0590
 4229W        W23083   9.681  18.805   0.124 -0.2297 -0.1515 -0.2594
 4230W        W23084  11.733   3.971  14.180 -0.0081 -0.1437  0.1910
 4231W        W23085   7.349   2.595   2.898  0.0501  0.0699  0.1209
 4232W        W23086   6.383   8.180   2.147  0.0947  0.1316  0.1147
 4233W        W23087   8.476   0.249  13.780 -0.0852  0.0692  0.0620
 4234W        W23088  10.135   6.251  11.011  0.1439 -0.0826 -0.1661
 4235W        W23089  15.277   8.418   1.148  0.1564 -0.0493 -0.0039
 4236W        W23090   0.156  14.069   0.772  0.0881  0.1698  0.0235
 4237W        W23091   0.162  13.229  14.758 -0.2451 -0.0565  0.2551
 4238W        W23092   3.803   3.892   2.462  0.0912  0.3606 -0.0225
 4239W        W23093  11.333  14.493  14.397  0.2781  0.3296  0.1904
 4240W        W23094  13.651  17.318   3.825 -0.2087 -0.0293 -0.1486
 4241W        W23095   9.494  18.885   1.264 -0.1166 -0.0232 -0.0503
 4242W        W23096   7.472  10.797   1.151 -0.1244  0.1469  0.0224
 4243W        W23097  12.011   1.531  13.153 -0.0270  0.0122  0.0328
 4244W        W23098  18.311   8.297   0.397  0.0056 -0.0347  0.0706
 4245W        W23099  17.252   0.470   2.301  0.1422  0.3162 -0.3275
 4246W        W23100  13.115  17.534  14.638 -0.0684  0.0013 -0.1025
 4247W        W23101   3.803   5.703   2.145  0.1707 -0.0717  0.1712
 4248W        W23102  14.570   4.095   3.371 -0.0201 -0.0967  0.1104
 4249W        W23103   5.719   2.403  12.780 -0.1833  0.3037 -0.4443
 4250W        W23104   1.834  15.567  12.773 -0.0946  0.1358 -0.0048
 4251W        W23105  10.394  13.743   2.255 -0.0623 -0.0811  0.0520
 4252W        W23106   7.738   7.605  12.473 -0.0224  0.0876 -0.0798
 4253W        W23107  15.577  11.681   0.293 -0.1700  0.2030  0.1856
 4254W        W23108   1.162   9.016  14.462  0.3255  0.1365 -0.0740
 4255W        W23109  15.508  13.304  11.664 -0.0708  0.2687 -0.1830
 4256W        W23110  17.601   0.037  12.123 -0.0227  0.2914 -0.0307
 4257W        W23111   7.694   3.812   2.813 -0.1691  0.2370  0.1379
 4258W        W23112   6.945  14.842   2.414  0.0863  0.1952  0.1443
 4259W        W23113   7.251   9.248   4.269 -0.0167 -0.1371 -0.0201
 4260W        W23114   5.364  16.896   1.809  0.0667 -0.1878 -0.3163
 4261W        W23115  10.282   9.956  10.328  0.1641 -0.3117 -0.2786
 4262W        W23116  18.123  15.559   9.941  0.3429  0.2176  0.0642
 4263W        W23117  12.306  13.662  13.103  0.2079 -0.0741  0.5011
 4264W        W23118  14.607   8.775   3.265  0.4833  0.0143 -0.3403
 4265W        W23119   2.514   8.486   4.676 -0.0751  0.1194  0.4326
 4266W        W23120   9.870  16.679   3.185  0.2370  0.0391  0.4170
 4267W        W23121   4.574  13.400  12.369 -0.1826 -0.0713  0.1120
 4268W        W23122  15.659   2.320  11.960 -0.3338 -0.0495  0.0369
 4269W        W23123  13.923   7.102  12.400  0.1554  0.2266  0.1850
 4270W        W23124   6.229  17.921   4.384 -0.1352  0.3357  0.2024
 4271W        W23125  18.605   2.671  14.122  0.2499  0.1538  0.1397
 4272W        W23126  13.444   0.461  14.623 -0.2475  0.2498  0.0897
 4273W        W23127  12.520  10.385  10.317  0.1386 -0.0722 -0.0617
 4274W        W23128  16.941   3.757  14.601 -0.4966 -0.4289 -0.3051
 4275W        W23129   3.875   2.447   3.069  0.2793 -0.0290  0.0182
 4276W        W23130  11.161   4.977   4.369  0.0622  0.0089  0.0646
 4277W        W23131  13.576   2.559  13.788  0.0293  0.0582 -0.1518
 4278W        W23132   9.048   8.903  10.872  0.0577 -0.0756  0.1618
 4279W        W23133   8.250   8.201   4.329  0.0068  0.0675  0.0665
 4280W        W23134   0.886  14.532  13.180 -0.1673 -0.2067 -0.1809
 4281W        W23135   5.852  14.746  13.697 -0.0390  0.1670 -0.0107
 4282W        W23136  10.711   5.877  11.701 -0.1112 -0.0741  0.0081
 4283W        W23137   8.961  11.737  12.022  0.4111  0.6007  0.1018
 4284W        W23138  10.015  14.997   1.872  0.1106 -0.2443  0.0315
 4285W        W23139   0.228  11.935  12.896 -0.2444 -0.3174 -0.0984
 4286W        W23140   6.474  14.721   2.271  0.0375 -0.1358  0.2716
 4287W        W23141   5.438   2.124   3.166  0.4300 -0.2162 -0.2592
 4288W        W23142   9.739   1.094  14.654  0.2096 -0.0453  0.2403
 4289W        W23143  15.067   8.329  11.154  0.1704 -0.0483 -0.1023
 4290W        W23144   9.594  14.903   3.406  0.0670 -0.4916  0.0934
 4291W        W23145  12.294  17.693  13.513 -0.0263  0.1545  0.0198
 4292W        W23146   5.738   7.885  10.913 -0.0720 -0.0559 -0.2252
 4293W        W23147   8.266  14.234   1.020  0.2068 -0.0971 -0.3976
 4294W        W23148  13.562  17.954   4.168  0.1649 -0.0757 -0.2717
 4295W        W23149  12.186  10.307  11.612 -0.1516  0.1615  0.0643
 4296W        W23150  15.043   2.252  10.649 -0.4401 -0.1405 -0.1861
 4297W        W23151  11.158  12.415   3.365  0.0604  0.3691  0.0557
 4298W        W23152  13.801   4.741  13.559 -0.4540 -0.1808  0.1338
 4299W        W23153   8.176  15.499   0.405  0.1168 -0.2235  0.2797
 4300W        W23154   1.866   0.776   1.755 -0.0638  0.1515 -0.0631
 4301W        W23155  15.342  12.613  13.280  0.2300  0.2717 -0.0961
 4302W        W23156   7.803  14.618  11.313  0.2310 -0.2182 -0.4987
 4303W        W23157  18.587  15.091  11.923 -0.1074 -0.1552  0.1329
 4304W        W23158  14.876   7.737  11.723  0.3448 -0.0861 -0.0029
 4305W        W23159   8.723  17.176   1.923 -0.0184 -0.0107  0.1233
 4306W        W23160  14.724   0.040  14.529  0.1643  0.1776  0.3807
 4307W        W23161   7.340  13.103  14.787  0.0729 -0.1510  0.0258
 4308W        W23162   1.468  17.325  13.529  0.0378  0.1481 -0.2475
 4309W        W23163   1.382   3.230   0.469  0.0174  0.2119  0.2864
 4310W        W23164  13.879   0.487   3.420 -0.2274  0.0788 -0.3092
 4311W        W23165   0.925   6.861   1.784 -0.0663  0.0728 -0.0365
 4312W        W23166  17.930  17.043   0.432 -0.1318 -0.1384 -0.0855
 4313W        W23167   1.068   7.962   0.451  0.2001 -0.1467  0.3250
 4314W        W23168   5.277  12.144   0.585 -0.0328  0.2034  0.0649
 4315W        W23169  17.475  13.132  12.161 -0.0927  0.2640 -0.0031
 4316W        W23170   8.242  17.585  14.350 -0.2425 -0.4718  0.1784
 4317W        W23171  13.568  15.195  11.332 -0.0170 -0.3066  0.2062
 4318W        W23172  14.051  11.698  11.358  0.0130  0.2580 -0.1481
 4319W        W23173   9.845   2.334   4.115  0.0341  0.0316  0.0457
 4320W        W23174   4.590  10.852   3.009 -0.1380  0.1898 -0.2015
 4321W        W23175   0.564   2.588   1.531  0.0379 -0.1165 -0.0351
 4322W        W23176  16.810   1.601  14.404  0.0197  0.0987  0.0417
 4323W        W23177   5.689  17.502   5.214 -0.1011  0.1240  0.1227
 4324W        W23178  11.557   4.550  14.714  0.0460  0.3777  0.1049
 4325W        W23179  15.905  11.621  13.693  0.0408  0.1195 -0.3226
 4326W        W23180   1.115   8.606   2.639 -0.1832  0.2183  0.1809
 4327W        W23181   9.192  18.257  12.975  0.2581 -0.0317  0.2390
 4328W        W23182   2.262  15.050   1.850 -0.1141 -0.0201  0.0333
 4329W        W23183  12.686  14.160  12.251 -0.1992  0.1326 -0.1213
 4330W        W23184  15.088  12.358   2.815  0.0044 -0.1119 -0.1488
 4331W        W23185  12.349  15.667  11.312 -0.0423 -0.0536 -0.0026
 4332W        W23186   9.042  16.888   2.257 -0.1428 -0.1578  0.0467
 4333W        W23187  11.555  10.008  11.859  0.3514 -0.0080  0.2431
 4334W        W23188   3.426   0.997   3.380 -0.0451 -0.2154  0.0714
 4335W        W23189   3.231   6.470   3.827 -0.2502  0.0956 -0.0807
 4336W        W23190   0.377  15.131  14.002  0.0649 -0.2157 -0.3285
 4337W        W23191  18.744   4.858   0.354  0.1776 -0.0174  0.1294
 4338W        W23192  17.349   1.771   2.401  0.1470  0.1110 -0.1160
 4339W        W23193  17.606   1.024  11.198  0.0107  0.0361  0.2779
 4340W        W23194   6.424  19.031  10.983  0.1619  0.1196 -0.0021
 4341W        W23195   6.302   1.305  12.910  0.1316  0.1873  0.0156
 4342W        W23196   1.116  16.936   0.779  0.2257 -0.1052  0.0605
 4343W        W23197  11.464   4.294  13.812 -0.1786  0.0896 -0.4719
 4344W        W23198  10.596   3.801  13.639  0.1644  0.0561  0.0464
 4345W        W23199  15.967   3.840   1.197 -0.3345 -0.1144  0.0189
 4346W        W23200  10.176   4.768   2.522  0.0663  0.3142  0.2004
 4347W        W23201   6.639  13.403   0.548 -0.1374 -0.0861  0.0787
 4348W        W23202   7.583  16.195   9.541 -0.2338  0.3471 -0.1998
 4349W        W23203   4.559   4.798   5.007 -0.0204  0.1550 -0.1531
 4350W        W23204   6.327  14.304  11.328  0.0515  0.2048 -0.0018
 4351W        W23205   3.201  15.761  13.791  0.4604  0.0830  0.0759
 4352W        W23206   8.617  10.995   1.558 -0.1873 -0.0401 -0.1061
 4353W        W23207  11.949  15.055   4.146 -0.0426  0.1666 -0.0507
 4354W        W23208   3.058   9.232   0.217 -0.0452  0.2202 -0.1591
 4355W        W23209   8.047   8.365   3.598  0.1261  0.0773 -0.3892
 4356W        W23210  10.210   9.574  12.919 -0.2919  0.0622  0.1647
 4357W        W23211   5.188   5.061  13.168  0.4061  0.0494  0.4610
 4358W        W23212   7.078  18.341   4.073 -0.2466 -0.2203 -0.1941
 4359W        W23213   9.363  15.696   2.999 -0.2336 -0.0404  0.1397
 4360W        W23214   0.115   6.260  13.191 -0.1300  0.1810 -0.0978
 4361W        W23215   2.266   1.768   5.270 -0.3777 -0.0740 -0.5570
 4362W        W23216  15.260   3.208  14.436 -0.5060 -0.3621 -0.0051
 4363W        W23217  14.715  10.376   1.897  0.0868 -0.0980 -0.2235
 4364W        W23218   6.296  14.790  11.252  0.2040  0.2035  0.0049
 4365W        W23219   8.655   3.962  12.311 -0.3031 -0.0826  0.1863
 4366W        W23220   5.452  12.910  13.630  0.0914  0.2291 -0.0936
 4367W        W23221  11.811  17.844   1.103  0.3502 -0.0879  0.0893
 4368W        W23222   4.405   2.019  12.141  0.2273  0.1742 -0.1295
 4369W        W23223   6.223   0.466   3.668 -0.3463 -0.0639 -0.0535
 4370W        W23224   7.239  15.091   4.382 -0.0579  0.1147  0.0278
 4371W        W23225   7.988   5.364   2.868 -0.1701 -0.0650 -0.1096
 4372W        W23226  12.406  10.467   2.026  0.1778 -0.0640  0.0337
 4373W        W23227  17.815   8.298   3.505  0.1628  0.0774 -0.0790
 4374W        W23228  13.378  18.337   0.311 -0.1791  0.1712  0.0873
 4375W        W23229  16.505  18.935   2.385  0.0544 -0.1110 -0.1007
 4376W        W23230  15.833   6.647   0.529 -0.0046  0.1237  0.0583
 4377W        W23231   2.816   4.312  11.944 -0.1941  0.0318  0.2988
 4378W        W23232  15.793   0.381   0.409 -0.0776 -0.1714 -0.0565
 4379W        W23233   0.156   6.432  10.577 -0.1506  0.0195  0.0282
 4380W        W23234  15.128  12.457  11.881  0.0945  0.1975  0.1399
 4381W        W23235   1.653   5.981  14.455  0.0477 -0.0807  0.2362
 4382W        W23236  17.700  10.176  13.456 -0.0144  0.1293 -0.0556
 4383W        W23237   1.759  13.362   1.487  0.2019  0.0549 -0.0385
 4384W        W23238   0.557  10.907  14.509 -0.2945 -0.1671  0.1114
 4385W        W23239   8.545  10.967   0.355 -0.4531  0.3555 -0.0059
 4386W        W23240   4.434   0.371   1.751  0.2194  0.0641  0.1050
 4387W        W23241   3.145   6.365   2.573  0.1990 -0.1943  0.1307
 4388W        W23242  10.498  10.907  10.822  0.0818 -0.1963  0.2615
 4389W        W23243  12.062   4.485   0.257  0.0806  0.0584  0.2257
 4390W        W23244   6.241   4.568  12.472  0.0480 -0.2154  0.2576
 4391W        W23245  15.645   1.881   3.896  0.0701 -0.0537 -0.2947
 4392W        W23246   6.111   6.605   4.148 -0.3254 -0.2655  0.0592
 4393W        W23247   1.334   8.310  11.272  0.0290  0.2851  0.0975
 4394W        W23248   8.676  13.666  14.752  0.0543 -0.0458 -0.1213
 4395W        W23249  16.701  18.086   1.388  0.2601 -0.0861  0.2611
 4396W        W23250  14.722   0.065   1.126 -0.0726 -0.1305  0.1307
 4397W        W23251  18.135   1.175   1.389  0.0004 -0.1795  0.0015
 4398W        W23252  12.882   5.328  12.129  0.2947 -0.2367  0.0034
 4399W        W23253  10.632   6.781  11.038  0.2287 -0.0159 -0.1188
 4400W        W23254  12.952  18.950   3.693 -0.0870  0.2069 -0.2301
 4401W        W23255   7.995  12.903  12.044 -0.5105  0.0455 -0.5286
 4402W        W23256   9.272  12.582   4.095  0.1722  0.3659 -0.2844
 4403W        W23257  15.763  10.584   2.825  0.1424  0.1101  0.3808
 4404W        W23258  17.570  17.276  11.188 -0.1766 -0.2206  0.0725
 4405W        W23259   9.043   7.049   1.806  0.0810 -0.0017 -0.3970
 4406W        W23260   1.013   2.828  14.214  0.0359 -0.1958 -0.2401
 4407W        W23261  12.146   2.203   3.292  0.0386 -0.3797  0.0054
 4408W        W23262   2.117  15.820   1.635 -0.0896  0.1174  0.1286
 4409W        W23263   9.689  13.664  11.672 -0.0910 -0.0715 -0.3359
 4410W        W23264  16.345  17.811   2.565  0.0134 -0.1557  0.0433
 4411W        W23265   8.323   3.027  11.254  0.1038  0.0842  0.1595
 4412W        W23266  17.276   6.243   3.015 -0.4028 -0.0187 -0.2020
 4413W        W23267  17.019   5.367   2.510  0.1072  0.1580  0.2457
 4414W        W23268   9.433   6.344  11.137  0.0603 -0.3098 -0.1344
 4415W        W23269   8.209  15.063   3.830 -0.4170  0.0398  0.1442
 4416W        W23270   7.766  16.240  13.485  0.1534  0.2782 -0.3125
 4417W        W23271  10.537   2.230  10.587  0.2940  0.2719  0.1505
 4418W        W23272   9.231   7.156   2.844  0.0451 -0.0360 -0.4045
 4419W        W23273   5.088   1.880  12.694  0.2111 -0.4014 -0.0715
 4420W        W23274   5.481  16.131   3.252  0.1581 -0.1078  0.2828
 4421W        W23275   7.007  18.774   1.765  0.3207 -0.0835  0.0074
 4422W        W23276   1.332   5.341  14.596 -0.2656 -0.2686 -0.0098
 4423W        W23277   5.447  13.496  14.261  0.0246  0.2480  0.2015
 4424W        W23278  12.067   7.285  13.339  0.0180  0.0706  0.2208
 4425W        W23279  10.406   8.111  11.140  0.4440 -0.2581 -0.3881
 4426W        W23280   4.912   7.902  14.769  0.1935  0.1870  0.0884
 4427W        W23281  15.893  14.094  12.501 -0.3334  0.3143  0.0677
 4428W        W23282   5.225  10.064  14.560 -0.2423  0.0193 -0.1115
 4429W        W23283   4.685  14.257  12.818  0.1226 -0.0443  0.1492
 4430W        W23284   2.520  10.491  11.315  0.0781 -0.1826  0.0386
 4431W        W23285   0.203   0.597  10.725  0.0672 -0.1087  0.3546
 4432W        W23286   9.769   3.485   1.993  0.0446  0.1476 -0.1487
 4433W        W23287   7.690  13.750  12.369  0.1025  0.0843 -0.0439
 4434W        W23288  12.404   5.659  14.086  0.3498 -0.1763  0.0630
 4435W        W23289  13.235  16.296   4.340  0.1402 -0.1269  0.1051
 4436W        W23290   3.048   5.404  11.266 -0.0946  0.0729 -0.0511
 4437W        W23291   1.337  13.906   1.487  0.1258 -0.0753  0.0298
 4438W        W23292  15.599   1.269  11.602 -0.1156  0.0066  0.3952
 4439W        W23293  14.734   6.860  11.025  0.1588  0.2880  0.1383
 4440W        W23294  14.583   2.942   1.484  0.1449  0.0618 -0.2583
 4441W        W23295  12.368  15.977  10.895 -0.0641  0.1946 -0.0707
 4442W        W23296  18.669   9.672  11.690 -0.4816 -0.1008 -0.0017
 4443W        W23297   7.046  11.281  12.822  0.1599  0.1862 -0.0102
 4444W        W23298   7.845   4.019  12.350  0.2110 -0.0526 -0.2868
 4445W        W23299  16.602  12.777   0.658 -0.2630 -0.2338 -0.2859
 4446W        W23300   5.426  17.810   3.416  0.1480 -0.1288  0.0060
 4447W        W23301   7.507  11.647   1.003  0.2842 -0.0825 -0.2114
 4448W        W23302  13.707   4.329  13.271 -0.1314  0.0647  0.1224
 4449W        W23303   2.917  12.469   2.267  0.1452  0.3418  0.1321
 4450W        W23304  14.299   2.852  13.871  0.0820 -0.1896 -0.1366
 4451W        W23305  12.719   7.562   3.682 -0.3089  0.0132 -0.2071
 4452W        W23306   7.558   9.708  13.190  0.0127 -0.0479 -0.0331
 4453W        W23307  18.400   3.947   2.675 -0.0458  0.3666 -0.0675
 4454W        W23308  10.876  14.136  13.436  0.0234  0.0313 -0.2868
 4455W        W23309  11.037  13.366   2.435 -0.3282 -0.2485 -0.0873
 4456W        W23310   1.825   1.464   3.310 -0.1368  0.0270 -0.2684
 4457W        W23311   5.238   0.259  13.983 -0.2343 -0.1178  0.0503
 4458W        W23312  17.485   1.410   0.241  0.3594 -0.0395  0.2615
 4459W        W23313   8.679  11.928   3.259  0.1781  0.2113  0.1202
 4460W        W23314  13.687  11.520   2.428 -0.1925  0.0012  0.2934
 4461W        W23315   2.804   3.499  12.023 -0.0980 -0.0712  0.1878
 4462W        W23316   1.281  10.549   1.369  0.1323 -0.2708 -0.3825
 4463W        W23317   8.736   8.983  14.017  0.0619  0.1100 -0.0298
 4464W        W23318   4.719   4.627  11.736 -0.1587 -0.1818 -0.1075
 4465W        W23319  10.274   9.874  13.348 -0.2149  0.0560  0.2928
 4466W        W23320   3.552  12.170  11.225  0.2008 -0.0033  0.4049
 4467W        W23321   7.148   4.157   0.766 -0.2582 -0.2476 -0.0234
 4468W        W23322  18.170   1.232   3.650 -0.1072  0.0526 -0.1007
 4469W        W23323   2.345  11.444   0.661 -0.0386  0.0249 -0.2417
 4470W        W23324  13.536   2.385  12.153 -0.2224  0.0521  0.2496
 4471W        W23325   9.887   7.592   4.015  0.1956  0.1020 -0.2708
 4472W        W23326   0.617   9.627   4.682  0.1563  0.0542 -0.1854
 4473W        W23327  16.778  17.708  14.490  0.2781  0.1247  0.1309
 4474W        W23328   2.164   7.401   3.746  0.1512 -0.2789  0.0926
 4475W        W23329  17.965   1.650   0.022 -0.0947 -0.1324  0.1578
 4476W        W23330  14.871   1.908  12.464  0.2653 -0.0846  0.1566
 4477W        W23331   3.175   1.156  14.775  0.0111 -0.0583 -0.2008
 4478W        W23332  17.801  14.722  11.410  0.1198  0.1529 -0.0666
 4479W        W23333  17.284   5.370  14.170 -0.3260  0.2122  0.3755
 4480W        W23334   3.656   5.758   3.592  0.0903 -0.2071  0.2153
 4481W        W23335  17.473  18.419  12.419  0.0025 -0.3392 -0.0518
 4482W        W23336   4.379   7.783   3.589 -0.3078  0.2369 -0.0886
 4483W        W23337  14.503  10.891   2.905  0.0884  0.0601  0.0949
 4484W        W23338   8.995   1.434  14.490  0.2226  0.3439 -0.1469
 4485W        W23339   0.315   2.323  12.494  0.0173 -0.0317  0.1323
 4486W        W23340  16.563  18.777  12.064 -0.0078 -0.0053 -0.0232
 4487W        W23341   8.815  12.937   4.415 -0.0553  0.2550 -0.1625
 4488W        W23342  10.981  14.652  11.819  0.2473 -0.3618 -0.1968
 4489W        W23343  17.663  11.402  12.863 -0.0639  0.0631  0.3754
 4490W        W23344   9.510   6.700  11.797 -0.0950  0.1823 -0.0006
 4491W        W23345   5.178   0.298   0.624 -0.1593  0.0452  0.2557
 4492W        W23346  10.964  14.154  11.225  0.2130  0.1031 -0.2699
 4493W        W23347  18.878   3.362   3.835 -0.1105 -0.1605 -0.0915
 4494W        W23348   3.176  18.558  11.961  0.1081  0.1064 -0.0271
 4495W        W23349   9.620  18.991   3.243  0.1331  0.1459 -0.1376
 4496W        W23350   5.317   4.327   3.152  0.1111  0.1871 -0.0666
 4497W        W23351  12.282  11.043  14.339 -0.3742 -0.1763 -0.0073
 4498W        W23352   4.488   3.335   2.262 -0.1958  0.0901 -0.1636
 4499W        W23353  14.240   7.446  11.647  0.0753 -0.4418  0.4209
 4500W        W23354   7.297  13.297   1.483 -0.0402  0.0663 -0.0382
 4501W        W23355  11.847   2.395   2.033  0.1842 -0.0354  0.1950
 4502W        W23356  12.717   2.766   2.479  0.0386  0.1655  0.2497
 4503W        W23357   3.462   1.126  10.826 -0.3512 -0.4768  0.0813
 4504W        W23358   7.107   8.912   2.748 -0.1583 -0.0706  0.3167
 4505W        W23359   3.568  17.836  13.522 -0.0068 -0.2209  0.2799
 4506W        W23360  16.927  13.466   2.634  0.0908 -0.1713 -0.1311
 4507W        W23361   9.630   7.717  14.066  0.1977  0.2612  0.2282
 4508W        W23362   1.551   9.127  10.945 -0.1581 -0.2079  0.1599
 4509W        W23363   4.992   9.146   2.293  0.1207 -0.1721  0.4048
 4510W        W23364   4.114  11.655  12.751  0.1208  0.1358 -0.3323
 4511W        W23365   3.748  18.297   2.202  0.0475 -0.0148 -0.0312
 4512W        W23366  14.050  16.593   1.040 -0.0649 -0.0327  0.1340
 4513W        W23367  14.460  16.862   3.717 -0.1905 -0.0939  0.0671
 4514W        W23368   6.638  18.032  13.505  0.1304 -0.1598  0.2071
 4515W        W23369  14.510   4.237  11.035  0.2577 -0.1885 -0.0091
 4516W        W23370  11.171   2.109  13.344  0.2036 -0.0793 -0.1850
 4517W        W23371   7.879  19.113  14.559 -0.1523  0.0994 -0.2341
 4518W        W23372   4.576   0.162   0.132 -0.1004 -0.2191  0.1889
 4519W        W23373  10.665  12.467  10.402  0.2587 -0.0087  0.1128
 4520W        W23374  14.179   2.247   2.946  0.1017  0.3676  0.1540
 4521W        W23375   7.994   7.586   2.881  0.3852 -0.0455 -0.1084
 4522W        W23376   0.054   6.159   1.843  0.0603 -0.1052  0.0810
 4523W        W23377  14.629  11.185   4.383 -0.3860  0.1152  0.1464
 4524W        W23378   9.637   0.282  12.640 -0.2157  0.0016 -0.3266
 4525W        W23379  14.634  11.809  12.198  0.0435  0.1119 -0.4361
 4526W        W23380   8.486   7.495  13.891  0.4247  0.0148 -0.2074
 4527W        W23381  15.105  11.077  12.634  0.0953  0.1696  0.1530
 4528W        W23382  10.318   2.642  14.288 -0.3035  0.1469  0.1529
 4529W        W23383   7.082   9.408   3.402  0.0118  0.0543 -0.0532
 4530W        W23384   1.512  11.879  10.362 -0.2433 -0.0169 -0.0501
 4531W        W23385   5.181   8.710   5.114  0.0994  0.0894 -0.0426
 4532W        W23386  17.047  11.879   4.489 -0.3722  0.0921 -0.1418
 4533W        W23387   3.939   6.119   2.987  0.0179  0.2840  0.0051
 4534W        W23388   0.086  17.315  13.443  0.2295 -0.0246 -0.0726
 4535W        W23389  10.319   0.374   2.252  0.2092 -0.2381 -0.0788
 4536W        W23390  11.603   5.484  14.451  0.0461 -0.0221 -0.1265
 4537W        W23391  16.636   4.044   1.725  0.0546 -0.2339  0.0188
 4538W        W23392   8.693  18.762  12.249  0.1218  0.0535  0.1525
 4539W        W23393  15.915   1.648  10.706  0.1516  0.5065 -0.1384
 4540W        W23394   1.379  10.854  10.969  0.1041 -0.4028 -0.2014
 4541W        W23395   4.562  16.307   0.018 -0.0060  0.0934  0.3649
 4542W        W23396   3.311  14.250  13.194  0.2528 -0.3909  0.0294
 4543W        W23397   9.833  17.236   2.423 -0.2391 -0.3197  0.0092
 4544W        W23398  11.096  12.538   5.152 -0.3691 -0.0446 -0.1164
 4545W        W23399  15.634   9.215  13.208 -0.0678 -0.0242 -0.0587
 4546W        W23400   2.140  11.951   2.954  0.2654  0.1422 -0.1614
 4547W        W23401   8.757   5.206   3.509 -0.1257 -0.0061  0.0062
 4548W        W23402   9.549  17.146  14.098 -0.4610 -0.0902 -0.1019
 4549W        W23403   6.706   3.126   0.674 -0.0114  0.1319 -0.2514
 4550W        W23404  12.062   4.966   1.951 -0.0210 -0.1064  0.0801
 4551W        W23405   3.630  17.904  13.036 -0.1253 -0.1207 -0.1100
 4552W        W23406  11.050  18.231   3.963  0.0165 -0.1749  0.2096
 4553W        W23407  11.797   9.043  13.450  0.0358  0.1024 -0.1656
 4554W        W23408   1.452   6.973  14.013  0.1589 -0.0547 -0.1491
 4555W        W23409  13.473   2.858   2.543  0.1923  0.0066 -0.0197
 4556W        W23410  14.197  18.042   0.347  0.0117  0.1745  0.0311
 4557W        W23411   4.121   8.436  14.765  0.2916  0.0081 -0.1481
 4558W        W23412  16.066   5.711  12.208  0.3058 -0.1627  0.0823
 4559W        W23413  15.985  16.357  13.351  0.0729 -0.4772 -0.0344
 4560W        W23414  18.915   4.174  12.717 -0.1100  0.3260  0.1347
 4561W        W23415  13.103  16.698   2.075  0.0100  0.1255  0.0875
 4562W        W23416   2.842   1.459   3.577 -0.1528 -0.2120  0.3294
 4563W        W23417   8.439   6.445   2.276  0.1810 -0.1632  0.0064
 4564W        W23418  18.895  18.348  14.139 -0.1752 -0.2309 -0.3165
 4565W        W23419   1.525  11.979  13.944 -0.1047  0.3508  0.1812
 4566W        W23420   0.838   9.840  12.061 -0.3555  0.0308 -0.0588
 4567W        W23421   9.135   7.681  14.072 -0.0221 -0.3239  0.1885
 4568W        W23422   0.356   1.294   1.114  0.0524  0.2631  0.0933
 4569W        W23423   6.145   4.973  14.648 -0.0484  0.0055  0.0824
 4570W        W23424  14.044  17.113  12.910 -0.0956  0.1356 -0.5118
 4571W        W23425   3.575   9.406  13.020 -0.0212 -0.1670 -0.1560
 4572W        W23426   8.098   4.673   2.893  0.1772  0.1639 -0.1758
 4573W        W23427   2.600  16.435  12.984 -0.1228  0.5774  0.3232
 4574W        W23428   6.372   5.327   2.900  0.0102  0.2637  0.0216
 4575W        W23429   4.729   0.582  10.478 -0.0664  0.1549 -0.0101
 4576W        W23430   7.706   2.694   2.291 -0.1786 -0.1739  0.2406
 4577W        W23431   9.908  18.961  12.737 -0.1714 -0.1963 -0.1067
 4578W        W23432  16.403  12.448  10.978  0.1118  0.0520 -0.3329
 4579W        W23433   5.603   5.758   2.705  0.1086 -0.2475  0.0079
 4580W        W23434  11.700   8.665  12.094 -0.2817  0.0006 -0.1218
 4581W        W23435  18.378  10.154  10.727 -0.1246 -0.0234  0.1912
 4582W        W23436  17.070  15.247  11.533 -0.0217 -0.1892 -0.2266
 4583W        W23437   4.097   3.550  11.891 -0.1263  0.0159  0.0934
 4584W        W23438   4.732   8.257   4.435  0.2482  0.1085 -0.0508
 4585W        W23439   9.163   4.243  12.960 -0.1664 -0.2373 -0.0518
 4586W        W23440   2.498  11.912   0.839  0.0177  0.1291  0.0982
 4587W        W23441  13.022  15.656   3.329  0.0642  0.3005  0.0147
 4588W        W23442   4.148  18.354   2.947  0.1326 -0.2631  0.0537
 4589W        W23443  17.248   8.152   3.171  0.0336 -0.1533  0.1846
 4590W        W23444  11.639   2.900   3.520 -0.0637  0.3519 -0.0646
 4591W        W23445  10.564  18.990  13.397  0.3136  0.1515 -0.0145
 4592W        W23446  13.393  14.174  11.025 -0.1589 -0.3718  0.2710
 4593W        W23447   8.645  18.120   3.517  0.0700  0.1012  0.0108
 4594W        W23448  13.917  18.814   4.202 -0.1064  0.2635  0.1596
 4595W        W23449   3.395   5.970   3.940 -0.1720 -0.0374 -0.1430
 4596W        W23450  15.406   3.500  12.076 -0.0640  0.1147  0.4007
 4597W        W23451  16.910  11.540   4.025 -0.2808  0.0854  0.4352
 4598W        W23452  11.749   4.057  13.508  0.0249 -0.2078  0.1690
 4599W        W23453  10.840  10.560   3.174 -0.2960  0.3159 -0.1395
 4600W        W23454  13.442   3.902   2.365  0.0960  0.5751 -0.0767
 4601W        W23455   0.775   2.182  12.369 -0.1904 -0.0301  0.1304
 4602W        W23456   9.830   7.165  11.059 -0.1859 -0.1957  0.2113
 4603W        W23457   6.644   8.793  13.413 -0.0149 -0.1149  0.2339
 4604W        W23458  16.751   3.223  10.976  0.0351  0.3321 -0.3693
 4605W        W23459  13.603  17.258  11.001 -0.0726  0.1498  0.1336
 4606W        W23460   0.750  12.743  13.132 -0.2849  0.2879 -0.3534
 4607W        W23461  11.124   4.724   3.566  0.0858  0.0197 -0.3394
 4608W        W23462  10.991   0.414   3.129  0.0151 -0.1140  0.1242
 4609W        W23463   3.305   9.485   1.563 -0.0485  0.2028  0.0127
 4610W        W23464  14.085   6.562  10.578  0.1073  0.1002 -0.1631
 4611W        W23465  16.660   8.775   1.040 -0.0392  0.1169 -0.1475
 4612W        W23466  17.315  15.740   1.555 -0.1467 -0.0264  0.1125
 4613W        W23467   3.558   4.450  10.906 -0.1361 -0.3440  0.0264
 4614W        W23468   2.908   4.501  13.055 -0.1218  0.0120  0.1427
 4615W        W23469  18.911   0.189  12.090 -0.0373  0.0156 -0.1348
 4616W        W23470  14.951   0.192  11.464 -0.0120  0.0522 -0.0239
 4617W        W23471   1.870  11.035  13.378  0.1984  0.1319  0.0618
 4618W        W23472   4.350   2.269   1.618  0.2222  0.0567 -0.1399
 4619W        W23473  18.566  14.206  11.136 -0.1191  0.0693 -0.2554
 4620W        W23474   1.371  17.451   2.155  0.3011 -0.1046 -0.2293
 4621W        W23475   0.248  11.566   3.832  0.0835  0.0666 -0.1098
 4622W        W23476   9.415   0.147   0.944 -0.0919  0.2521  0.1326
 4623W        W23477  15.562  13.109  13.366 -0.3011 -0.1924 -0.0895
 4624W        W23478   3.190  13.211  11.615  0.0646  0.3612  0.2324
 4625W        W23479   0.532  14.662  13.800 -0.1322 -0.0318  0.1592
 4626W        W23480   3.691   4.750   2.442  0.1013 -0.2126  0.0749
 4627W        W23481  10.131   8.548   0.856  0.1276 -0.1388 -0.1261
 4628W        W23482  16.964  15.000   3.603 -0.0513 -0.3498 -0.2285
 4629W        W23483  18.357  17.766  10.503  0.1867  0.0604 -0.2279
 4630W        W23484   7.655  14.202   3.176 -0.3120 -0.0155 -0.3270
 4631W        W23485  14.448   6.922   5.228  0.0576  0.2017  0.3078
 4632W        W23486  11.735   6.274  13.061 -0.0048  0.0610 -0.0870
 4633W        W23487   9.259  14.730  11.114 -0.1096 -0.1013  0.0079
 4634W        W23488  19.065  17.691  10.764 -0.3714 -0.1020  0.0650
 4635W        W23489   0.450   2.935   1.925 -0.0616 -0.4467 -0.1935
 4636W        W23490   9.495   0.735   0.043 -0.0441  0.1294 -0.1550
 4637W        W23491   0.263   9.288  11.490 -0.2850  0.0475 -0.0577
 4638W        W23492   1.675   8.390  13.386  0.0477  0.0005 -0.0808
 4639W        W23493  17.534  10.569  13.228 -0.0671 -0.1492  0.0367
 4640W        W23494   5.744  16.562   3.116  0.0599  0.5062 -0.0928
 4641W        W23495   1.690  13.669   0.378 -0.1783 -0.4343  0.2300
 4642W        W23496  16.108   6.944   2.467 -0.1677  0.1956 -0.2146
 4643W        W23497   7.485   3.691   3.654 -0.0343  0.0049 -0.0057
 4644W        W23498  11.013   2.123   1.632  0.0398 -0.2240 -0.3642
 4645W        W23499   1.900   8.411   1.043  0.0780  0.1612 -0.1907
 4646W        W23500   2.339  15.952  12.535  0.1504 -0.1200  0.0559
 4647W        W23501  12.650   5.353   3.575  0.2992  0.1059 -0.0246
 4648W        W23502  12.313   6.813   2.971  0.1554  0.2373 -0.2848
 4649W        W23503   1.583   9.417   2.094 -0.0966  0.1933  0.1379
 4650W        W23504   0.620  15.956   5.145  0.0014  0.1870 -0.3405
 4651W        W23505  13.794   0.185   1.799 -0.2095  0.1185  0.2684
 4652W        W23506  10.085  10.325  10.888 -0.0578 -0.1870 -0.0547
 4653W        W23507  18.533  14.324   2.448  0.0311  0.0022  0.0074
 4654W        W23508  18.151  13.822   3.123 -0.2013  0.1986 -0.0204
 4655W        W23509  10.411   3.578   3.787 -0.2366  0.2211  0.0827
 4656W        W23510  14.810  17.494  13.452 -0.0561 -0.1446 -0.1505
 4657W        W23511   7.914  13.993  13.518  0.0802  0.0325  0.0932
 4658W        W23512  13.555   1.931  12.975  0.0068  0.1030  0.1104
 4659W        W23513   2.180   9.560   3.930 -0.0161  0.2848 -0.1570
 4660W        W23514  14.369   6.284  13.280 -0.0388  0.2061 -0.3013
 4661W        W23515  11.088  11.577   3.002 -0.0851  0.3349  0.0215
 4662W        W23516  11.546   9.640  12.225 -0.0906 -0.0256  0.0732
 4663W        W23517  15.261   1.037   2.839 -0.0940  0.1661 -0.0847
 4664W        W23518   2.168   3.757   3.574 -0.0835 -0.3837  0.1719
 4665W        W23519   6.696   7.093   0.505  0.0072  0.0017 -0.1317
 4666W        W23520  13.846  14.873  12.680 -0.4504  0.0904 -0.0477
 4667W        W23521   8.454   1.144  12.845  0.0784 -0.0845  0.2104
 4668W        W23522  17.201  13.941   1.523  0.0501 -0.2861 -0.0152
 4669W        W23523   3.017  12.062   1.554 -0.0861  0.0322 -0.0596
 4670W        W23524  14.830   3.343   2.702 -0.2789 -0.0116 -0.2095
 4671W        W23525   4.964  17.146   3.934 -0.1120 -0.4175  0.3649
 4672W        W23526  16.785  18.007   2.321 -0.0961  0.2422  0.0495
 4673W        W23527  18.871   5.362   0.548 -0.1037 -0.0175  0.1120
 4674W        W23528   7.034  15.359  12.602 -0.2671 -0.2846 -0.1625
 4675W        W23529   8.317   7.924   1.297 -0.4228 -0.0155 -0.1083
 4676W        W23530   5.785  13.480   2.513  0.1950 -0.0581 -0.1183
 4677W        W23531   4.193   0.372   3.178  0.0574 -0.1720  0.2502
 4678W        W23532  14.315   6.258  11.873 -0.1252  0.2125 -0.1287
 4679W        W23533  10.103  15.972   5.211 -0.1463 -0.0127  0.1072
 4680W        W23534  16.242   2.794   0.261 -0.1588  0.0765 -0.0389
 4681W        W23535   3.407  12.563   3.116  0.0567  0.0404  0.0326
 4682W        W23536   6.535  17.045  11.473  0.0472  0.0052 -0.2303
 4683W        W23537  14.653   8.192  12.150 -0.2679 -0.1280 -0.0938
 4684W        W23538  15.022   8.380   3.366 -0.3062 -0.4320 -0.0195
 4685W        W23539  16.132   5.927   1.232  0.3902 -0.1758 -0.2522
 4686W        W23540  10.473  16.217   0.011 -0.2458 -0.0735 -0.2205
 4687W        W23541  16.952   3.120  13.916  0.1230  0.2294  0.4706
 4688W        W23542   9.279   6.829   4.882  0.0170  0.2987  0.1840
 4689W        W23543  10.194   3.237  13.050  0.0163 -0.0705  0.2349
 4690W        W23544   7.298  11.571   1.442  0.1799  0.2138 -0.3431
 4691W        W23545  12.223  17.499  14.462  0.2969 -0.3621 -0.0124
 4692W        W23546   1.169   3.354   4.301 -0.1150 -0.1917 -0.0091
 4693W        W23547   2.089  11.525   1.129 -0.0885  0.1961  0.4770
 4694W        W23548   9.395  15.348   3.324  0.1448  0.1927 -0.3277
 4695W        W23549   0.674   5.669   3.933 -0.2095 -0.0605  0.0597
 4696W        W23550  11.617  12.476  14.170 -0.3390 -0.0116  0.0502
 4697W        W23551   8.681  15.917  13.725  0.0147 -0.0245 -0.2541
 4698W        W23552  10.002   9.927   1.621 -0.2138  0.0620  0.3775
 4699W        W23553  18.874  17.623  11.358 -0.0622 -0.3545  0.2652
 4700W        W23554  16.918   1.198   1.179  0.1102 -0.0872  0.0757
 4701W        W23555  17.836  12.850  11.462 -0.3406  0.4398  0.0430
 4702W        W23556   0.223   6.230   2.958 -0.2848  0.1507 -0.2230
 4703W        W23557  16.530   5.309   0.023  0.1443  0.0074 -0.1747
 4704W        W23558  14.826  14.194   2.039  0.2702  0.1539  0.0149
 4705W        W23559  12.727  13.638  13.966  0.0556 -0.0217  0.2293
 4706W        W23560   4.621   5.646  10.344  0.0416 -0.2203  0.0859
 4707W        W23561  16.239   7.781  13.542  0.0482 -0.0208  0.1503
 4708W        W23562  11.071  11.832   1.193  0.2611  0.2779  0.0273
 4709W        W23563  17.175   3.507  12.814  0.3479  0.2261 -0.1104
 4710W        W23564  13.071   4.357   3.393  0.0210 -0.1796  0.3266
 4711W        W23565   1.483   4.502   2.536  0.0732  0.1559 -0.2646
 4712W        W23566   5.163  11.158  12.228  0.1052 -0.0031 -0.1925
 4713W        W23567   5.210  11.444   3.399  0.0892  0.1128 -0.4187
 4714W        W23568   0.588   4.487   1.975  0.1032  0.3513  0.3238
 4715W        W23569  15.990  10.261  13.391  0.0664  0.1685 -0.0275
 4716W        W23570   0.023   9.477  14.109  0.2204  0.1896 -0.0960
 4717W        W23571   7.438   7.615   0.275 -0.0347  0.3627  0.0595
 4718W        W23572  15.415  10.273  12.616 -0.0026  0.1566 -0.0977
 4719W        W23573   4.280  10.999   0.776  0.1052  0.1685 -0.2811
 4720W        W23574   1.067   0.477   2.995  0.2041  0.0920  0.1368
 4721W        W23575   9.272   2.529  13.774  0.1128  0.0433  0.0146
 4722W        W23576  11.716  18.803   2.856  0.4517 -0.2853 -0.0050
 4723W        W23577   6.932  13.833   0.588 -0.2789  0.3769 -0.1414
 4724W        W23578  12.753  15.969   3.587 -0.1231  0.0971  0.2580
 4725W        W23579  15.751   6.174   3.798 -0.4832  0.0972 -0.0089
 4726W        W23580   2.438   9.808   0.090  0.1991  0.2287 -0.4262
 4727W        W23581   7.631   2.517   0.372  0.0969 -0.0343 -0.0650
 4728W        W23582   1.417  13.073   2.470 -0.3756 -0.0577  0.0123
 4729W        W23583   3.513   0.615  11.735 -0.1190  0.0504 -0.1172
 4730W        W23584   6.637   5.806  11.603 -0.1065 -0.1257 -0.3108
 4731W        W23585  10.994   9.595   4.514  0.0339  0.0108 -0.0951
 4732W        W23586   9.054   0.384   2.586 -0.1543 -0.1891  0.1514
 4733W        W23587   6.792  17.652  14.706 -0.1306 -0.1594 -0.3342
 4734W        W23588   6.493   9.706   3.979  0.2154  0.1624 -0.1166
 4735W        W23589  14.949   8.435   4.181  0.1165  0.4763  0.0149
 4736W        W23590   0.248   3.625   3.796  0.1447 -0.0524 -0.0170
 4737W        W23591  16.280  18.961  14.141  0.2416  0.1322 -0.1311
 4738W        W23592   9.367  14.172   3.316 -0.1167 -0.0592 -0.0386
 4739W        W23593  17.861   2.003  12.472  0.0724 -0.2640  0.0161
 4740W        W23594   9.187  16.522   1.810 -0.2086  0.0849 -0.2693
 4741W        W23595   3.157  18.451   2.025 -0.0828 -0.2312  0.1123
 4742W        W23596   1.141   4.916   0.190  0.1745 -0.2187  0.0567
 4743W        W23597  10.725  18.667   4.049 -0.0094  0.4059  0.1722
 4744W        W23598  14.801   5.904   2.987 -0.0362  0.0822  0.0895
 4745W        W23599   1.962   9.467  11.273 -0.2954  0.1936 -0.1112
 4746W        W23600   0.498   1.178   3.535 -0.0832  0.1860 -0.0032
 4747W        W23601   3.081  18.889  14.762 -0.1801 -0.1727 -0.0516
 4748W        W23602  18.886   3.750   2.813 -0.3022 -0.2772  0.1100
 4749W        W23603   4.033  18.747  14.371 -0.1895 -0.0407 -0.0482
 4750W        W23604  12.141   8.257  13.281 -0.0472 -0.0725  0.3035
 4751W        W23605  15.195  18.528   1.586 -0.1942 -0.3702  0.1423
 4752W        W23606   6.681   4.273   0.820  0.0631  0.2305 -0.2357
 4753W        W23607   2.380   8.122   3.232  0.0210  0.1522 -0.3560
 4754W        W23608  14.698   5.029  11.106 -0.2413  0.0907 -0.1602
 4755W        W23609  15.444   8.850   9.869 -0.0583 -0.0317  0.2633
 4756W        W23610  12.012   1.819  12.247 -0.0134 -0.0337  0.3784
 4757W        W23611  17.944  15.787   2.906 -0.0282 -0.0510  0.2279
 4758W        W23612  14.595  18.640   2.005 -0.0886  0.3470 -0.1444
 4759W        W23613   0.456  15.294  12.763  0.2587 -0.2379 -0.1315
 4760W        W23614   0.288   6.538  14.441  0.0522  0.0412  0.1861
 4761W        W23615  11.709  15.234   1.849  0.2987  0.1482 -0.1296
 4762W        W23616  14.350   0.475  14.777 -0.5291 -0.3654 -0.1088
 4763W        W23617  18.118  11.005  12.363 -0.1082  0.0052  0.2402
 4764W        W23618  12.920   4.666   0.815  0.1128  0.2495  0.1767
 4765W        W23619  14.735  11.314   0.707  0.0854  0.0762 -0.1031
 4766W        W23620   1.595  11.426   3.589  0.2539 -0.0883 -0.2327
 4767W        W23621   3.759  12.764   2.682  0.0937  0.0621 -0.0857
 4768W        W23622   7.797   0.196  10.854  0.0032 -0.0745  0.0427
 4769W        W23623   5.930  17.782   3.607 -0.1877 -0.2417  0.0975
 4770W        W23624   9.891   6.361  12.962  0.1347 -0.1024 -0.0474
 4771W        W23625   1.144   5.865  12.260  0.1476 -0.3775  0.1943
 4772W        W23626  18.095  13.315  13.815  0.2095 -0.2772  0.0954
 4773W        W23627   1.268  12.603   3.755  0.2864  0.2298 -0.0670
 4774W        W23628  13.554   0.743  12.603 -0.1011  0.0902  0.3809
 4775W        W23629   0.292   3.484  12.086 -0.0580 -0.1494  0.0650
 4776W        W23630  14.540   0.955  12.401 -0.1129  0.0907  0.0311
 4777W        W23631  19.124  16.186   0.068 -0.2021 -0.0905  0.1972
 4778W        W23632  17.572   1.295  10.307  0.3651  0.2240  0.4168
 4779W        W23633   1.822   5.493   3.173  0.2715  0.4181 -0.0537
 4780W        W23634  13.592   9.173  14.486 -0.2010 -0.0336  0.1589
 4781W        W23635   7.607   0.072  14.123  0.1790  0.0300 -0.1324
 4782W        W23636  12.697  18.751  12.421 -0.0157  0.0046  0.1329
 4783W        W23637   9.905   7.313  13.900  0.4060 -0.1694 -0.2026
 4784W        W23638  11.316   5.748  13.842 -0.0318 -0.3148  0.1100
 4785W        W23639   2.330   0.678  12.178  0.0712 -0.2316  0.2654
 4786W        W23640  14.839   9.519   3.429  0.0202 -0.2342  0.0196
 4787W        W23641  11.082  14.039  13.926 -0.1783 -0.3261  0.5581
 4788W        W23642  13.674   9.849   0.453 -0.1293  0.2277 -0.3425
 4789W        W23643   9.758   1.970   2.512 -0.4119 -0.1339 -0.1304
 4790W        W23644  11.908   7.978   0.607  0.4168  0.0104 -0.0982
 4791W        W23645  15.297   9.268  13.581  0.1125 -0.1708  0.1832
 4792W        W23646  12.717  16.246   0.403  0.0988  0.2455 -0.2225
 4793W        W23647   4.823   6.203  14.599 -0.0454  0.2291  0.2513
 4794W        W23648  16.196  13.672  14.415  0.2107  0.2717 -0.1368
 4795W        W23649  18.486   6.587   0.834  0.0180  0.1589 -0.3192
 4796W        W23650  13.952   9.178  12.231  0.1752 -0.0629  0.0583
 4797W        W23651  13.049   5.823  12.218 -0.0516  0.0310  0.1382
 4798W        W23652   8.059   1.839  14.788 -0.1383 -0.0582  0.3755
 4799W        W23653  10.871   3.717   1.529 -0.1948  0.2062  0.3053
 4800W        W23654   1.376   1.574  13.842  0.0158  0.1110 -0.0061
 4801W        W23655  14.007   0.672   0.625 -0.2155  0.0971  0.0070
 4802W        W23656  11.561  14.975  13.466  0.2986 -0.0436  0.3491
 4803W        W23657  15.196  17.079   2.243 -0.1013 -0.1565  0.0966
 4804W        W23658   7.832   5.833   4.233 -0.0960  0.0420  0.0830
 4805W        W23659   0.881   0.653  12.697  0.0323 -0.1748 -0.1842
 4806W        W23660   5.496  11.124   2.711  0.2305  0.0032 -0.1168
 4807W        W23661  17.840   4.974  13.112  0.2825  0.2433 -0.1548
 4808W        W23662   7.717   8.934  12.125 -0.0745  0.0566  0.0485
 4809W        W23663  18.838   7.861   3.299  0.1317 -0.1220 -0.0294
 4810W        W23664  10.210  13.824   0.592  0.2887 -0.2648  0.2447
 4811W        W23665  18.282   6.590  12.248 -0.1419  0.0809  0.5090
 4812W        W23666  15.065  12.872  12.436  0.0034 -0.0388 -0.0132
 4813W        W23667  15.773  17.623  13.569  0.0442 -0.0262 -0.0855
 4814W        W23668  10.195   7.315  13.504 -0.3390 -0.1294  0.1231
 4815W        W23669   9.527   7.143   0.704  0.0111 -0.0147 -0.1883
 4816W        W23670  12.164  19.013   0.623  0.3005  0.2600  0.1562
 4817W        W23671   5.067  15.898   0.328 -0.2062 -0.0972 -0.0305
 4818W        W23672  14.526   2.210  11.168 -0.3026 -0.0922 -0.0586
 4819W        W23673   2.921  14.127   3.428 -0.1873 -0.0841 -0.0989
 4820W        W23674  14.244  15.359  12.669  0.0449 -0.3297 -0.0324
 4821W        W23675  12.573  14.712  14.525 -0.2559  0.2192  0.3192
 4822W        W23676  10.818   8.902   3.977  0.0566  0.3080  0.0539
 4823W        W23677   1.876  13.017  10.779  0.0136  0.2793 -0.0149
 4824W        W23678   4.422   4.506  12.202 -0.1376  0.3954  0.2354
 4825W        W23679   7.024  14.922   3.974  0.2784 -0.2045  0.4824
 4826W        W23680   4.000   3.655   1.141 -0.0615 -0.1545  0.1077
 4827W        W23681   6.372   8.773  14.473 -0.0447 -0.0868 -0.0901
 4828W        W23682   6.492   9.043  12.760 -0.1886 -0.5117 -0.1676
 4829W        W23683  18.400  19.114   3.898 -0.2652 -0.2953 -0.0252
 4830W        W23684  14.187   0.170  13.231  0.0649  0.0442  0.0763
 4831W        W23685   1.391  12.671   1.229 -0.1515  0.0534  0.0677
 4832W        W23686   7.932   7.815   4.256  0.0156 -0.1766  0.1028
 4833W        W23687  11.723   6.725   0.045  0.0199 -0.0769  0.0610
 4834W        W23688  19.000  12.165  14.485  0.4889  0.0295  0.0276
 4835W        W23689   2.828   4.505   2.852  0.1803 -0.0436 -0.0406
 4836W        W23690   2.252  11.714  14.512 -0.1463 -0.2632  0.1983
 4837W        W23691   1.570   5.606   1.555 -0.2157  0.0753  0.1130
 4838W        W23692  14.086  16.553   2.778 -0.5128  0.3579 -0.0544
 4839W        W23693  14.062  13.514   0.536 -0.0448  0.1251  0.1978
 4840W        W23694   3.359  16.392   3.756  0.0451  0.0435  0.1076
 4841W        W23695   1.973  17.023   2.843 -0.2150 -0.0046 -0.2923
 4842W        W23696  14.179   2.789   4.272  0.0052  0.0839 -0.2739
 4843W        W23697  17.430  14.099  11.196 -0.1170 -0.2622  0.0529
 4844W        W23698   8.633  10.818  12.264  0.0110 -0.0798  0.1860
 4845W        W23699  16.136  14.230  10.737  0.0615  0.2047  0.0178
 4846W        W23700   8.617   8.039  14.032 -0.2278  0.3543  0.1075
 4847W        W23701  11.754  14.972   1.436  0.0334  0.1754 -0.3621
 4848W        W23702  17.672  15.715  11.954  0.2192  0.0580 -0.4960
 4849W        W23703   0.201   3.819  11.595 -0.1537  0.0959 -0.1832
 4850W        W23704  11.527  17.958   0.171  0.0637 -0.0682  0.3209
 4851W        W23705   5.006  10.440  14.231 -0.1522 -0.1268 -0.1697
 4852W        W23706  18.414   4.451  12.072  0.2812 -0.0487  0.2432
 4853W        W23707  17.021   2.048   3.682  0.1845 -0.0334 -0.2034
 4854W        W23708  18.961   2.604  13.736 -0.1825 -0.1802  0.0642
 4855W        W23709  16.767   1.679  12.841 -0.2295  0.0741  0.5234
 4856W        W23710  11.138   7.559   0.015  0.0008  0.4380  0.1880
 4857W        W23711  19.010   5.160   2.946 -0.0134  0.0856  0.3151
 4858W        W23712  15.328   7.706  13.756 -0.5702  0.1716  0.1283
 4859W        W23713  10.450  12.429  13.142  0.1729 -0.1929  0.2018
 4860W        W23714   4.980  18.336   4.861  0.1104 -0.0056  0.0508
 4861W        W23715  11.013  13.254  10.163  0.3070  0.0240  0.1967
 4862W        W23716   6.551   0.430  14.541  0.3339 -0.0550 -0.1256
 4863W        W23717  18.257  17.441   4.752 -0.1836 -0.0660 -0.2828
 4864W        W23718   1.495  16.380  12.467  0.3554  0.1005 -0.4113
 4865W        W23719  12.487   1.030  11.747 -0.1301 -0.0217 -0.0223
 4866W        W23720  16.746   5.873  10.621 -0.1129  0.1078  0.3526
 4867W        W23721   7.933  13.842   3.480  0.0132  0.0060 -0.1782
 4868W        W23722   3.429  11.544  12.580 -0.1204 -0.0594  0.0663
 4869W        W23723   9.725  18.542   4.012 -0.0253 -0.0668  0.0409
 4870W        W23724   8.820  13.566  10.653 -0.2686  0.0178 -0.3058
 4871W        W23725  19.122  12.938   3.973  0.2636 -0.1896  0.0347
 4872W        W23726  11.672   3.215  13.734  0.2606  0.2537 -0.4594
 4873W        W23727   0.644  15.809   1.488  0.0764 -0.2337 -0.0018
 4874W        W23728  17.916  17.329   2.002 -0.2427  0.1761  0.0236
 4875W        W23729  16.606  11.781   3.674  0.3918  0.2343  0.1432
 4876W        W23730   4.987   0.115  12.108 -0.0234  0.3096 -0.3504
 4877W        W23731  10.657  12.063  12.896  0.1378 -0.0195 -0.1493
 4878W        W23732  15.104  12.334  14.312 -0.1364 -0.2597  0.0794
 4879W        W23733  11.492  12.520  13.046 -0.0415 -0.0380  0.4137
 4880W        W23734   6.450   0.910   3.587 -0.2044 -0.0698  0.1913
 4881W        W23735  15.266   4.395   4.012 -0.0684 -0.3117  0.1978
 4882W        W23736  17.735  18.257  11.182  0.0286  0.1787  0.2085
 4883W        W23737   0.151  15.167  13.388  0.2367  0.0738  0.0335
 4884W        W23738   9.820  11.720   1.923  0.3392  0.2196 -0.3443
 4885W        W23739  10.156  12.421   1.374  0.1730  0.1172  0.1005
 4886W        W23740   7.378  16.522   0.783  0.1385  0.2478  0.0649
 4887W        W23741  12.947  18.191  14.723 -0.2451 -0.0742  0.0536
 4888W        W23742   9.251   2.775   0.263 -0.2414  0.0810  0.1187
 4889W        W23743  11.682  15.463   1.356 -0.2905 -0.0647 -0.3026
 4890W        W23744   1.940  11.937   0.913 -0.0690  0.1498  0.0198
 4891W        W23745   8.003   0.334  13.741 -0.0170  0.0155  0.3293
 4892W        W23746  14.614   5.572  13.451  0.1632 -0.2660  0.1116
 4893W        W23747  15.827   2.492  13.903  0.0573  0.4077 -0.2082
 4894W        W23748  12.318  16.141   3.708 -0.3975 -0.4308 -0.0101
 4895W        W23749  19.045   5.037  12.466  0.3672  0.1655 -0.1296
 4896W        W23750  12.848  16.695  12.731  0.0695  0.1203 -0.0435
 4897W        W23751   5.901   8.967   3.518 -0.2309  0.1144 -0.2071
 4898W        W23752   0.820  11.861  12.757 -0.0865 -0.0330 -0.3211
 4899W        W23753   7.838   7.292  10.516 -0.2402  0.1225 -0.1628
 4900W        W23754  18.150   5.349  13.408  0.2206 -0.2095 -0.1168
 4901W        W23755   8.289   5.833   4.001  0.0197 -0.2030  0.1666
 4902W        W23756   3.755   8.165   1.435  0.5209  0.0354 -0.1581
 4903W        W23757   0.738   3.061  11.375 -0.0123  0.1164 -0.0600
 4904W        W23758  17.682   3.657  11.160 -0.4208  0.2085  0.1768
 4905W        W23759   9.671  16.189  14.116 -0.0657 -0.1596 -0.2370
 4906W        W23760  14.632   9.582  14.283  0.1276  0.2127  0.3053
 4907W        W23761  16.600   6.363  13.310 -0.1046 -0.3691  0.1334
 4908W        W23762   2.715  15.976  11.875 -0.3528  0.1543  0.2950
 4909W        W23763  10.817   2.320  12.036  0.0395  0.1030 -0.0576
 4910W        W23764   0.617  13.301   0.244  0.2387 -0.0540  0.3898
 4911W        W23765  14.552  10.297   3.108 -0.1085  0.1742  0.2770
 4912W        W23766   2.159   0.768  10.305  0.0090 -0.2461 -0.0087
 4913W        W23767  16.990   0.900  11.303  0.0106 -0.2055  0.0272
 4914W        W23768   1.500   8.507   2.977  0.1912  0.1356  0.2276
 4915W        W23769  14.410   1.966   2.619  0.0290 -0.1410  0.1083
 4916W        W23770   8.695  13.193  14.514 -0.0081  0.2324 -0.3560
 4917W        W23771  19.123   9.145   3.891  0.0737 -0.2388  0.0449
 4918W        W23772   1.185   1.058   2.958  0.2773  0.2137  0.1764
 4919W        W23773  18.715  14.630   4.365  0.1469 -0.1557 -0.0274
 4920W        W23774  17.689   9.172   1.301  0.1239 -0.1655  0.1686
 4921W        W23775  14.722  15.648   4.137 -0.0013 -0.1770  0.0088
 4922W        W23776   6.386   7.218   0.063  0.0628 -0.1321  0.1416
 4923W        W23777   3.817   7.105   3.488  0.0141  0.5780 -0.1875
 4924W        W23778  10.030   7.895   1.628 -0.0169  0.1570  0.0947
 4925W        W23779  12.384   9.161  13.562 -0.2505 -0.0210 -0.1663
 4926W        W23780  14.367   2.618  10.745  0.4721 -0.0802  0.0788
 4927W        W23781   4.198  14.976   0.936  0.1951 -0.0188 -0.5325
 4928W        W23782  10.414  17.983  14.237 -0.1794 -0.1723 -0.1054
 4929W        W23783  15.028   4.620   1.842  0.0795 -0.1048 -0.0975
 4930W        W23784   2.454  18.883  11.800 -0.2080 -0.3205  0.0373
 4931W        W23785  10.074   2.725   2.717 -0.1075  0.4103 -0.3100
 4932W        W23786  11.474   2.661   0.395  0.1534  0.0185  0.1143
 4933W        W23787  15.251   3.205   0.156  0.2112  0.2094 -0.0888
 4934W        W23788   1.488  17.699   1.641  0.1668 -0.1776 -0.2265
 4935W        W23789   3.258  16.914   4.663 -0.0165 -0.1880 -0.2078
 4936W        W23790   7.448  17.311  11.414 -0.1790  0.0014  0.2583
 4937W        W23791   9.970  14.694  14.307  0.1756  0.2777  0.2515
 4938W        W23792   0.394   9.598   3.225  0.2474 -0.0389 -0.0497
 4939W        W23793   4.994  10.472   2.973 -0.2120  0.1363 -0.0126
 4940W        W23794  15.213   1.511   2.985 -0.3841 -0.5173  0.2084
 4941W        W23795   3.041  15.673  13.282  0.0150  0.0867 -0.2253
 4942W        W23796  10.461  15.437  12.817 -0.0547 -0.0023  0.2709
 4943W        W23797  12.576   1.435  14.322  0.0023  0.4603  0.0737
 4944W        W23798   6.303  10.251  13.042 -0.0797  0.0434 -0.1370
 4945W        W23799   6.123  12.931  10.847 -0.1915  0.0062  0.0343
 4946W        W23800  12.969   5.855   1.159  0.0358 -0.1753  0.0380
 4947W        W23801   0.558  10.087  12.690  0.4770 -0.0381  0.0401
 4948W        W23802  15.271   5.315   0.788  0.1237  0.2153 -0.0457
 4949W        W23803  15.823   5.964  13.006  0.0393 -0.0853 -0.1338
 4950W        W23804  11.311  19.098   2.356 -0.1230 -0.0101 -0.0030
 4951W        W23805  11.671  15.490  12.137 -0.1182 -0.0051 -0.4205
 4952W        W23806  15.586   0.243  10.656  0.2533  0.1497  0.0075
 4953W        W23807  14.643  14.045  10.914 -0.2244  0.0948 -0.3883
 4954W        W23808  16.311   0.732   2.567 -0.1249 -0.3482 -0.1357
 4955W        W23809   3.849   2.186   0.062 -0.4108 -0.0615 -0.2006
 4956W        W23810   9.936   6.290   0.979  0.0030  0.0344  0.0403
 4957W        W23811   0.176  14.213  13.641  0.2164 -0.1677  0.1199
 4958W        W23812   5.202  12.935   1.730  0.0945 -0.2298  0.0708
 4959W        W23813  17.134  14.731   2.667 -0.1478 -0.0896 -0.2231
 4960W        W23814  16.331   8.930  11.496  0.2673 -0.0099 -0.0487
 4961W        W23815   6.446   4.714  13.916  0.2720  0.1112  0.1992
 4962W        W23816  10.423  17.362  12.696 -0.2159  0.1938  0.2363
 4963W        W23817   4.879   2.650  13.105 -0.0175  0.1771 -0.1158
 4964W        W23818   2.159   6.929  10.664  0.1055  0.0853 -0.1041
 4965W        W23819  11.477   5.562  12.464 -0.0638  0.1163 -0.1641
 4966W        W23820   3.384  16.611  12.816  0.2022 -0.0057  0.0751
 4967W        W23821  12.177   0.286  14.545  0.1247 -0.0267  0.1238
 4968W        W23822  14.783  16.888   1.020 -0.0156 -0.3281  0.1035
 4969W        W23823   4.536  11.202   1.348  0.0377  0.0549 -0.4337
 4970W        W23824   5.107  18.111   4.415 -0.1924  0.0154 -0.0361
 4971W        W23825  13.468   7.137  14.468  0.0346  0.0130 -0.2240
 4972W        W23826   6.448  16.484  10.354 -0.0832 -0.0343  0.0576
 4973W        W23827   0.790  13.211  13.432 -0.1610  0.2049  0.1383
 4974W        W23828   7.626  14.693   0.393 -0.0496 -0.1821 -0.3151
 4975W        W23829  18.454   2.544  13.689  0.2811 -0.2066  0.0139
 4976W        W23830  12.890   1.073   1.100 -0.2005 -0.1665 -0.1785
 4977W        W23831   5.850  15.349   4.649  0.0636 -0.2649 -0.1324
 4978W        W23832   1.691  13.561   2.999 -0.0326  0.2593  0.0725
 4979W        W23833   5.033  15.873  13.005  0.1501 -0.1418 -0.0099
 4980W        W23834  15.800   4.300   1.174 -0.0579  0.2223 -0.0426
 4981W        W23835   7.936   1.157  12.618  0.2633 -0.1166 -0.0266
 4982W        W23836   6.357   0.370  10.142  0.4502  0.1084 -0.2704
 4983W        W23837   1.464   2.749  11.353  0.1005  0.1680 -0.1321
 4984W        W23838   4.948   5.881  14.263 -0.1138  0.1605  0.1025
 4985W        W23839  18.041   9.840  10.980 -0.0587  0.1064  0.1548
 4986W        W23840  17.015  15.941   4.324  0.3758 -0.0175 -0.0825
 4987W        W23841   0.895  10.867   4.325  0.1102 -0.1718 -0.0743
 4988W        W23842   0.327  19.019  14.151  0.3044 -0.0063 -0.0335
 4989W        W23843  15.327   6.586   0.565  0.1303  0.2437  0.1169
 4990W        W23844   9.344   4.437   0.827 -0.0735 -0.1154 -0.0673
 4991W        W23845   6.368   6.687   2.139  0.1300  0.1673 -0.1365
 4992W        W23846   5.463  18.165   1.925 -0.0180  0.1618 -0.1544
 4993W        W23847   3.563  15.056   1.706 -0.0072 -0.0397 -0.0832
 4994W        W23848   2.204  11.997   1.382 -0.1000  0.0561  0.1412
 4995W        W23849  14.819   3.949  10.774 -0.0615  0.0317  0.1457
 4996W        W23850  14.537   2.372  13.233 -0.1592  0.2598 -0.3064
 4997W        W23851  18.434   4.657   1.742  0.0762  0.0719  0.1134
 4998W        W23852   0.857  13.866  14.725  0.0337 -0.3763 -0.1178
 4999W        W23853  13.652  14.832   1.756 -0.1091 -0.2180  0.3392
 5000W        W23854   8.310  11.507  13.847  0.2944 -0.1148  0.2422
 5001W        W23855  10.951  11.815  11.249  0.2262  0.0990  0.1429
 5002W        W23856  13.992  16.369   1.741 -0.0300  0.2537 -0.0537
 5003W        W23857  18.417   3.904   3.299  0.1041 -0.3631 -0.4194
 5004W        W23858   5.608   6.336   4.007 -0.0509 -0.1390  0.0229
 5005W        W23859  17.840   5.268   4.008 -0.0381 -0.0622  0.1487
 5006W        W23860   4.757   9.744  12.072  0.0589 -0.2564 -0.2964
 5007W        W23861   3.436   5.339   1.983  0.2680 -0.0382  0.1515
 5008W        W23862   9.425  15.810  11.685  0.3354 -0.1173  0.2497
 5009W        W23863   7.674   1.328  12.108  0.2749  0.1474  0.0654
 5010W        W23864  18.128   5.167  11.737  0.0265 -0.0241  0.0229
 5011W        W23865  14.885  13.018   2.191 -0.3532 -0.2828  0.1303
 5012W        W23866   0.196   5.675   0.704 -0.1041  0.1618  0.1331
 5013W        W23867   8.815  13.060   0.235 -0.0008 -0.2127  0.3448
 5014W        W23868   7.265  16.999  14.196  0.0655  0.1901 -0.0270
 5015W        W23869   1.151  17.993  13.313  0.1919 -0.1487 -0.0513
 5016W        W23870   7.136  10.861  14.038  0.3480  0.1515 -0.1475
 5017W        W23871   5.547  17.276   0.453  0.1669  0.2017 -0.3737
 5018W        W23872  14.241   7.342  13.978  0.1405  0.0642 -0.0803
 5019W        W23873   6.874  13.163   0.138 -0.1320 -0.2699 -0.0756
 5020W        W23874  12.339  11.890   4.201  0.1099  0.3157 -0.1506
 5021W        W23875  17.835   2.282  11.363 -0.1886 -0.1170  0.1221
 5022W        W23876  13.008  16.189   3.171  0.3536  0.0226 -0.0455
 5023W        W23877  15.701   8.058  11.824  0.0897 -0.1262  0.0787
 5024W        W23878  10.169  12.038   3.694  0.1776  0.2129  0.2123
 5025W        W23879  15.911   0.121  13.403 -0.3307  0.0809 -0.0674
 5026W        W23880  15.312  13.066  10.929 -0.0292  0.0354 -0.2428
 5027W        W23881  11.094  12.217  11.478 -0.1435  0.1270  0.2948
 5028W        W23882   4.060  14.236   0.610  0.3224  0.0945 -0.1077
 5029W        W23883  15.995   7.450   2.098 -0.1679 -0.2413  0.3611
 5030W        W23884  13.825   6.345   0.875 -0.1521  0.3587  0.2936
 5031W        W23885   3.814  11.720   2.543  0.1615 -0.3185  0.0871
 5032W        W23886   0.046   2.813   3.017  0.3006 -0.0127 -0.1514
 5033W        W23887  17.890   8.204  11.368 -0.0544  0.1355 -0.2321
 5034W        W23888  18.374   5.146  14.043  0.2162 -0.1916 -0.0662
 5035W        W23889   0.024  14.241  14.558  0.3691 -0.2276  0.0278
 5036W        W23890   8.695   1.254   0.761 -0.0368  0.1141  0.0397
 5037W        W23891   9.661   4.814   9.476  0.0961  0.1821  0.0418
 5038W        W23892   1.875   2.592   0.637 -0.0203  0.0247 -0.1429
 5039W        W23893   9.396   8.917   3.705  0.1661  0.0115  0.2025
 5040W        W23894   6.511  18.966   4.345 -0.0705 -0.3188 -0.4351
 5041W        W23895   5.936   2.628  11.920  0.2328 -0.7231  0.0251
 5042W        W23896  14.256  15.035  11.764  0.1305  0.0229 -0.0225
 5043W        W23897  10.167   7.249  12.316 -0.0155 -0.0373  0.0090
 5044W        W23898   9.693  12.435   1.165 -0.2481  0.0182  0.0737
 5045W        W23899   8.445   1.680   2.431  0.0756 -0.2011 -0.1607
 5046W        W23900   3.802  12.502   1.272  0.0337 -0.2988 -0.1579
 5047W        W23901   8.967  18.106   2.892  0.1911 -0.0335 -0.1513
 5048W        W23902  18.636   4.476  12.963 -0.0337  0.0932  0.0839
 5049W        W23903  10.183   1.463  12.496  0.0680  0.0383  0.0830
 5050W        W23904   3.965  13.121   2.389 -0.1064 -0.1047  0.0240
 5051W        W23905   9.687   1.929   0.207  0.2651 -0.3149  0.3892
 5052W        W23906  15.343   3.129  12.401 -0.0885  0.1029 -0.2594
 5053W        W23907  13.633  17.720  13.161  0.2215 -0.1592 -0.1560
 5054W        W23908  10.122   1.143  11.705 -0.0064 -0.2128  0.0395
 5055W        W23909  15.393   2.044   2.951  0.2067 -0.1300  0.0250
 5056W        W23910  13.485   3.321   3.451  0.1402 -0.6990  0.2609
 5057W        W23911  11.751  12.944  11.479 -0.1804  0.2595 -0.1049
 5058W        W23912   5.299   7.261   1.079  0.1062  0.2251  0.3259
 5059W        W23913  15.652   6.214  10.967 -0.2254  0.1334 -0.0053
 5060W        W23914   0.435  11.536  12.666 -0.1235  0.1112  0.2156
 5061W        W23915  16.979   6.887  11.127 -0.0180  0.0076  0.1237
 5062W        W23916   8.367  10.679   4.307 -0.0805  0.0031 -0.1898
 5063W        W23917  15.241   8.057   2.354 -0.0398  0.0721 -0.0560
 5064W        W23918  13.188   1.855   0.334  0.0733  0.2098 -0.2204
 5065W        W23919   7.161   3.321  14.500 -0.4432 -0.1226  0.2043
 5066W        W23920  10.695  13.284  10.537  0.0868  0.0907  0.0110
 5067W        W23921  11.132   4.895   1.577 -0.2702  0.2824  0.3238
 5068W        W23922   6.794  18.550   3.310  0.1840  0.0885  0.2681
 5069W        W23923  14.973  10.818   0.865  0.0563  0.1868 -0.0271
 5070W        W23924  18.439  13.795   2.521 -0.1788  0.4148  0.0303
 5071W        W23925   5.338   3.820   2.352 -0.0487  0.1670  0.2078
 5072W        W23926  15.244   4.526  13.334 -0.0040  0.1390 -0.0560
 5073W        W23927   7.836  12.813  14.090  0.0791 -0.1204  0.2995
 5074W        W23928  16.402   7.436  14.207  0.1291 -0.2438  0.0286
 5075W        W23929   1.622   8.624   3.425  0.0634  0.1800 -0.1450
 5076W        W23930   1.957  10.325  14.651 -0.2095  0.0470  0.1002
 5077W        W23931   6.061  15.081   3.387 -0.1352  0.0896  0.0362
 5078W        W23932   0.410  12.800   0.119 -0.3315 -0.2040  0.0756
 5079W        W23933   1.418  18.062  12.666  0.1372 -0.0452  0.2142
 5080W        W23934   5.267   4.292   1.494  0.0700  0.0301  0.1984
 5081W        W23935  12.913  16.642  10.584 -0.3468  0.0113  0.3458
 5082W        W23936  12.978  16.598  12.099  0.2076 -0.0123 -0.1495
 5083W        W23937  18.135   2.614   3.382  0.0270  0.1169 -0.0442
 5084W        W23938   1.385  18.974   3.866 -0.1178 -0.0876 -0.5370
 5085W        W23939  12.595   1.488   0.420  0.2451 -0.0643  0.0158
 5086W        W23940  17.285   5.400   0.666 -0.2127  0.3508  0.2351
 5087W        W23941   0.869  13.692   3.276 -0.0343  0.2537  0.1487
 5088W        W23942   5.996  16.231  10.486  0.0932 -0.1605 -0.0156
 5089W        W23943   9.353   7.863  13.612  0.1226  0.1450 -0.1317
 5090W        W23944   1.746   0.756   3.895  0.2088 -0.4076  0.2486
 5091W        W23945   6.641  18.116  12.525  0.1763  0.1262 -0.2533
 5092W        W23946   0.968   0.514  10.719 -0.2437 -0.0909 -0.0874
 5093W        W23947   8.672   4.383  12.714 -0.0213  0.0666  0.0049
 5094W        W23948   2.877  17.498   4.176  0.2059 -0.2458 -0.0019
 5095W        W23949   3.068  13.984   1.785  0.0600  0.0904  0.1897
 5096W        W23950   9.991  13.130   3.913 -0.0271  0.3947  0.0580
 5097W        W23951  12.115  14.515   3.891 -0.0334  0.2105  0.0830
 5098W        W23952  11.204  11.536   0.259  0.0447  0.1305 -0.0254
 5099W        W23953  17.241  10.334  13.598  0.0632  0.3675 -0.1264
 5100W        W23954  15.921   4.420   2.055  0.0491  0.0924 -0.0008
 5101W        W23955   4.540  12.930  13.790  0.1535 -0.0282 -0.1530
 5102W        W23956   3.741   7.561   3.161  0.0487  0.2781 -0.0660
 5103W        W23957   0.791  13.317   4.143  0.1522 -0.1764  0.0154
 5104W        W23958  12.788   8.787  14.107 -0.4254  0.1060  0.0064
 5105W        W23959   2.553  10.175   3.495  0.4094 -0.0383 -0.4622
 5106W        W23960   1.199   4.331   0.275 -0.0826  0.1425 -0.2199
 5107W        W23961   7.488  18.968  10.836  0.2263 -0.2723 -0.1517
 5108W        W23962  18.707   7.315  13.663  0.1036 -0.0901 -0.0573
 5109W        W23963  10.942   4.270   2.280  0.1434  0.1114 -0.3619
 5110W        W23964   6.666  19.100  13.686  0.1936  0.2053  0.1004
 5111W        W23965   1.487   2.336  12.902  0.1106  0.1371 -0.1323
 5112W        W23966  15.279  15.531   3.599 -0.1987  0.1342 -0.0785
 5113W        W23967   1.888   9.530  10.789 -0.0640  0.1773 -0.1573
 5114W        W23968   8.524   8.941   1.824  0.1957  0.0925  0.2025
 5115W        W23969  17.252   2.165  12.831 -0.1275  0.3038  0.2421
 5116W        W23970   8.397   6.154  10.998  0.0485  0.1076  0.3513
 5117W        W23971  11.721   7.548   2.058 -0.0159 -0.0024  0.0890
 5118W        W23972  17.772  14.889  10.699  0.2891  0.1441  0.3365
 5119W        W23973   1.310  17.819  11.044 -0.2323 -0.0980 -0.1937
 5120W        W23974   7.511  18.458   2.935  0.1174 -0.1542 -0.0693
 5121W        W23975   8.565   0.074  12.716 -0.0169 -0.1115  0.0771
 5122W        W23976   0.130   9.813   0.504 -0.0133  0.3265 -0.2504
 5123W        W23977  13.527   3.933  11.662 -0.0844  0.1207  0.2093
 5124W        W23978   5.512   1.903   3.730  0.1192  0.4522 -0.0847
 5125W        W23979  17.853  18.242   2.410  0.0952  0.0614 -0.1007
 5126W        W23980  16.432   2.231   4.056 -0.2474 -0.1893 -0.0669
 5127W        W23981   2.039  11.380   2.549  0.1115 -0.1550 -0.1621
 5128W        W23982  15.874   1.591  11.248  0.1034 -0.1763 -0.0632
 5129W        W23983   2.956  11.647   1.796  0.2797 -0.0018 -0.3439
 5130W        W23984   4.439  12.348   2.052  0.2432  0.2434 -0.0510
 5131W        W23985   7.231   7.156   2.429 -0.2127  0.3602  0.1326
 5132W        W23986  15.702   1.108  11.097 -0.0628 -0.4213  0.1393
 5133W        W23987  16.135   9.695   0.001 -0.0507 -0.1727 -0.0089
 5134W        W23988   6.984  13.215   1.823  0.2065  0.1190 -0.0384
 5135W        W23989  18.308   2.409   0.976 -0.2158 -0.0951  0.1144
 5136W        W23990  12.730   6.703   3.248 -0.0883  0.1256  0.2742
 5137W        W23991  14.536  13.172   0.495  0.2232 -0.1220 -0.0282
 5138W        W23992   4.781  12.447  10.643  0.1434  0.0900 -0.2975
 5139W        W23993   0.211  14.613   3.365  0.1560 -0.0741  0.3681
 5140W        W23994  10.327   0.678  11.239 -0.1013  0.3278 -0.2256
 5141W        W23995  12.478  10.021   4.614 -0.3354  0.2580  0.1271
 5142W        W23996   3.422  11.554   3.408  0.4376  0.3427 -0.0931
 5143W        W23997   2.627   0.524  13.656 -0.0373  0.0359 -0.0756
 5144W        W23998   8.882   6.336  11.220 -0.1551  0.1948 -0.1676
 5145W        W23999   3.481   3.186   3.448 -0.0719 -0.0448 -0.3047
 5146W        W24000  18.852   6.414   3.257  0.3982  0.2161  0.0321
 5147W        W24001   2.378  16.167  13.918 -0.1347  0.2483 -0.1956
 5148W        W24002  18.601   0.826  10.461  0.1461  0.1417 -0.1357
 5149W        W24003  10.790   7.268  11.273 -0.0298  0.0446  0.3074
 5150W        W24004  11.609   9.422  12.672 -0.2883 -0.1565 -0.0221
 5151W        W24005  12.552  16.241  10.415  0.0073  0.0264 -0.0275
 5152W        W24006   9.331   6.894  14.638 -0.2826  0.1969 -0.0857
 5153W        W24007  12.684   2.266   2.236  0.0806  0.1258  0.2227
 5154W        W24008   1.037  13.784   1.925 -0.1748 -0.1053  0.2235
 5155W        W24009  15.034  10.523   2.803 -0.2507  0.2918  0.3563
 5156W        W24010  11.848   8.397   3.137  0.0182 -0.0058  0.0802
 5157W        W24011   0.642   9.105  11.173  0.0917 -0.0905 -0.1472
 5158W        W24012  11.532   9.076   3.037 -0.1434  0.0331  0.1150
 5159W        W24013   9.689   4.403  14.412  0.0283 -0.0479 -0.0040
 5160W        W24014   9.640   7.659  12.947  0.1959 -0.0227 -0.2778
 5161W        W24015  14.572  17.291   2.853 -0.0987 -0.1122  0.2754
 5162W        W24016   4.653   6.735   3.307 -0.2931  0.1298  0.0936
 5163W        W24017   1.784  18.524  11.479  0.0165  0.4196  0.0505
 5164W        W24018  16.948   6.348  12.584 -0.0619  0.1203  0.1032
 5165W        W24019  19.083  17.381   2.253  0.1108  0.1945  0.0357
 5166W        W24020  16.916   6.366   0.375  0.3370  0.1998 -0.3442
 5167W        W24021  10.933   4.206  13.000 -0.0271 -0.1601 -0.0821
 5168W        W24022  10.503   7.107   1.127  0.3192  0.2616  0.1295
 5169W        W24023  12.482  10.765  13.839  0.3240 -0.1248  0.4145
 5170W        W24024   6.172  16.308   1.670  0.1767  0.0669 -0.0041
 5171W        W24025   6.462  12.466  10.853  0.4813 -0.0288  0.0738
 5172W        W24026   8.916   3.406  13.030  0.1730 -0.0908  0.0819
 5173W        W24027   9.599  17.972  14.724  0.1105 -0.0727 -0.0928
 5174W        W24028  14.091   3.792  11.674 -0.1396 -0.4634  0.3584
 5175W        W24029   2.885   8.398   4.146 -0.0543 -0.0355  0.2834
 5176W        W24030   3.857   8.111  10.130 -0.0713  0.1550 -0.0955
 5177W        W24031   1.950  15.509   2.812  0.2153 -0.0173  0.0114
 5178W        W24032   1.659  11.157   0.330  0.2533  0.2441 -0.3322
 5179W        W24033  18.514  14.360  12.415  0.1907 -0.3059  0.0505
 5180W        W24034   3.271  18.203   3.181  0.2210 -0.0021  0.1324
 5181W        W24035  15.690  11.147  12.913  0.1842  0.0838  0.1846
 5182W        W24036  12.914  18.013  12.426 -0.0926  0.0558 -0.0125
 5183W        W24037  14.441  14.897   3.634  0.1935  0.0321 -0.0768
 5184W        W24038   7.349  13.907  13.441 -0.0617  0.1465  0.2365
 5185W        W24039   4.192   0.788   1.877  0.2696  0.0161 -0.0037
 5186W        W24040  12.154  18.442  14.024  0.0258 -0.1392  0.0449
 5187W        W24041   6.574  18.290  14.110 -0.2171 -0.0332 -0.1510
 5188W        W24042  17.154  11.261  10.179  0.2224 -0.2072  0.0090
 5189W        W24043  10.584   9.993   1.570 -0.3204  0.1359 -0.1438
 5190W        W24044  16.917   6.730  11.639  0.1189  0.1593  0.4980
 5191W        W24045  10.244   3.020   0.356  0.1559 -0.0440 -0.2675
 5192W        W24046   9.013   9.597  12.883  0.2109  0.2679  0.1597
 5193W        W24047  10.865   4.402  14.296 -0.1127  0.0058 -0.2558
 5194W        W24048  13.110  17.063   0.153  0.0284  0.2039 -0.1789
 5195W        W24049   4.827  11.941   1.994  0.0434  0.0851  0.0698
 5196W        W24050   6.558  15.978   2.560  0.2729  0.2752  0.0267
 5197W        W24051  14.308  10.134   2.187 -0.0181  0.2109  0.1216
 5198W        W24052   3.782   8.867  11.703  0.0624  0.1895  0.0811
 5199W        W24053   0.486  12.388  13.676 -0.0835  0.0854  0.0448
 5200W        W24054  13.962   4.180  12.832  0.2578 -0.1339 -0.1435
 5201W        W24055   5.488  13.005   2.272 -0.1525  0.1316  0.2693
 5202W        W24056   6.665   8.170  11.063  0.1672 -0.1913  0.0782
 5203W        W24057   0.866   3.198   2.600  0.1727 -0.0207 -0.4412
 5204W        W24058   2.464   1.162   0.975 -0.1279 -0.0067  0.0652
 5205W        W24059  14.154  10.429   4.653 -0.1781 -0.0393  0.2236
 5206W        W24060  16.594   5.770   1.103 -0.2305 -0.1408 -0.1701
 5207W        W24061  16.446   5.094  12.645 -0.1757  0.2719 -0.0451
 5208W        W24062  12.446  14.240   3.431 -0.1331 -0.4040  0.0036
 5209W        W24063   7.920  17.164   2.759 -0.2023 -0.1832 -0.1675
 5210W        W24064  13.430  11.525  14.438 -0.2356  0.2321  0.1104
 5211W        W24065  12.669   0.537   1.033  0.0712 -0.1344  0.0659
 5212W        W24066  18.445  18.093   3.964 -0.0715  0.1277  0.3157
 5213W        W24067  18.444  12.380   9.861 -0.0213  0.2339 -0.3718
 5214W        W24068  17.127  17.570  11.376 -0.0935  0.2286  0.0850
 5215W        W24069  18.685   7.376   3.169  0.1860 -0.0311 -0.0687
 5216W        W24070  11.753  14.592  11.638 -0.1755 -0.1592 -0.2615
 5217W        W24071  14.391  14.350   2.366  0.0013 -0.1004 -0.0384
 5218W        W24072   9.114   9.964   2.329 -0.1447  0.0603  0.1407
 5219W        W24073  11.876  12.748  11.054 -0.1294 -0.0639 -0.2821
 5220W        W24074   3.690  18.187   0.815 -0.1178 -0.3668  0.0971
 5221W        W24075  13.839   0.839  13.555  0.2372  0.0826 -0.3687
 5222W        W24076   8.030  11.443  14.265  0.2709 -0.2701  0.2387
 5223W        W24077  13.955   0.880  10.835  0.4184 -0.1687  0.3721
 5224W        W24078   7.169   2.849  10.226 -0.1383  0.1231 -0.3190
 5225W        W24079  11.995  14.354   0.808 -0.2095 -0.1411 -0.1429
 5226W        W24080  11.049   1.759   2.359 -0.0329 -0.0501  0.0332
 5227W        W24081  15.226  17.976   3.244 -0.0803  0.0223  0.2343
 5228W        W24082  17.023  13.651   3.646  0.0722  0.1660 -0.2178
 5229W        W24083  17.477   2.390  10.989 -0.0401 -0.0241  0.0901
 5230W        W24084  17.855  11.422  13.520  0.2103 -0.1007 -0.1504
 5231W        W24085  11.406  12.107   0.219  0.0043  0.0265  0.0384
 5232W        W24086   1.973   0.615  12.508  0.1426  0.1248 -0.2369
 5233W        W24087   1.990   8.307   4.484 -0.1613  0.1272 -0.0144
 5234W        W24088   5.420   2.298  14.678  0.0433 -0.3383  0.3711
 5235W        W24089   9.266   9.085  12.850 -0.1211 -0.1605 -0.0194
 5236W        W24090  13.587  17.663   1.641 -0.0149  0.2395  0.3594
 5237W        W24091  18.772  16.199   2.815 -0.2815 -0.0506 -0.1341
 5238W        W24092   0.580  14.876  14.479  0.1076  0.0954 -0.3703
 5239W        W24093   7.052   4.325  12.185 -0.1610 -0.0407  0.0962
 5240W        W24094   0.954  11.820  13.303 -0.0390 -0.3197 -0.0590
 5241W        W24095  11.301  14.639  11.410  0.1413 -0.0517 -0.0807
 5242W        W24096  19.078   1.364   2.464  0.0001 -0.1381 -0.1706
 5243W        W24097  18.329  13.170   0.416  0.1125  0.0780  0.1132
 5244W        W24098   4.585   6.276  12.650 -0.2124 -0.1860  0.2811
 5245W        W24099  12.385   8.012  14.457 -0.1185  0.1973  0.0230
 5246W        W24100   1.444  17.286   2.656  0.1595  0.2215 -0.0917
 5247W        W24101   6.022  18.280   2.922  0.0283  0.0891 -0.4091
 5248W        W24102   8.915  13.621  12.454 -0.0113 -0.0028 -0.1991
 5249W        W24103   1.865   7.918  13.532  0.1305  0.1369  0.0824
 5250W        W24104   8.073   5.050   3.726  0.2553 -0.1892 -0.0690
 5251W        W24105  14.557   5.892  10.921  0.2737  0.4467 -0.2602
 5252W        W24106   4.205  10.790   2.755 -0.1854  0.1962 -0.1671
 5253W        W24107  15.470   6.862  12.133  0.3478 -0.0674 -0.1015
 5254W        W24108   7.924   4.067  13.818 -0.1073  0.0264  0.2073
 5255W        W24109   3.591   8.777   3.003 -0.0689 -0.3704  0.0290
 5256W        W24110   1.352  12.880   0.283  0.1829  0.1840 -0.0072
 5257W        W24111   2.303  14.396   1.555 -0.1756  0.1112 -0.0181
 5258W        W24112   1.631   6.084  13.256 -0.1596 -0.0764 -0.1762
 5259W        W24113  11.521   2.078   2.275  0.0253  0.2321  0.1455
 5260W        W24114  18.562  10.871  12.125  0.0239  0.1887  0.2797
 5261W        W24115  15.207   0.166   3.572  0.1947  0.1531 -0.1847
 5262W        W24116   9.768  13.902   0.930  0.1380 -0.0761  0.0100
 5263W        W24117   9.917   8.396   2.975 -0.4788  0.1896 -0.1688
 5264W        W24118  17.344   8.213   4.319 -0.0087 -0.1802 -0.0792
 5265W        W24119   7.640  18.777   1.945 -0.2145  0.2159 -0.1328
 5266W        W24120   6.803   5.461   0.249 -0.0383  0.2298  0.3742
 5267W        W24121   2.079  13.024   1.351 -0.2221  0.2151  0.2841
 5268W        W24122   1.709   8.376   5.728 -0.2971  0.1757 -0.0122
 5269W        W24123   5.889   8.771  14.323  0.0433  0.4733  0.0764
 5270W        W24124   1.322  16.305   2.923  0.0908 -0.1136  0.0345
 5271W        W24125   5.513  18.703  11.381 -0.1656  0.1751  0.2333
 5272W        W24126   6.513   5.482  14.130 -0.0399 -0.0658 -0.0855
 5273W        W24127   2.617   6.235  10.321  0.1567  0.0691  0.3102
 5274W        W24128  16.761   8.391   0.204 -0.0869 -0.0822  0.4134
 5275W        W24129   3.678   1.778  14.676  0.0934  0.0201  0.1164
 5276W        W24130   0.846  10.015   4.250  0.3178 -0.1760 -0.0051
 5277W        W24131  17.968  17.070   1.125 -0.3621  0.1865 -0.1713
 5278W        W24132   7.234   5.930  14.744  0.0535  0.0032 -0.1030
 5279W        W24133   5.346   7.738  11.211 -0.0982 -0.0259  0.0366
 5280W        W24134  12.904  12.778   3.183  0.0855  0.0568 -0.0252
 5281W        W24135   1.510  12.254  12.692 -0.0413 -0.1283  0.0000
 5282W        W24136   1.913  18.117   2.496 -0.0016 -0.2342  0.4237
 5283W        W24137   6.435  14.226   2.387  0.2533 -0.1087  0.1061
 5284W        W24138  16.117   5.541  10.756 -0.1318  0.2087 -0.1806
 5285W        W24139   6.782   9.053  14.204 -0.1551  0.1351  0.1642
 5286W        W24140   2.222  14.636   2.147  0.2096  0.0028 -0.0489
 5287W        W24141  11.428   4.144   2.179  0.2191  0.2986  0.1507
 5288W        W24142   8.856  13.404  10.188 -0.0029  0.1135  0.5384
 5289W        W24143  15.388   0.670  13.982 -0.2471  0.0548  0.0351
 5290W        W24144   5.502   8.712   1.866  0.2916 -0.1099 -0.3127
 5291W        W24145  10.349   1.922  12.694  0.2651  0.1095 -0.3295
 5292W        W24146   1.672   5.859  10.234  0.0151 -0.0652 -0.0419
 5293W        W24147   6.931  18.285   1.885  0.4707  0.0130  0.0138
 5294W        W24148   6.953  16.759  12.996 -0.0541 -0.5684  0.0746
 5295W        W24149   7.308   6.047   3.630 -0.1967 -0.2019 -0.0980
 5296W        W24150  14.816   2.520   3.272 -0.1296  0.2847 -0.0719
 5297W        W24151  11.996   0.794   3.636  0.2545 -0.2934 -0.0859
 5298W        W24152  17.144   7.361  13.622 -0.1108  0.1150  0.1781
 5299W        W24153  13.787   1.354   2.200 -0.3287  0.0392 -0.2612
 5300W        W24154   5.443   6.569   0.089  0.0893  0.2529  0.1113
 5301W        W24155  11.891  13.336  14.108  0.3097 -0.1921 -0.0682
 5302W        W24156  13.243   8.261   3.726 -0.0271  0.0374  0.2265
 5303W        W24157  14.399   7.707   1.648  0.0562  0.2170 -0.1780
 5304W        W24158  13.459  10.209  12.312 -0.0998  0.0142  0.2663
 5305W        W24159   7.489  11.395   2.763  0.0761  0.3022  0.4819
 5306W        W24160   0.171   1.786   2.489  0.0404  0.0462 -0.3334
 5307W        W24161  13.238   0.766   1.850  0.0147  0.2120  0.1516
 5308W        W24162   3.358   7.154   0.442 -0.2297 -0.0223  0.1131
 5309W        W24163   2.198  13.962  10.880  0.0772  0.0794 -0.2835
 5310W        W24164  11.547  13.798   3.596 -0.1482 -0.1946 -0.0214
 5311W        W24165  15.149  16.712   3.025  0.1649  0.1278 -0.1198
 5312W        W24166  19.001   3.890   1.810 -0.1055 -0.0047 -0.2754
 5313W        W24167   3.425  15.376   0.446  0.3447 -0.0746 -0.0885
 5314W        W24168  11.988   7.109  14.672 -0.3805 -0.4997  0.1850
 5315W        W24169  11.312   2.236  10.625  0.1247 -0.2330  0.2517
 5316W        W24170  16.841   3.389   3.959  0.1099  0.1877  0.1610
 5317W        W24171  12.008   0.899   2.735  0.2036 -0.0266  0.1380
 5318W        W24172   2.260   2.636  10.432 -0.3695  0.3477  0.0220
 5319W        W24173   0.618   8.398   0.480 -0.0277 -0.0991  0.1292
 5320W        W24174  13.894   7.258   5.275 -0.0790  0.0279  0.1131
 5321W        W24175   6.961   5.190   1.253  0.0539 -0.0045  0.0147
 5322W        W24176   9.545  13.044  10.086 -0.1512  0.4037 -0.1102
 5323W        W24177  17.118   7.818   4.036  0.0370 -0.4178  0.0421
 5324W        W24178   4.415  18.432  13.216 -0.2368  0.0569  0.0966
 5325W        W24179   0.579   6.630   3.290  0.1751  0.1667 -0.3316
 5326W        W24180  18.611  19.098  13.414 -0.0087  0.2434 -0.1513
 5327W        W24181   3.673  19.013   2.644  0.2905 -0.0104 -0.0970
 5328W        W24182  18.809   6.648   1.433  0.2531  0.1580 -0.0961
 5329W        W24183   0.339   1.227  12.312 -0.2888  0.0746 -0.1823
 5330W        W24184  10.386   5.557  10.952 -0.4173  0.1000  0.2345
 5331W        W24185   9.724  18.326   0.264 -0.3726  0.2363 -0.2969
 5332W        W24186   3.184  14.676   0.898 -0.0558 -0.3093  0.0619
 5333W        W24187   4.679  13.876   0.736 -0.0351 -0.2373 -0.1461
 5334W        W24188  18.983   3.784  11.971  0.1133 -0.0322  0.1232
 5335W        W24189   7.978  13.018  11.094  0.1327  0.0066 -0.0080
 5336W        W24190  10.647   5.704   3.423 -0.0036 -0.1848 -0.0289
 5337W        W24191  15.722  13.922   2.994 -0.0185 -0.0892  0.3185
 5338W        W24192   4.416  13.308  10.709  0.1338 -0.1606 -0.3069
 5339W        W24193  18.758   9.087  12.653 -0.0191  0.1902  0.1599
 5340W        W24194   0.140  16.557  10.067 -0.0587  0.0234 -0.1638
 5341W        W24195   3.739   4.334   0.524 -0.2236  0.0834  0.1533
 5342W        W24196   0.480  10.655   2.268 -0.4043  0.0501  0.0252
 5343W        W24197  17.587   4.830   3.776 -0.2053 -0.1360 -0.1132
 5344W        W24198  16.834  15.684  14.618 -0.1045 -0.2384  0.2194
 5345W        W24199  11.945   8.284  14.392  0.0456  0.2805  0.0352
 5346W        W24200  10.086  11.248  14.650  0.1068 -0.0070 -0.4205
 5347W        W24201  18.251   8.955   1.949 -0.0083  0.0253  0.2670
 5348W        W24202   6.218  18.104   3.905  0.0808 -0.1906 -0.0225
 5349W        W24203   7.383   2.150  11.678 -0.0262 -0.0719  0.3082
 5350W        W24204   1.474  11.692   9.917  0.1564  0.0297 -0.0628
 5351W        W24205   1.024  13.750   0.486 -0.1205 -0.2068 -0.0246
 5352W        W24206  11.321   5.364  11.430 -0.3373 -0.1688 -0.2391
 5353W        W24207  12.042  11.564  10.908  0.1053  0.2733 -0.0400
 5354W        W24208  12.153  17.373  13.910  0.1835 -0.2523  0.2970
 5355W        W24209  16.638  11.920   4.178 -0.0473 -0.0694 -0.3429
 5356W        W24210  11.114   0.968   0.161  0.0743  0.1308 -0.0073
 5357W        W24211  14.260  15.219   0.171  0.4120 -0.1442  0.1605
 5358W        W24212   8.708   1.860  11.871  0.1110 -0.1027  0.0296
 5359W        W24213   5.498   2.262  11.999 -0.0539 -0.2800 -0.0940
 5360W        W24214  18.736   1.704  13.034 -0.1005 -0.2330 -0.1619
 5361W        W24215  18.524  17.269   3.485 -0.1919 -0.3176 -0.3829
 5362W        W24216   8.092   4.721   1.764  0.0133 -0.0898 -0.0922
 5363W        W24217  15.475  11.465   1.101 -0.1579 -0.3381  0.1021
 5364W        W24218  10.690   1.881  11.824 -0.1460  0.1952 -0.1810
 5365W        W24219   0.976  10.040  11.589 -0.0563  0.1571 -0.0467
 5366W        W24220  13.737  16.889  14.356  0.1698 -0.0537  0.1081
 5367W        W24221   4.194  18.138   0.290  0.0310  0.0129 -0.4295
 5368W        W24222   0.399  16.075  13.279 -0.1113 -0.1519 -0.1597
 5369W        W24223   9.207   0.981   9.195  0.2753  0.0509 -0.0780
 5370W        W24224   2.634   3.472  11.353  0.1323  0.0290  0.0169
 5371W        W24225   5.621  16.612  12.664 -0.0739  0.0304 -0.2939
 5372W        W24226  17.331   2.789  14.443  0.1267  0.5313  0.0604
 5373W        W24227  15.432   5.264   4.186 -0.2964  0.2413  0.0067
 5374W        W24228   4.879  17.463  14.001  0.0897  0.1590  0.4530
 5375W        W24229  18.272   9.634   0.777  0.2165 -0.1414 -0.2809
 5376W        W24230  15.330   5.169   0.311 -0.1685 -0.0381 -0.0835
 5377W        W24231  14.520  17.280   3.417 -0.2095 -0.0114  0.0903
 5378W        W24232  14.914   0.390  14.105  0.2226  0.1141 -0.2338
 5379W        W24233  16.463  10.466  11.713  0.0976  0.1350 -0.1060
 5380W        W24234   9.481  17.000  14.631 -0.2526 -0.1427 -0.0699
 5381W        W24235  17.978   0.971  14.108  0.1954  0.1247 -0.1472
 5382W        W24236  12.550   8.537  13.627  0.1454 -0.1927 -0.0239
 5383W        W24237  12.462  16.495   0.709 -0.0541  0.0928 -0.4021
 5384W        W24238  11.730  14.770   9.858 -0.1461  0.0126 -0.1701
 5385W        W24239  16.111  17.211  12.315 -0.0725  0.1021  0.2350
 5386W        W24240   3.844  17.536   9.639  0.0008 -0.5281  0.1040
 5387W        W24241  14.671  10.319  11.842 -0.0119 -0.1975  0.0537
 5388W        W24242  16.936  14.744  13.541  0.0454 -0.0001 -0.1248
 5389W        W24243  11.264  18.728   1.040 -0.2260  0.0695  0.4145
 5390W        W24244  17.934   7.524   5.165 -0.1512  0.1090  0.3496
 5391W        W24245  16.774  16.398   3.321  0.0249 -0.2039  0.0366
 5392W        W24246   0.809  15.135   0.970  0.0547 -0.2904 -0.0085
 5393W        W24247  14.634  14.839   3.057  0.3960  0.2080 -0.0454
 5394W        W24248  11.498  12.669  10.686  0.1625 -0.1372 -0.0177
 5395W        W24249  17.497  18.363  10.755 -0.1285 -0.1105  0.3179
 5396W        W24250   0.491   3.707   1.254 -0.1737 -0.1870  0.2327
 5397W        W24251   7.968   5.404   4.053 -0.1452  0.0605  0.3279
 5398W        W24252  16.835   9.286   2.369  0.1349  0.1515 -0.2148
 5399W        W24253   9.831  16.027   1.922  0.3630  0.1489  0.1217
 5400W        W24254  12.733  14.001   2.517  0.0180  0.0481 -0.1008
 5401W        W24255   9.677  16.514   1.882 -0.4016  0.0096  0.1196
 5402W        W24256   0.190  12.397   1.769 -0.1931 -0.1352  0.1206
 5403W        W24257   1.292  14.882   2.255  0.0812  0.0951 -0.0580
 5404W        W24258  16.527   6.849  10.808 -0.1558 -0.1089 -0.0198
 5405W        W24259  16.870   5.476  11.010 -0.1197 -0.1841 -0.0788
 5406W        W24260   6.741   2.377   0.570  0.0264 -0.0161 -0.2177
 5407W        W24261  10.241  12.105   4.550 -0.3662  0.1346  0.3046
 5408W        W24262  10.579  13.940   2.905 -0.0950 -0.3021  0.1488
 5409W        W24263   6.626   4.533   2.834  0.2235 -0.3997 -0.1461
 5410W        W24264  15.072   2.476   4.832  0.0318  0.0699  0.1782
 5411W        W24265  18.744  14.295  10.679 -0.1474  0.1409 -0.0137
 5412W        W24266  10.882   5.944   3.866 -0.1196 -0.2860 -0.1529
 5413W        W24267   0.541   3.284   0.908  0.1980 -0.0857  0.1244
 5414W        W24268  16.588  15.046   3.081  0.0427 -0.0346 -0.0594
 5415W        W24269   3.877  14.911  12.711  0.0601 -0.2997 -0.4786
 5416W        W24270  17.607  11.118  10.184  0.2004 -0.2360 -0.0712
 5417W        W24271  14.211  13.708   4.373 -0.0641  0.0490 -0.0424
 5418W        W24272   4.653   7.718  11.356 -0.2243 -0.0713 -0.1259
 5419W        W24273   7.354  14.497   3.491  0.3563 -0.2074  0.0553
 5420W        W24274   9.562  14.901  14.737 -0.0242  0.0539 -0.0626
 5421W        W24275   7.190   8.814   4.543 -0.1396  0.1415  0.1341
 5422W        W24276  14.350   4.730  13.574 -0.0201  0.3218  0.2528
 5423W        W24277  11.764  13.382  12.335 -0.1694  0.1320 -0.2363
 5424W        W24278   0.256   8.794   2.669 -0.4277 -0.1347  0.2224
 5425W        W24279  15.972  11.093  11.417  0.0792  0.3852 -0.0816
 5426W        W24280   8.413   0.332   3.155  0.0451  0.2066  0.0453
 5427W        W24281  18.035  12.343  13.408  0.0989  0.0608  0.0873
 5428W        W24282   3.704   6.755   1.761  0.0520  0.1791  0.3102
 5429W        W24283   3.923  15.214   2.554  0.0376  0.0109  0.1807
 5430W        W24284  18.855   5.148   4.020  0.1978  0.2047 -0.3142
 5431W        W24285  13.900  17.417   0.436 -0.0548  0.0345 -0.1102
 5432W        W24286   1.125  11.361   4.324 -0.3858  0.0930 -0.0091
 5433W        W24287  18.281  11.420  12.150  0.1154 -0.0504 -0.1642
 5434W        W24288   2.156  16.540   0.926 -0.1254 -0.3026  0.0681
 5435W        W24289   9.979  17.142  11.364 -0.0599  0.5629 -0.1992
 5436W        W24290  14.510   1.624  12.711  0.1511 -0.0430  0.1533
 5437W        W24291   2.260  14.942  10.903  0.2437 -0.0452 -0.0485
 5438W        W24292   7.051  18.990   2.299 -0.0590 -0.3018  0.1599
 5439W        W24293   2.350  11.127  13.580  0.0003 -0.0208 -0.1696
 5440W        W24294  10.187  13.489  10.384 -0.0974  0.1398 -0.2211
 5441W        W24295   3.912  11.697   0.985  0.1724  0.4623 -0.2734
 5442W        W24296   1.617  16.294   1.118  0.0268 -0.2943  0.0496
 5443W        W24297  15.459   8.592   3.410 -0.0252 -0.0686 -0.0038
 5444W        W24298  17.503   4.759  10.833 -0.1660  0.0017  0.0066
 5445W        W24299  16.759   4.181  13.355  0.2978  0.2301  0.0315
 5446W        W24300  14.152   3.325   5.253 -0.0631 -0.1461  0.2572
 5447W        W24301   7.604  18.591   0.866 -0.0648 -0.0511 -0.1195
 5448W        W24302   6.991   5.625  14.417  0.0817  0.1892  0.0509
 5449W        W24303   5.310   4.491   2.466  0.0743 -0.0484 -0.0955
 5450W        W24304   8.321   4.418  13.535  0.0057 -0.2052 -0.2526
 5451W        W24305   6.753  10.692   3.274  0.0057  0.2157  0.4116
 5452W        W24306   8.902   7.763   0.052 -0.0315 -0.2251  0.2951
 5453W        W24307   9.227   6.544   1.711 -0.0547 -0.0269 -0.0009
 5454W        W24308   8.179   4.211  10.633 -0.1762 -0.1899 -0.1014
 5455W        W24309  16.107  17.274   2.185 -0.1155 -0.1411 -0.0393
 5456W        W24310   5.051  15.181   1.014 -0.2232 -0.0256  0.3014
 5457W        W24311  13.406  11.097  11.882  0.0472 -0.0388 -0.0217
 5458W        W24312   0.583   2.321   2.253 -0.0427  0.2916  0.1035
 5459W        W24313   4.378   8.303   3.885  0.3487  0.1891 -0.0646
 5460W        W24314  11.376   2.448  12.810 -0.0135 -0.0945  0.0782
 5461W        W24315   9.146   4.992  12.137  0.0119  0.2172  0.3028
 5462W        W24316   5.563  12.100  12.381 -0.0674  0.0186 -0.3512
 5463W        W24317   9.103  14.875  11.543 -0.1495  0.1794  0.0099
 5464W        W24318  12.409  16.523   9.709 -0.0106 -0.0181  0.1750
 5465W        W24319  11.024   7.786  14.411 -0.1227 -0.2207 -0.0023
 5466W        W24320   1.291  13.106  13.577 -0.0728  0.0316  0.1489
 5467W        W24321   8.388  13.993   2.351 -0.1819  0.0839  0.2915
 5468W        W24322   4.472  18.200  11.304 -0.0637  0.0461  0.2842
 5469W        W24323  16.274  10.190   4.158 -0.0862  0.1468 -0.0630
 5470W        W24324  15.210  17.969  10.996 -0.1046 -0.1376 -0.1190
 5471W        W24325   4.432  17.697   0.633  0.1991  0.0786  0.2968
 5472W        W24326  13.408   3.924   1.336 -0.2691  0.0702  0.0160
 5473W        W24327   3.373   0.369   1.935  0.2602 -0.0808  0.0059
 5474W        W24328  14.931   1.907   2.769  0.1616 -0.0782 -0.0109
 5475W        W24329  17.364   7.013  11.665  0.0569  0.0967  0.0408
 5476W        W24330   2.321   3.137   1.570  0.1739 -0.0886  0.1802
 5477W        W24331  15.018   7.986   3.714  0.2134  0.1467 -0.1910
 5478W        W24332   8.446  19.106  14.223  0.3645  0.0314  0.0761
 5479W        W24333  18.058  14.559   4.196 -0.1867 -0.1328 -0.2190
 5480W        W24334  16.742  10.155   2.650 -0.2224  0.0128 -0.0025
 5481W        W24335  13.173   6.572   3.224 -0.2522 -0.1759 -0.0477
 5482W        W24336   2.123  12.442   0.708  0.0591 -0.2121 -0.1186
 5483W        W24337  11.920  16.219  13.527 -0.0742  0.2126  0.0314
 5484W        W24338  11.703  17.891  12.233 -0.3696  0.1420  0.0496
 5485W        W24339  12.327  17.474  12.999  0.1689 -0.0728 -0.1380
 5486W        W24340  11.243   8.835   4.321  0.1721  0.2428  0.1612
 5487W        W24341  15.243  13.174  10.403 -0.1556 -0.1362 -0.0279
 5488W        W24342   2.398  18.514  12.601 -0.0851  0.0091 -0.0876
 5489W        W24343  13.769  17.540   9.812 -0.0748 -0.0618  0.3162
 5490W        W24344   6.622  15.747  12.681 -0.0316  0.1121 -0.0152
 5491W        W24345  17.751   8.846   3.745 -0.0327  0.0221 -0.3325
 5492W        W24346  13.827   0.729   9.984 -0.0682 -0.1508  0.3600
 5493W        W24347  16.440  16.042  14.536 -0.1460 -0.0082  0.0395
 5494W        W24348   8.510  18.598   3.459  0.1498 -0.0150 -0.3511
 5495W        W24349  15.775   2.810   1.225  0.0475 -0.0242  0.1141
 5496W        W24350  14.010   4.561   3.763  0.1603 -0.2562 -0.0560
 5497W        W24351  11.784  11.196   5.218 -0.0305 -0.0973  0.0485
 5498W        W24352   4.508   9.766  14.187 -0.2965 -0.2285  0.0159
 5499W        W24353   5.725  17.061  14.716  0.2034 -0.3508  0.0565
 5500W        W24354   8.280   4.213  11.463 -0.1872 -0.0199  0.0124
 5501W        W24355  11.387   7.070   0.696  0.1825  0.2725  0.1026
 5502W        W24356  12.239   7.761  13.516 -0.0283 -0.1445 -0.0613
 5503W        W24357  11.993   4.806   1.039 -0.1962 -0.4171  0.1596
 5504W        W24358   9.264  14.774   4.388 -0.2693  0.1213  0.1805
 5505W        W24359   0.551   8.346   3.756  0.2161  0.3409  0.1345
 5506W        W24360  18.738  11.460  11.603 -0.1387  0.2178  0.0684
 5507W        W24361  14.927  15.894   3.744 -0.2872  0.0043  0.0105
 5508W        W24362   4.614  12.675   0.133  0.1735  0.0172 -0.2055
 5509W        W24363  11.523  19.011   3.848  0.0168 -0.0398  0.1583
 5510W        W24364   4.968   1.431  12.673  0.0160  0.0702  0.4011
 5511W        W24365   0.349  13.744   1.080  0.5037  0.1149 -0.0267
 5512W        W24366  16.920   4.978  12.964 -0.1784  0.1552 -0.0298
 5513W        W24367  11.159  15.695   2.548 -0.3654  0.0949  0.1399
 5514W        W24368   7.543  14.936  11.656  0.0454 -0.0704  0.2087
 5515W        W24369   7.990  18.141   3.712 -0.0792 -0.1589 -0.0397
 5516W        W24370  10.626  11.284   1.729 -0.0935 -0.0060  0.1617
 5517W        W24371  17.749  14.685  11.998  0.1931  0.3551  0.4411
 5518W        W24372  16.084  17.626  13.979  0.1316  0.1371  0.1119
 5519W        W24373  16.000  16.078   1.496 -0.3265  0.1058  0.0143
 5520W        W24374  13.897  17.389  12.303 -0.0175  0.2265  0.1132
 5521W        W24375  18.011  10.414  10.664  0.0585 -0.0474 -0.3248
 5522W        W24376  16.612  10.296   3.772 -0.1918  0.0296 -0.0998
 5523W        W24377   2.725   7.971  13.510  0.3173 -0.2239 -0.1140
 5524W        W24378   6.971   5.665  10.618 -0.1602  0.0613  0.0353
 5525W        W24379   1.995   1.068  13.366 -0.0069 -0.1140  0.0597
 5526W        W24380   1.204   0.104  11.076 -0.3654  0.1923  0.2411
 5527W        W24381   5.514  18.372   4.515 -0.0206 -0.0594 -0.1054
 5528W        W24382   7.556  13.591  14.781 -0.0923  0.0510 -0.1213
 5529W        W24383  13.412   6.156  13.575  0.0807 -0.1009  0.1103
 5530W        W24384  12.286   9.717  12.670  0.1303 -0.2747 -0.2273
 5531W        W24385   4.564   3.545   4.136 -0.1802 -0.2074 -0.0261
 5532W        W24386  16.122   2.743   1.584  0.1562  0.1119  0.1194
 5533W        W24387   6.199   0.498  12.135  0.0182  0.0600  0.1555
 5534W        W24388  11.229  13.795   4.073 -0.0196 -0.0591  0.0562
 5535W        W24389   4.864  15.484  12.580 -0.1948  0.2684  0.3306
 5536W        W24390  13.071  18.124  11.409 -0.2920 -0.1349 -0.2698
 5537W        W24391  15.637   9.920   1.811  0.2652  0.0756 -0.2743
 5538W        W24392  15.892   3.240  10.870  0.0252 -0.0799 -0.1317
 5539W        W24393  10.973  16.784  14.397 -0.3311  0.3606  0.0676
 5540W        W24394   0.935  10.382  13.208 -0.2657  0.0246 -0.1445
 5541W        W24395  18.957  10.411  13.103  0.5111 -0.3019  0.0355
 5542W        W24396   5.093  18.676   4.479  0.0044  0.0664  0.0429
 5543W        W24397  13.395  14.957   3.935 -0.1302  0.1561 -0.0333
 5544W        W24398  18.985  14.562   2.158  0.1936 -0.2131  0.0998
 5545W        W24399  13.348   2.835   0.078  0.1350  0.0236 -0.1483
 5546W        W24400   2.065   8.858   3.165  0.1059 -0.1002  0.1608
 5547W        W24401   7.271   0.313   2.679  0.1549 -0.1626 -0.0453
 5548W        W24402  11.051   3.516   3.223 -0.0358  0.3411 -0.0750
 5549W        W24403  15.072  10.368  14.712  0.2660  0.1181  0.3004
 5550W        W24404   0.570  10.570  12.963  0.2906  0.0283  0.0226
 5551W        W24405   7.194  13.818   1.228 -0.0290 -0.1791  0.1314
 5552W        W24406  14.007   5.528  14.525  0.2997  0.1877 -0.0273
 5553W        W24407  12.595   7.112  12.162 -0.0536 -0.2755  0.2395
 5554W        W24408   6.998  12.487  14.020 -0.1735  0.0705  0.3434
 5555W        W24409  17.946  17.828  14.461  0.0462  0.1846  0.2980
 5556W        W24410   1.231  14.817   3.196 -0.1746  0.0732 -0.3689
 5557W        W24411  13.772   9.158  13.219 -0.3267 -0.2053 -0.0325
 5558W        W24412   1.477  11.509  12.143  0.1084  0.1944  0.3434
 5559W        W24413   0.071  10.926   0.339 -0.4008 -0.1426  0.2028
 5560W        W24414  17.093   1.945   0.397  0.0328 -0.0034  0.2363
 5561W        W24415   6.768  10.502  12.655  0.0195 -0.1740 -0.2151
 5562W        W24416  14.592   5.909   2.469  0.1847 -0.0791  0.4643
 5563W        W24417   5.861   0.118   1.420  0.1688 -0.3334  0.1311
 5564W        W24418   8.262  16.624  13.295  0.0449 -0.1466 -0.0056
 5565W        W24419   9.485   6.639  13.153 -0.0188 -0.0471 -0.0783
 5566W        W24420  17.008   1.849  11.358  0.3063  0.1876  0.2129
 5567W        W24421  10.610  15.642  14.238 -0.0836 -0.2204  0.0162
 5568W        W24422   9.197  12.827   9.809 -0.3015 -0.0422  0.3603
 5569W        W24423  14.134  10.100   4.236  0.0842 -0.2085 -0.0353
 5570W        W24424  15.361  18.309   2.801 -0.1080  0.2246  0.1664
 5571W        W24425   8.743   9.242   3.875  0.0555 -0.2090 -0.0851
 5572W        W24426   5.775  11.436   1.428 -0.0700 -0.2111 -0.3240
 5573W        W24427  17.156  17.051   3.863  0.3946 -0.0482  0.0156
 5574W        W24428   0.865   3.004   1.507 -0.0832  0.0581  0.1421
 5575W        W24429   1.377   6.824   4.405  0.0473 -0.0639 -0.2043
 5576W        W24430  19.053  17.389   3.840  0.2201  0.1399  0.1317
 5577W        W24431   1.112   2.987   1.095 -0.0901  0.1545  0.1616
 5578W        W24432  13.428   0.004   2.217  0.1038  0.2176 -0.2270
 5579W        W24433   6.346   7.630  12.847 -0.0422 -0.1347 -0.0856
 5580W        W24434  15.264   1.990  13.428 -0.4045 -0.1610 -0.0382
 5581W        W24435  16.359  14.263  12.342 -0.1283  0.2675 -0.0295
 5582W        W24436   3.825  10.381  12.345  0.0246  0.4645  0.2302
 5583W        W24437   0.427   2.443  14.209  0.3030 -0.3629 -0.1002
 5584W        W24438   6.938   2.401  13.280  0.0599 -0.0659 -0.1731
 5585W        W24439   2.666  15.284   1.636  0.0754 -0.1690  0.0873
 5586W        W24440  11.972   1.860   3.715  0.2280 -0.0941  0.2429
 5587W        W24441  15.790   9.506  12.227 -0.1604 -0.0919  0.0533
 5588W        W24442   7.585   4.292   2.739  0.3907  0.3849 -0.0016
 5589W        W24443   7.995   1.267   1.903 -0.0106  0.1083  0.4022
 5590W        W24444  13.713  16.191  13.192  0.1343 -0.1379 -0.0584
 5591W        W24445  13.851  10.304   1.454 -0.3040  0.0908 -0.0641
 5592W        W24446   3.803   7.698  13.587  0.2215 -0.0305 -0.2549
 5593W        W24447  11.295   5.641   2.608 -0.1063 -0.2044  0.0937
 5594W        W24448   8.187  18.816   2.564  0.2706  0.2834  0.1054
 5595W        W24449  12.294  12.825   0.936  0.4684 -0.5327  0.2299
 5596W        W24450   6.361  16.357   4.367 -0.0603 -0.0079 -0.0271
 5597W        W24451  16.903  17.862  11.075 -0.0611  0.2060  0.1210
 5598W        W24452  12.894   9.696  13.922 -0.0308  0.3482 -0.0057
 5599W        W24453   7.306   0.022  14.625  0.1776  0.3698 -0.0539
 5600W        W24454   4.040   1.770   0.242  0.1949 -0.1067 -0.3516
 5601W        W24455   8.344   9.955   3.459 -0.0983  0.0875  0.0428
 5602W        W24456   4.794   1.958   2.171 -0.1089 -0.2473  0.1874
 5603W        W24457  10.838   8.703   2.991  0.0583 -0.0367 -0.1810
 5604W        W24458   5.147   1.067  13.006  0.0604 -0.1549  0.1871
 5605W        W24459  18.561   5.013  13.138  0.2430  0.2164  0.0809
 5606W        W24460  14.886  11.311   1.308 -0.0996 -0.3036  0.4162
 5607W        W24461   5.182  12.082  14.699 -0.0854 -0.0054  0.1427
 5608W        W24462  10.978  18.641  11.267 -0.0478 -0.0067 -0.2265
 5609W        W24463  12.134   8.108   1.020 -0.0151 -0.3035 -0.0815
 5610W        W24464   4.989   3.500   1.126  0.1527 -0.2385  0.1507
 5611W        W24465  12.209   0.028   1.087  0.4589 -0.0913  0.1739
 5612W        W24466   0.674   1.477  13.580  0.2615 -0.1351 -0.1299
 5613W        W24467   1.910   8.527  10.103 -0.0321 -0.0867  0.1201
 5614W        W24468   9.524   1.955  12.724 -0.0310 -0.0563  0.0611
 5615W        W24469   0.163   7.001   3.608 -0.0882  0.0773  0.1627
 5616W        W24470   7.288  15.844  11.934 -0.1685 -0.0642 -0.1167
 5617W        W24471   2.223  16.602   9.702  0.0695 -0.1063  0.0424
 5618W        W24472   5.929   6.684   2.467 -0.0036 -0.3629 -0.0744
 5619W        W24473   3.138  12.777   4.626 -0.0688  0.4569 -0.0607
 5620W        W24474   3.501  10.243  13.238 -0.1170 -0.2183  0.1852
 5621W        W24475   1.861   0.127   2.964  0.0634 -0.0099 -0.1835
 5622W        W24476  17.114  15.279   1.621 -0.1660 -0.0002 -0.0757
 5623W        W24477   8.726  15.098  12.543 -0.0137 -0.1490  0.1795
 5624W        W24478  16.086  11.799   3.253  0.2742 -0.1754  0.2146
 5625W        W24479   2.943   8.602   0.737  0.1507  0.0185 -0.3570
 5626W        W24480  14.175   5.089  12.359  0.0088  0.1687  0.3765
 5627W        W24481  16.455   6.491   0.288 -0.0120  0.1318  0.0191
 5628W        W24482   4.257  16.547  13.777 -0.2543  0.0523  0.2282
 5629W        W24483   0.481  10.449   4.156 -0.0598  0.0181 -0.0645
 5630W        W24484   2.255  15.878  11.991  0.0520 -0.0831 -0.2335
 5631W        W24485  10.160  11.193  13.456  0.2133 -0.1686  0.2253
 5632W        W24486  16.434   6.958  11.308 -0.1620  0.2883 -0.2153
 5633W        W24487   9.926  14.779   3.758 -0.1701 -0.0392 -0.0455
 5634W        W24488  19.068   3.816  12.461 -0.2065  0.3475 -0.0190
 5635W        W24489  18.539   6.973   1.704  0.1629 -0.3442  0.1755
 5636W        W24490  12.080   9.919   1.522 -0.0071  0.3852  0.1795
 5637W        W24491   9.921   2.180   1.170  0.2631  0.1501  0.0324
 5638W        W24492   1.930   6.503   1.167  0.0006 -0.2372  0.2338
 5639W        W24493   4.935   8.454  12.497  0.4102 -0.2840 -0.1130
 5640W        W24494  11.911  18.672   3.669  0.2211 -0.0282 -0.0163
 5641W        W24495   2.141  16.397   1.775  0.1039 -0.0352 -0.0613
 5642W        W24496   3.908   1.502  11.677  0.0213  0.0201  0.0773
 5643W        W24497   9.973  14.396   1.699 -0.1100 -0.4882 -0.0370
 5644W        W24498   3.524  14.734  14.407  0.0485  0.0247 -0.1302
 5645W        W24499   5.798  18.517  13.830 -0.2879  0.0257  0.1554
 5646W        W24500  10.133   2.115   2.037 -0.3978 -0.0341 -0.0447
 5647W        W24501   2.568   3.888  10.484  0.1441 -0.1429  0.1958
 5648W        W24502  11.152   3.779  10.380 -0.3164  0.0946  0.1244
 5649W        W24503   2.280  18.314   1.095 -0.2130 -0.2023 -0.0520
 5650W        W24504   6.061   2.241   1.271  0.0049 -0.3169  0.0851
 5651W        W24505   3.075  10.822   1.548  0.1185  0.1838 -0.2208
 5652W        W24506  11.605   4.078   0.384  0.1513  0.1834  0.1501
 5653W        W24507  11.953  14.296   0.174 -0.2991 -0.3409 -0.0857
 5654W        W24508   4.709  18.690  14.468 -0.2585 -0.1034  0.0035
 5655W        W24509  15.097  17.275  13.977  0.1755 -0.0082  0.1858
 5656W        W24510  13.146  12.337   4.265  0.1669  0.2396  0.3359
 5657W        W24511  10.940   5.531  13.454  0.1931  0.0711 -0.1213
 5658W        W24512  11.997  14.658   1.800 -0.1476 -0.0817 -0.3278
 5659W        W24513  11.612   2.868  11.307 -0.0998  0.0391 -0.2707
 5660W        W24514   9.749  10.144  12.621 -0.3855  0.3101 -0.0395
 5661W        W24515  18.096   5.125   2.415 -0.1579 -0.2064 -0.0005
 5662W        W24516  10.263  18.031  11.239 -0.0435  0.4854  0.0368
 5663W        W24517  17.195   4.496   5.583  0.2931 -0.0059  0.0166
 5664W        W24518   8.667   8.514  10.902 -0.0998  0.4418 -0.1389
 5665W        W24519   1.268  14.827   4.558 -0.0857 -0.0992  0.0275
 5666W        W24520  12.450  11.349   5.950 -0.1383  0.2209 -0.1922
 5667W        W24521  11.176  15.484  12.403 -0.5602  0.1797 -0.3018
 5668W        W24522  18.029   3.007  13.114  0.1254 -0.0363  0.0911
 5669W        W24523   9.708   7.006  13.532 -0.0691 -0.0401 -0.0442
 5670W        W24524  10.499   3.567  12.889  0.0413 -0.2742  0.0068
 5671W        W24525   9.089   1.992   2.305  0.1003 -0.3715  0.0081
 5672W        W24526   6.692   0.571   9.425 -0.1644 -0.0285 -0.3109
 5673W        W24527   6.510   1.244   1.997 -0.2686 -0.0309  0.0037
 5674W        W24528  10.212   0.599   2.756  0.0282 -0.0407 -0.1009
 5675W        W24529  17.296  11.069   0.429  0.1329 -0.1451 -0.2051
 5676W        W24530   9.657  17.356   0.399  0.3157  0.0049 -0.1300
 5677W        W24531  12.189   3.124   2.416 -0.1078  0.0494  0.2288
 5678W        W24532  12.260   2.288  14.024  0.2941  0.4750 -0.1429
 5679W        W24533   6.438   0.691   1.750  0.0012  0.1070 -0.2957
 5680W        W24534  11.900  13.049  10.686  0.1410 -0.1057  0.1487
 5681W        W24535   3.432  14.733  12.496  0.1077  0.0495  0.0542
 5682W        W24536   7.754   3.023  14.606  0.1286  0.3091 -0.1554
 5683W        W24537   6.096  12.917  12.227  0.0304 -0.0912 -0.1458
 5684W        W24538  12.495  17.091  14.153 -0.0258  0.0166  0.3339
 5685W        W24539   6.765  15.401   1.166  0.2578 -0.0236  0.1451
 5686W        W24540   1.541   2.433  14.017 -0.2237 -0.0476  0.3849
 5687W        W24541   4.378  13.995   5.520 -0.2937  0.3278  0.0027
 5688W        W24542   7.184  16.384  12.143  0.0279 -0.0229 -0.0392
 5689W        W24543   7.539   3.115   1.858  0.0091  0.0178 -0.0305
 5690W        W24544  10.499  11.345   2.798 -0.0575 -0.0465  0.3676
 5691W        W24545   2.707  10.035   4.453 -0.2775 -0.2487 -0.1340
 5692W        W24546  10.045  13.969   0.084  0.3619  0.0783 -0.0183
 5693W        W24547   6.280   6.086   3.375 -0.1125  0.1553 -0.4990
 5694W        W24548   3.814  16.167   0.506 -0.2251  0.1528  0.1354
 5695W        W24549  13.583   8.275  12.262 -0.5212  0.0158 -0.0907
 5696W        W24550   8.229  10.000   2.116  0.0824  0.0999  0.1976
 5697W        W24551  16.046  14.193  11.426 -0.0938  0.3197  0.1454
 5698W        W24552   3.269  18.108  13.861  0.0473 -0.1037 -0.2037
 5699W        W24553   7.641  10.899   2.968  0.2798 -0.1809  0.0115
 5700W        W24554  14.782  16.436  14.740 -0.2389  0.0228 -0.0282
 5701W        W24555  16.847   6.138   1.362 -0.0628  0.1942 -0.0494
 5702W        W24556   2.405   6.533  13.012 -0.1918 -0.2018  0.0941
 5703W        W24557   1.568   0.676  12.200  0.0886 -0.0905 -0.2078
 5704W        W24558  11.638   7.511   3.119  0.1205  0.0820  0.5676
 5705W        W24559   9.441   0.723  12.530 -0.1400 -0.1310 -0.2505
 5706W        W24560   6.827  16.117  11.930  0.1011  0.0675  0.1143
 5707W        W24561   1.360  13.506  12.913 -0.1927 -0.1830 -0.2547
 5708W        W24562  13.117   2.680  13.155 -0.2950 -0.0375  0.2417
 5709W        W24563  16.828  19.069   3.311  0.1976 -0.1451  0.2618
 5710W        W24564   9.647   7.548   3.476  0.0856 -0.1617  0.0144
 5711W        W24565  12.171  15.250  13.009  0.0925  0.2174  0.5355
 5712W        W24566  13.366  16.306  10.966 -0.0222 -0.2908 -0.1259
 5713W        W24567   8.774  16.181   0.107 -0.2643 -0.0229  0.3382
 5714W        W24568  17.014  17.765  12.030 -0.2697 -0.2003 -0.2687
 5715W        W24569  11.750  14.899   3.711 -0.0219  0.1485  0.0183
 5716W        W24570   5.608   3.728   4.267  0.0170  0.0485 -0.2151
 5717W        W24571  15.263  12.405   3.315  0.2035 -0.0119  0.0682
 5718W        W24572   1.309   8.124  11.855 -0.0049  0.1051  0.3176
 5719W        W24573  11.642  10.459   5.380 -0.0332  0.2526 -0.0818
 5720W        W24574  15.353   6.393   1.626 -0.1046  0.2435  0.1208
 5721W        W24575   7.332   2.739   3.595  0.1723  0.1073  0.4238
 5722W        W24576  14.375   2.424  11.922 -0.1346 -0.1093  0.0077
 5723W        W24577  11.512  13.184  11.070  0.1531 -0.0923  0.0234
 5724W        W24578  10.595  11.204  13.127  0.1041 -0.2827 -0.0038
 5725W        W24579   1.121   0.867  13.130  0.1323  0.1693 -0.2322
 5726W        W24580   9.200   2.098  13.109  0.0306  0.0091 -0.0275
 5727W        W24581  16.847   0.381   3.326  0.2228 -0.2393  0.1047
 5728W        W24582  17.183  13.845   5.514 -0.0899 -0.1875 -0.4198
 5729W        W24583   3.624  17.979  10.820  0.0417  0.0576 -0.0899
 5730W        W24584   2.056   4.522  13.240  0.0782 -0.0284 -0.1267
 5731W        W24585  13.626   6.637  10.824 -0.4276 -0.1794  0.0510
 5732W        W24586  13.529   5.849   4.196  0.1177 -0.0601  0.1055
 5733W        W24587  11.435  10.861   2.320 -0.0594  0.2957  0.2115
 5734W        W24588   7.990  15.442  10.837 -0.1924  0.0336 -0.1083
 5735W        W24589   5.618  10.482   3.922  0.2973 -0.2237 -0.0530
 5736W        W24590  11.590   0.606  10.778 -0.1558 -0.3572  0.2390
 5737W        W24591  13.300  10.960  14.471  0.0983  0.0547  0.0315
 5738W        W24592  13.904   1.533   3.603  0.0058 -0.2329  0.2162
 5739W        W24593   6.734   5.696   2.789  0.2066 -0.1039 -0.2755
 5740W        W24594  17.876  15.077   3.385  0.0429 -0.2717 -0.4749
 5741W        W24595  18.245  11.001  10.771  0.2718  0.3440  0.1959
 5742W        W24596   0.031  17.015  14.384 -0.2779  0.0043  0.2887
 5743W        W24597   3.396   0.585  14.626  0.0347  0.2642 -0.0684
 5744W        W24598  15.343   2.110   0.957 -0.0567  0.0462 -0.1305
 5745W        W24599   3.545  11.668  14.101 -0.1632  0.1904  0.2055
 5746W        W24600   1.383   1.015  13.592  0.1388  0.1390  0.0767
 5747W        W24601   1.800  17.290  12.642  0.0984 -0.1417 -0.3134
 5748W        W24602   6.134   5.770  11.106 -0.3105 -0.1946  0.2310
 5749W        W24603   3.031  18.379   1.507  0.2077 -0.2613 -0.0703
 5750W        W24604  13.614   2.535   3.766  0.0331 -0.5281 -0.0110
 5751W        W24605   6.897  10.864   0.209  0.0682 -0.1794 -0.1129
 5752W        W24606   3.323   6.923   0.028  0.0111  0.0620 -0.1041
 5753W        W24607  11.756   0.245  12.323 -0.1300 -0.1126  0.0007
 5754W        W24608   4.100  16.229  14.095 -0.0178 -0.3966  0.1460
 5755W        W24609   1.771   8.951  12.062  0.1203  0.2487  0.1157
 5756W        W24610   9.060  12.323   2.409 -0.0476 -0.1022 -0.1044
 5757W        W24611  16.275  18.459  13.479  0.1529  0.2920  0.1056
 5758W        W24612   5.247   7.129  11.879  0.0584 -0.3647  0.2656
 5759W        W24613   5.724   7.289  12.423  0.1242 -0.0773 -0.0384
 5760W        W24614  12.583   8.074  13.279 -0.0601  0.1001 -0.0080
 5761W        W24615  17.463   1.635  12.531 -0.2247  0.1403  0.1591
 5762W        W24616   4.536  18.475   1.053 -0.1229  0.2740 -0.3919
 5763W        W24617   0.504  16.323   2.399  0.3861  0.0316  0.1199
 5764W        W24618  11.200  10.722   2.757 -0.1894 -0.0415  0.0483
 5765W        W24619   3.315   0.135   0.073  0.2671  0.1758 -0.0565
 5766W        W24620   6.250  18.000   2.595  0.0563  0.1266  0.1188
 5767W        W24621  11.992  16.748   2.910  0.0684 -0.0805  0.0132
 5768W        W24622  12.384   1.675   3.375 -0.1725  0.0585  0.0609
 5769W        W24623   5.138  15.864   1.614  0.1076  0.1461 -0.0218
 5770W        W24624  13.886   9.576   2.931  0.1803  0.1292 -0.2592
 5771W        W24625  15.402  17.059  10.095  0.3226 -0.1842  0.0528
 5772W        W24626  14.916   2.910   2.919  0.2297 -0.0888 -0.0759
 5773W        W24627  14.552  14.604  14.484 -0.2182  0.0431  0.1496
 5774W        W24628  16.593   1.865   0.266 -0.1656  0.1036  0.0316
 5775W        W24629   7.596  15.312   2.702  0.2554 -0.1022 -0.2113
 5776W        W24630  12.245   4.157  12.127  0.1549  0.0190  0.0384
 5777W        W24631   6.677   4.775   3.987 -0.0108  0.1146  0.0425
 5778W        W24632   8.351  18.845   3.040 -0.1101  0.1035  0.1744
 5779W        W24633   1.496   9.764  10.047  0.2204  0.3143  0.0038
 5780W        W24634  10.345   5.211   2.696 -0.3579  0.0035  0.1075
 5781W        W24635   3.512  16.551   1.931 -0.0270  0.1938  0.3964
 5782W        W24636   0.121  15.917   2.138  0.2966 -0.1900 -0.0993
 5783W        W24637   5.502  15.256  10.994 -0.3221 -0.1520 -0.0731
 5784W        W24638   3.661  14.646  13.348 -0.0054 -0.0744  0.0156
 5785W        W24639   6.933  13.296   2.414 -0.0281  0.2374  0.1009
 5786W        W24640   9.020  14.762  10.115 -0.2628 -0.1369 -0.3997
 5787W        W24641  13.086  18.221   1.143 -0.0087  0.0158 -0.3684
 5788W        W24642  16.693   8.193  12.793 -0.3222 -0.2711  0.1640
 5789W        W24643  16.813  13.989   0.170  0.2471  0.2326  0.0430
 5790W        W24644  10.679   9.259  12.860  0.1646 -0.0242 -0.1334
 5791W        W24645  11.885  18.300  10.487 -0.1774 -0.0039 -0.0465
 5792W        W24646  12.655  16.365  11.778  0.1828  0.1566  0.0145
 5793W        W24647  16.145  14.675  14.064  0.4308 -0.0095 -0.1781
 5794W        W24648   1.959   7.401   1.338  0.1204 -0.0144 -0.1395
 5795W        W24649  18.187   7.929  14.220 -0.1185 -0.1414 -0.0253
 5796W        W24650  10.885  18.943   0.636  0.1393  0.1715  0.1739
 5797W        W24651   7.523   9.181   0.839 -0.0841 -0.0778 -0.0782
 5798W        W24652   6.390  12.181  12.905  0.0514  0.3400 -0.0507
 5799W        W24653  13.901  18.226  10.568 -0.0090  0.1015  0.0660
 5800W        W24654  18.975   9.897  14.348  0.4888  0.2395  0.0603
 5801W        W24655  15.401  13.313   0.733  0.0251 -0.0001  0.1159
 5802W        W24656   1.661   8.131   3.441  0.0105  0.1684  0.0006
 5803W        W24657   1.683  10.987  12.404  0.1053  0.2731 -0.0400
 5804W        W24658   1.256   8.473   1.746 -0.1660 -0.1571  0.1095
 5805W        W24659  13.204   4.918   4.494 -0.0487  0.1083 -0.2701
 5806W        W24660  15.377   6.850  10.290  0.2772  0.0359  0.2212
 5807W        W24661   3.912   4.996   1.501 -0.1387 -0.3074 -0.3311
 5808W        W24662  16.524  16.063   3.834  0.1024 -0.1607 -0.2980
 5809W        W24663  18.859   8.982  12.083  0.0457 -0.0910 -0.0487
 5810W        W24664   1.178   8.860   0.918  0.1372  0.0106  0.1292
 5811W        W24665  10.723  15.128   1.816 -0.1436  0.2978 -0.3349
 5812W        W24666   8.350   2.115  12.875 -0.1855  0.0359  0.0189
 5813W        W24667   6.318  11.040   2.000  0.0891 -0.2831  0.0763
 5814W        W24668   0.470   6.685   4.433 -0.2625 -0.3346  0.0519
 5815W        W24669  11.573  14.351   5.068 -0.0302 -0.0767 -0.0371
 5816W        W24670   0.204  16.930  10.370  0.0411  0.1823 -0.1249
 5817W        W24671   7.412   8.772   4.110  0.0381 -0.1226 -0.0344
 5818W        W24672   4.695   2.446   1.965 -0.0647  0.1070  0.0669
 5819W        W24673  12.170   9.398   2.188  0.2327 -0.0114  0.0208
 5820W        W24674  19.034   3.181  12.979 -0.1226 -0.0405 -0.1166
 5821W        W24675   4.193   8.345   1.550 -0.6155 -0.2896  0.0160
 5822W        W24676   9.089   1.126   0.409  0.1414  0.3900  0.1789
 5823W        W24677   5.267   4.178  13.317 -0.2203 -0.2283  0.3850
 5824W        W24678  14.336  10.637   4.217 -0.1444 -0.2251 -0.0160
 5825W        W24679   9.555   5.000   0.374  0.0562 -0.2037  0.0952
 5826W        W24680   6.788   4.400   0.371 -0.2016 -0.2993  0.1185
 5827W        W24681  13.785   3.338  11.612  0.3690 -0.2109 -0.1047
 5828W        W24682   7.530   9.298   0.381  0.0649 -0.1381  0.3954
 5829W        W24683  18.735  15.948  11.155 -0.1013  0.3628 -0.0292
 5830W        W24684  12.534  14.086   3.900 -0.1448 -0.2622 -0.2493
 5831W        W24685   1.053   7.185   2.130 -0.1162  0.1125 -0.1376
 5832W        W24686   9.350   3.342  12.681 -0.1000  0.1373 -0.2459
 5833W        W24687   4.195   1.384   3.701 -0.0030  0.4057 -0.3498
 5834W        W24688   1.349  14.644  12.610  0.2527  0.6463  0.0089
 5835W        W24689   5.544  17.336   2.303 -0.0401 -0.0544 -0.1222
 5836W        W24690   8.134   6.564  10.766 -0.0913  0.0574 -0.0165
 5837W        W24691  11.738  14.870   2.229  0.2586 -0.0093  0.1469
 5838W        W24692   1.487  18.499   3.953  0.0069 -0.0164 -0.1962
 5839W        W24693   2.933   4.649  12.289 -0.0948  0.1162 -0.0484
 5840W        W24694   1.891   0.356  10.426 -0.1457  0.3151 -0.2386
 5841W        W24695  15.344   8.705  13.726  0.0675  0.0444  0.0884
 5842W        W24696  10.414  12.755  14.398 -0.2666  0.1184  0.1475
 5843W        W24697  14.676   3.712  14.668  0.4077  0.0445  0.2939
 5844W        W24698   3.909  15.560  12.343 -0.1586  0.1961  0.0119
 5845W        W24699  11.022  17.074   9.895 -0.0557  0.3673  0.0066
 5846W        W24700   7.418   4.035  13.807  0.2922 -0.3506  0.2010
 5847W        W24701   5.557  17.450   0.963  0.3418  0.0192 -0.1358
 5848W        W24702  17.329  16.262  12.143  0.3225 -0.1403 -0.2866
 5849W        W24703   5.172   0.936   1.631 -0.0142  0.1996  0.1358
 5850W        W24704   4.908   1.157  14.404 -0.0924 -0.2388 -0.0423
 5851W        W24705   3.516   7.972   3.349 -0.0926 -0.0068 -0.3487
 5852W        W24706  19.095   2.337   3.159  0.1621 -0.1735  0.2316
 5853W        W24707   0.079  13.155  11.911  0.0777  0.0228 -0.0762
 5854W        W24708   6.121   4.235   2.649  0.0804  0.0048 -0.1205
 5855W        W24709  15.270  18.955  11.453 -0.0428  0.2700 -0.3180
 5856W        W24710  11.846   1.023   0.696  0.3012 -0.1759  0.0197
 5857W        W24711  11.713  11.687   3.003  0.2805 -0.1210  0.3307
 5858W        W24712   2.265   6.449  10.620  0.0314  0.0781 -0.1802
 5859W        W24713  12.326  15.744   2.584  0.1509  0.1562  0.0055
 5860W        W24714  12.535  15.560  13.115  0.0774 -0.1284 -0.2370
 5861W        W24715  17.495   0.584  12.902 -0.0230  0.1069 -0.1349
 5862W        W24716  17.936   9.046   4.579  0.0607 -0.1221 -0.0476
 5863W        W24717  14.221   4.932   2.742 -0.0086  0.0446 -0.1888
 5864W        W24718  18.186  13.399  13.307  0.1309 -0.3889 -0.3246
 5865W        W24719   9.719   1.425  12.896 -0.1388 -0.2815 -0.1841
 5866W        W24720  13.354  16.370  13.930  0.0194  0.1494  0.4823
 5867W        W24721  18.525   3.082  12.309  0.0595 -0.1903  0.0299
 5868W        W24722   8.043   1.548  11.171 -0.0041  0.1008 -0.2122
 5869W        W24723   1.531  17.383  10.766 -0.1487 -0.2898  0.1500
 5870W        W24724   7.002   8.224   1.818 -0.0851 -0.1491  0.0020
 5871W        W24725  14.802  15.041  12.638  0.1104 -0.2542 -0.2649
 5872W        W24726  15.373   1.182   0.821 -0.0791 -0.0904 -0.0334
 5873W        W24727  16.409  13.776  12.340  0.1662 -0.1288  0.0884
 5874W        W24728  12.433   7.309  14.389  0.1855 -0.0412  0.0928
 5875W        W24729  14.422   4.800  14.291  0.2293  0.0850  0.0161
 5876W        W24730   8.522   2.181   3.237  0.1776  0.0935  0.0477
 5877W        W24731   6.185   1.175   2.643 -0.0506  0.1159  0.0127
 5878W        W24732   3.405  15.485  11.347 -0.0388 -0.0546 -0.1804
 5879W        W24733   4.492   8.309  13.504 -0.2211  0.2443  0.4638
 5880W        W24734  10.773   9.432   0.383  0.0146  0.1040  0.2518
 5881W        W24735  17.453  14.929  13.725  0.0914  0.1584 -0.1910
 5882W        W24736  17.054  11.368  13.892  0.0413 -0.2715 -0.3320
 5883W        W24737  17.081   0.078   3.695  0.3067  0.1664  0.1498
 5884W        W24738  12.380  12.607   2.261  0.1572 -0.1373  0.1096
 5885W        W24739   0.010  12.718   0.396  0.2633  0.0498 -0.1801
 5886W        W24740  10.259  10.984   2.086 -0.0225 -0.1137 -0.1078
 5887W        W24741   4.293   4.156   3.333 -0.2094 -0.0206  0.0053
 5888W        W24742  14.148   8.859  14.195 -0.2198 -0.1772 -0.2036
 5889W        W24743   8.738   2.114  13.363 -0.1432 -0.1767 -0.0068
 5890W        W24744   9.609   8.595   2.595 -0.0015  0.2189 -0.4262
 5891W        W24745  13.156   6.657   0.518  0.4118 -0.0903  0.0672
 5892W        W24746  18.373   3.841   3.781 -0.0521  0.2485 -0.0480
 5893W        W24747   9.658   6.163  12.607 -0.3523  0.3148  0.0062
 5894W        W24748   5.553   7.483  11.622  0.0802  0.2268  0.2109
 5895W        W24749  16.258  16.696   2.946 -0.1225  0.0183 -0.0283
 5896W        W24750   0.349   0.953   2.148  0.0532 -0.3900  0.0722
 5897W        W24751   2.415   2.927   3.184 -0.2083 -0.0147 -0.0232
 5898W        W24752  12.044   7.711   2.941 -0.2047  0.1913  0.2387
 5899W        W24753   6.670  12.325  11.265  0.1962  0.0159 -0.1212
 5900W        W24754  15.773   7.145   0.550  0.1541 -0.2489  0.2817
 5901W        W24755  18.121   4.660   2.100 -0.0836 -0.2043  0.1179
 5902W        W24756  11.167   0.247  11.472  0.0232  0.0620 -0.1543
 5903W        W24757   2.640  18.627  14.601  0.0650  0.2315 -0.1819
 5904W        W24758   5.027  16.121   5.319  0.0444  0.0869 -0.0722
 5905W        W24759  14.573  18.191   2.207  0.0147 -0.2510  0.3375
 5906W        W24760   0.195  13.956  13.181 -0.1197  0.4512 -0.0499
 5907W        W24761   8.040   1.708   0.499 -0.1117 -0.1313 -0.1976
 5908W        W24762   7.845  17.381  14.680  0.0310  0.0510  0.0086
 5909W        W24763   9.245   9.735  14.196 -0.2180 -0.0366 -0.0129
 5910W        W24764  10.767  17.879   4.793  0.2574  0.0797  0.1619
 5911W        W24765  10.164   8.757  12.235 -0.3353 -0.1137  0.4042
 5912W        W24766   5.407  13.213   0.469  0.1813  0.0705  0.0030
 5913W        W24767   7.253  16.607   1.331  0.1245 -0.1430  0.1534
 5914W        W24768  14.454   3.265  10.830 -0.0371  0.1077  0.0537
 5915W        W24769   3.274   2.135  14.762  0.0619 -0.1536 -0.1575
 5916W        W24770   7.651   4.945  12.048  0.1622  0.0450 -0.0283
 5917W        W24771   3.271   2.106  12.869 -0.0304 -0.0278 -0.0910
 5918W        W24772  10.562   3.996   4.029 -0.0378 -0.0287  0.0541
 5919W        W24773  14.140  10.394  11.278 -0.3054 -0.1567  0.4082
 5920W        W24774   6.523  11.105   5.404  0.1153  0.0387 -0.1248
 5921W        W24775  11.137   1.288   2.519 -0.4112 -0.2050  0.0250
 5922W        W24776  18.701   8.021   1.564  0.4434 -0.0362  0.0976
 5923W        W24777  16.086   8.307  13.620  0.2706 -0.1167 -0.4460
 5924W        W24778   9.656  17.767   3.668 -0.1144 -0.2790 -0.1323
 5925W        W24779  12.036  15.778  14.547 -0.3904  0.1241 -0.0479
 5926W        W24780  12.424  17.621   3.488 -0.1402 -0.1120 -0.0571
 5927W        W24781   3.347   4.212  11.997  0.1650 -0.0087  0.2196
 5928W        W24782   4.772  18.637   0.171 -0.1137  0.0048  0.0563
 5929W        W24783  10.097   2.082  14.636 -0.1662  0.4811 -0.1537
 5930W        W24784  15.942   8.750  13.383 -0.2646  0.2599  0.1784
 5931W        W24785   3.986  13.130   3.573  0.2624  0.2576  0.0079
 5932W        W24786  16.772   2.001  14.655  0.0820 -0.2282  0.2964
 5933W        W24787  18.906  10.652  11.861 -0.1312 -0.2275  0.0788
 5934W        W24788  14.928  12.539  12.772 -0.0105  0.1821  0.0889
 5935W        W24789   4.918  11.685   0.730 -0.1740  0.1642  0.0498
 5936W        W24790   6.061  10.591  12.142  0.2556 -0.0926  0.1538
 5937W        W24791   2.591   3.937   1.706  0.1037 -0.2182  0.1450
 5938W        W24792   7.321   7.724  14.181 -0.3952  0.1040 -0.2276
 5939W        W24793   6.483  11.681  11.371 -0.0757 -0.4796  0.2283
 5940W        W24794  11.402   3.144   0.149 -0.3743 -0.1448  0.0637
 5941W        W24795   0.147  16.011   3.832  0.2728  0.1194  0.0883
 5942W        W24796  14.297  17.149   1.735  0.3079 -0.1986  0.0495
 5943W        W24797   2.554   1.419   1.757 -0.0609  0.0262  0.4003
 5944W        W24798  16.512  16.378  11.010 -0.3535 -0.0169 -0.0187
 5945W        W24799  11.540   2.781   0.911 -0.1800 -0.1001 -0.2533
 5946W        W24800   2.038  11.671   4.399 -0.0975 -0.0785  0.0936
 5947W        W24801   9.822  10.366   0.072  0.3494 -0.1296 -0.4143
 5948W        W24802   7.538   7.563  11.313  0.3636  0.0324 -0.0308
 5949W        W24803   5.088  17.340   0.878 -0.0974  0.1053  0.1596
 5950W        W24804  13.214   3.686  13.270  0.1891 -0.0653 -0.0483
 5951W        W24805  17.758   6.874   1.456  0.2700  0.0258  0.0379
 5952W        W24806  13.555  14.697  14.162 -0.0645 -0.2812 -0.1434
 5953W        W24807  18.250   6.592  13.053  0.1520 -0.0253 -0.0769
 5954W        W24808   5.761   3.197   1.797  0.1698  0.1216  0.2211
 5955W        W24809   8.592   0.287  10.812 -0.0548  0.0415 -0.0260
 5956W        W24810  15.429  12.879  13.792 -0.2520 -0.1831  0.0946
 5957W        W24811  18.194   6.648   3.964  0.0196 -0.0535 -0.1974
 5958W        W24812  13.457   5.004  13.356  0.4050 -0.0094  0.1823
 5959W        W24813  17.193  11.648   1.730 -0.0317 -0.1088  0.0634
 5960W        W24814   0.317  18.640   3.238 -0.1472  0.1984 -0.0435
 5961W        W24815   5.120  10.313   3.886 -0.1725 -0.0115  0.1697
 5962W        W24816  16.326  10.811  13.488 -0.0537 -0.0397 -0.0293
 5963W        W24817   3.863   2.791  13.132 -0.0702  0.0733  0.0039
 5964W        W24818  17.372  15.189   0.612 -0.1324 -0.0362 -0.0112
 5965W        W24819   6.662  13.793   1.024  0.0347  0.1683  0.2460
 5966W        W24820   8.295   1.200   2.548 -0.0608 -0.1216 -0.1983
 5967W        W24821  18.487  15.496  13.082  0.1012  0.2944 -0.4065
 5968W        W24822   5.843   4.977   3.744 -0.1233  0.1254 -0.0454
 5969W        W24823   7.693   1.454   5.400 -0.0555  0.0537  0.2571
 5970W        W24824   0.585   6.611  10.362 -0.2693 -0.3505  0.1566
 5971W        W24825  16.068  18.595   2.416  0.0886 -0.1906  0.1782
 5972W        W24826  15.627   4.104   1.861 -0.0236 -0.1978 -0.2144
 5973W        W24827   8.177   3.534  14.102 -0.2915 -0.1457  0.1965
 5974W        W24828  15.378   4.753  10.751  0.0758 -0.4443  0.0119
 5975W        W24829  17.666   1.126   0.689  0.0233  0.0623  0.3274
 5976W        W24830  19.148  18.150   0.339  0.0466  0.0466 -0.0721
 5977W        W24831   4.097  14.041  11.209 -0.1158 -0.1147  0.1033
 5978W        W24832  16.597  11.963  12.356  0.2347  0.6523 -0.4519
 5979W        W24833  16.905   9.203  14.515  0.1328  0.0472 -0.0337
 5980W        W24834   4.078  11.360  11.169  0.2523  0.1983  0.1811
 5981W        W24835   1.216  17.975   0.993  0.2218 -0.0526  0.1219
 5982W        W24836   2.442   7.026  12.306 -0.2188  0.0245 -0.0045
 5983W        W24837  16.105  14.781   0.594 -0.1883  0.0802  0.0928
 5984W        W24838  13.157  18.876  12.624 -0.3136 -0.2143 -0.1757
 5985W        W24839  19.100  14.938  14.709  0.1818  0.0817 -0.1975
 5986W        W24840  14.542  17.799  12.718 -0.0391  0.0254  0.0178
 5987W        W24841  15.960  10.517  13.829  0.2822  0.0547  0.0941
 5988W        W24842  17.149  12.239   5.370 -0.1073  0.0212  0.0528
 5989W        W24843  18.483  10.891  13.143  0.0171 -0.0206 -0.0891
 5990W        W24844   7.850  12.177   0.378 -0.2387  0.2067 -0.2988
 5991W        W24845   0.804  12.182  12.303  0.1939  0.0830  0.0841
 5992W        W24846  15.560   9.288  12.614  0.2848 -0.3179 -0.2251
 5993W        W24847   8.301   4.159  12.032  0.0696 -0.0251 -0.0999
 5994W        W24848   7.824  15.129  11.256 -0.1772  0.0925 -0.0820
 5995W        W24849   9.316   0.342  13.435  0.0187 -0.3434 -0.3790
 5996W        W24850  14.791   6.063  13.151  0.1137  0.2020 -0.0615
 5997W        W24851   5.775  15.396  10.571 -0.0750  0.1000  0.0147
 5998W        W24852   7.887  15.722   2.484 -0.2586  0.1926 -0.1324
 5999W        W24853   4.263  13.771  13.773 -0.0710 -0.3037  0.1618
 6000W        W24854  17.155  15.998   4.833  0.3528  0.0152  0.3002
 6001W        W24855  10.319   7.280   2.066  0.2747 -0.0351  0.0656
 6002W        W24856   8.218   1.286   0.998 -0.1544  0.0732 -0.1478
 6003W        W24857  18.688  19.152  12.938  0.2298  0.3166  0.0202
 6004W        W24858  17.600   4.221   1.681 -0.1935  0.1539 -0.0987
 6005W        W24859  15.012   2.389  13.345 -0.0112 -0.0443 -0.0079
 6006W        W24860  11.312  13.301  13.244  0.2692 -0.2893  0.1636
 6007W        W24861   2.218   6.832   2.533 -0.3427  0.0912  0.2159
 6008W        W24862   8.223   6.808  11.745  0.0109  0.2398 -0.1296
 6009W        W24863   2.134   4.321  12.708 -0.0738  0.3140  0.3070
 6010W        W24864  18.826  10.404  10.851 -0.1942  0.1047 -0.0948
 6011W        W24865   2.177  18.705   0.754  0.1974  0.0851  0.2303
 6012W        W24866  18.672  15.186   3.927  0.0500 -0.0028 -0.3133
 6013W        W24867   4.022   8.195   9.657 -0.2814 -0.0940  0.0559
 6014W        W24868   8.673   3.255   3.429  0.1438  0.4281 -0.2453
 6015W        W24869  17.135   4.577   3.716 -0.1067  0.2119 -0.0580
 6016W        W24870  16.297  12.320   4.228 -0.1914 -0.2081  0.0816
 6017W        W24871  13.574   9.596   3.304  0.3541 -0.2312 -0.0990
 6018W        W24872  17.445   6.480  12.624  0.1292  0.2962  0.1457
 6019W        W24873   2.855   6.727   4.620 -0.2462  0.0863 -0.1296
 6020W        W24874   8.957   3.846  13.357  0.1424 -0.4188  0.1673
 6021W        W24875   5.631   0.317   1.975  0.0735  0.1516 -0.4109
 6022W        W24876  15.383  11.396   2.330  0.2851  0.3329 -0.1833
 6023W        W24877  13.724   5.023  11.435  0.3074  0.1102 -0.0440
 6024W        W24878   9.889  16.650  11.541  0.0021  0.0661  0.2552
 6025W        W24879  10.891  15.976   2.948  0.2849 -0.0949 -0.2339
 6026W        W24880  13.680  10.175   0.096 -0.1954  0.1848 -0.1204
 6027W        W24881  11.043  15.231   0.714 -0.0205 -0.2289 -0.1652
 6028W        W24882  10.316  11.805   1.303  0.2035  0.1641  0.0145
 6029W        W24883   3.454   2.700  13.984 -0.0377  0.3362 -0.2361
 6030W        W24884  11.463   2.730   2.753 -0.1129 -0.1400 -0.1990
 6031W        W24885   6.843   6.380   2.235  0.1052  0.2860 -0.0389
 6032W        W24886  10.185   2.538  13.374 -0.1719  0.3139  0.0471
 6033W        W24887  11.935   5.679  10.745 -0.1001 -0.0697  0.0246
 6034W        W24888   6.497   9.518  12.693  0.0615 -0.0585 -0.0717
 6035W        W24889  18.532   7.797  13.541 -0.1975  0.1103  0.2450
 6036W        W24890   9.050   8.894  12.410 -0.0257  0.1829  0.3192
 6037W        W24891   8.331  12.288  12.025  0.0814 -0.2780 -0.0522
 6038W        W24892   8.891  19.139  13.446 -0.0135 -0.1256  0.2790
 6039W        W24893   4.715   9.469   1.837  0.1049 -0.0109 -0.1009
 6040W        W24894  13.116   2.242  10.596  0.0936  0.2338  0.0649
 6041W        W24895   4.956  12.097  12.235 -0.2799 -0.1707  0.1761
 6042W        W24896  11.191  12.167  13.464  0.0976  0.2604  0.2270
 6043W        W24897   7.372   8.393  12.297 -0.1008 -0.0420  0.1894
 6044W        W24898   1.331   9.925  14.606 -0.0061 -0.2762  0.0517
 6045W        W24899  17.501   6.584   1.158 -0.0969 -0.2218 -0.2881
 6046W        W24900   6.751  10.006  11.762 -0.4376 -0.1718  0.0869
 6047W        W24901   8.201   5.743   2.478 -0.4019 -0.0194 -0.4248
 6048W        W24902  11.596   7.190   0.202  0.0694  0.1758  0.1463
 6049W        W24903  14.865  14.660   3.460 -0.3070  0.3016 -0.0409
 6050W        W24904   3.727   5.228   2.431  0.0715  0.1100 -0.2311
 6051W        W24905  14.968  15.716   3.277 -0.1737 -0.1254  0.1422
 6052W        W24906  18.378   9.181  14.717 -0.0626 -0.2935  0.0582
 6053W        W24907   1.477   8.083  13.783 -0.3133  0.0299 -0.0143
 6054W        W24908   1.091   6.500   3.454  0.2551 -0.1608 -0.1988
 6055W        W24909  12.027   1.370  11.403 -0.3197 -0.2096  0.0440
 6056W        W24910   5.742  16.083   1.614  0.4117  0.2222 -0.1289
 6057W        W24911  16.589   8.681   3.006 -0.0394 -0.3803 -0.2392
 6058W        W24912   1.101   5.501  11.414 -0.2833  0.2636  0.0584
 6059W        W24913  12.187  18.718  12.352 -0.1011  0.1043 -0.3087
 6060W        W24914   8.106   8.856   1.533 -0.0507 -0.3087  0.0858
 6061W        W24915   4.723  10.144  12.963  0.3055 -0.0251  0.0089
 6062W        W24916  16.837  17.640   1.490  0.0622  0.1940 -0.0443
 6063W        W24917  10.940  15.952  11.708 -0.0753  0.0203  0.0230
 6064W        W24918  11.245  13.994  14.425  0.0854  0.0774 -0.2533
 6065W        W24919  11.071  11.362  11.466 -0.1378 -0.1675 -0.1046
 6066W        W24920  13.415   0.700   2.720  0.0858 -0.2150 -0.4530
 6067W        W24921  14.387  18.374  10.936 -0.2038 -0.1164 -0.2088
 6068W        W24922   9.796   8.725   2.066  0.0890  0.1537  0.2090
 6069W        W24923  17.258   6.602  12.121  0.3961 -0.3612  0.1603
 6070W        W24924  17.195   6.389  13.506 -0.0100 -0.1039  0.0976
 6071W        W24925  17.208   0.126   1.909  0.0190  0.0211 -0.0306
 6072W        W24926   5.374  16.991   2.694  0.0299  0.3418  0.1463
 6073W        W24927   7.518  13.378   0.726  0.6324  0.1119 -0.3739
 6074W        W24928   1.064  12.882   3.312 -0.0922  0.1287 -0.1574
 6075W        W24929   5.262  16.455   2.378 -0.0140 -0.3011  0.2073
 6076W        W24930   7.214  11.025   1.505  0.2578  0.1149 -0.2047
 6077W        W24931   7.754  16.595  13.114  0.2765 -0.0965  0.0522
 6078W        W24932  15.060  10.248   0.842 -0.4062  0.2270 -0.0658
 6079W        W24933   5.764  13.826  14.710 -0.2197  0.0598  0.3297
 6080W        W24934  10.823   5.813  10.833  0.0726  0.0303 -0.2576
 6081W        W24935   9.959  15.451  12.914  0.1266 -0.1328 -0.1144
 6082W        W24936   3.163   3.383  11.526  0.3799 -0.3167 -0.0427
 6083W        W24937  16.327  14.636  11.407  0.0089 -0.0805  0.2440
 6084W        W24938   7.317  15.615  11.380  0.0498  0.0846 -0.3490
 6085W        W24939   4.647  11.703  14.727  0.2103 -0.0493 -0.2707
 6086W        W24940  14.089   5.402   2.886  0.3403 -0.0907 -0.0861
 6087W        W24941   6.882  11.921  11.523  0.0637  0.2324  0.0890
 6088W        W24942   2.005  15.018   3.953  0.0910  0.0815 -0.0626
 6089W        W24943  17.353   9.838   1.285  0.0306 -0.0966 -0.6193
 6090W        W24944  17.645   6.645  13.111  0.1823 -0.1909 -0.3095
 6091W        W24945  12.882  10.150   1.206  0.0062  0.0794 -0.1941
 6092W        W24946   7.392   1.490  11.500 -0.2572 -0.0806  0.2948
 6093W        W24947   1.228   7.237   0.270 -0.0616 -0.0294 -0.0772
 6094W        W24948   1.859  18.877   3.949 -0.5370  0.0239 -0.0880
 6095W        W24949   4.737  17.064  12.751  0.1924 -0.0613  0.0087
 6096W        W24950  11.223  12.048  12.943 -0.1008  0.0966 -0.1171
 6097W        W24951  17.056   1.874  10.490  0.0154  0.1727  0.0096
 6098W        W24952   2.544  15.569  11.107 -0.0460  0.0054 -0.1352
 6099W        W24953  12.235   5.261   0.779  0.6221  0.0175 -0.0617
 6100W        W24954  11.567  14.137  13.051 -0.0703  0.0503  0.2977
 6101W        W24955   3.055   7.771   2.048 -0.1526 -0.1312  0.2530
 6102W        W24956  10.133   0.237   1.803  0.0707  0.0601 -0.2321
 6103W        W24957  11.783   5.408   2.108  0.1459  0.0589 -0.0162
 6104W        W24958   9.990   7.210  11.807  0.1976  0.2128 -0.0663
 6105W        W24959   7.223  13.977  12.963  0.0033  0.0588  0.1169
 6106W        W24960   1.567   8.796   2.464  0.1405  0.1196 -0.3422
 6107W        W24961   8.278   4.139   3.644 -0.2448  0.1346 -0.0675
 6108W        W24962   3.285  10.415   2.954  0.0617  0.1331  0.0189
 6109W        W24963   7.284   4.635  14.459 -0.3646  0.0214  0.0543
 6110W        W24964  18.924  16.341   2.309 -0.4957 -0.1984 -0.1927
 6111W        W24965  17.120  14.196  12.418 -0.3967 -0.4448  0.1517
 6112W        W24966  12.317  17.704  10.982 -0.2420  0.3280 -0.0356
 6113W        W24967   3.032   0.459  11.189 -0.1441 -0.1424 -0.0149
 6114W        W24968  18.302   5.411   4.387  0.1823 -0.1690  0.1180
 6115W        W24969  13.340   6.965  13.984  0.0488  0.0327 -0.1100
 6116W        W24970   3.523  11.020  10.259  0.0761 -0.0956  0.2427
 6117W        W24971   9.387   2.512  12.904  0.2617 -0.0454  0.1741
 6118W        W24972   8.045   0.723   0.335 -0.1053 -0.1370  0.0346
 6119W        W24973  12.829   7.614   1.625  0.1723 -0.1436  0.1640
 6120W        W24974  16.218  18.736   2.857 -0.4287  0.1307 -0.4500
 6121W        W24975   3.458  14.384   2.137 -0.1888 -0.0892 -0.0374
 6122W        W24976  15.393  12.589  12.269  0.1065  0.0109  0.0002
 6123W        W24977   1.437  11.445  11.670  0.0731 -0.3028 -0.1143
 6124W        W24978  12.989  13.899  14.277 -0.3139 -0.2307  0.0183
 6125W        W24979  18.175   4.067  10.978 -0.0135 -0.1624  0.1563
 6126W        W24980  18.723  10.249   2.908 -0.3684  0.1344  0.1259
 6127W        W24981  14.272   2.281   3.401  0.0603 -0.0694 -0.0823
 6128W        W24982  17.251   0.139  12.990 -0.1000 -0.1092  0.1263
 6129W        W24983   8.996  12.571   0.267  0.0048 -0.1598  0.1318
 6130W        W24984  15.439   4.181  10.819 -0.2922 -0.3771  0.0206
 6131W        W24985   1.875   6.310   2.655 -0.0032 -0.1536 -0.3399
 6132W        W24986  13.931  16.894   0.357 -0.0803  0.0914 -0.0165
 6133W        W24987  17.130   1.410   3.146  0.0587 -0.2271  0.2127
 6134W        W24988   9.015   0.636  14.395 -0.4079  0.0281 -0.4112
 6135W        W24989   2.147   4.581   9.821  0.0235 -0.0369 -0.1048
 6136W        W24990  17.249  12.680   0.265 -0.2660  0.2247 -0.3025
 6137W        W24991  10.744   8.035   5.242 -0.0218  0.1612 -0.3250
 6138W        W24992  14.529   0.606  12.769  0.1306 -0.2635 -0.2160
 6139W        W24993   0.466   2.329  13.015 -0.0353  0.2177  0.1229
 6140W        W24994  13.328   7.336  13.713 -0.0056 -0.0353  0.0031
 6141W        W24995   1.628  14.885  14.368  0.1795  0.1517 -0.1307
 6142W        W24996   5.142  13.782   3.196  0.1702  0.3385  0.0656
 6143W        W24997  15.491   4.136  11.722 -0.2792 -0.1747 -0.1604
 6144W        W24998  17.632  14.703   9.936  0.3170  0.0754 -0.2471
 6145W        W24999  12.578   5.785  13.332 -0.0812  0.4045  0.1539
 6146W        W25000  15.421   2.720  13.231  0.0358  0.1974  0.2129
 6147W        W25001   7.385   2.312   2.451  0.1700 -0.2251 -0.0151
 6148W        W25002   6.322  18.346   3.307 -0.1415 -0.0211  0.0373
 6149W        W25003   8.552   5.873  11.371  0.2139 -0.0147  0.2512
 6150W        W25004  14.583  17.460  12.145  0.0533  0.0579 -0.3636
 6151W        W25005   3.923  14.950  13.638 -0.0392  0.0624  0.3050
 6152W        W25006  11.694   7.702  10.981 -0.0961  0.2278  0.3178
 6153W        W25007  18.400   5.958   3.318 -0.0957 -0.2681  0.2245
 6154W        W25008   0.050  13.049  13.152  0.0986  0.1046 -0.3588
 6155W        W25009   7.932   6.537   0.123  0.1634 -0.0228 -0.0378
 6156W        W25010  16.843   3.972   0.778  0.0414  0.1198 -0.2198
 6157W        W25011  15.482  15.531  11.331 -0.0732  0.2326 -0.0342
 6158W        W25012   8.782  15.768  10.770 -0.0353 -0.2354  0.0197
 6159W        W25013   6.575   6.690   0.119 -0.1686  0.2435  0.0306
 6160W        W25014   3.639   8.599  11.292 -0.3267  0.1082  0.1010
 6161W        W25015   2.362  15.410  14.478  0.0729 -0.2740  0.2262
 6162W        W25016  14.644   6.638   2.447  0.3415  0.2845  0.2349
 6163W        W25017   2.377  16.607   1.382 -0.0563 -0.0461  0.1901
 6164W        W25018  10.014   2.279  10.796  0.0135 -0.0512  0.3685
 6165W        W25019  10.818  15.903   1.376 -0.2588  0.0394 -0.1829
 6166W        W25020   6.449   1.771  12.939  0.2597  0.0013  0.3833
 6167W        W25021  10.834  12.543   2.307  0.2469  0.0063 -0.0984
 6168W        W25022   3.804   4.020  11.978  0.1186 -0.0481  0.3746
 6169W        W25023  17.266  14.255   2.979  0.0496 -0.0867 -0.3171
 6170W        W25024  11.886  11.353   1.719 -0.0575  0.2242  0.0251
 6171W        W25025   0.680   8.833  10.443 -0.0212 -0.0482 -0.1057
 6172W        W25026   3.381   8.103   1.091  0.1117  0.2311  0.3440
 6173W        W25027  17.028   5.307  14.658 -0.0657  0.1839 -0.2078
 6174W        W25028   2.115  10.971   2.933  0.0976  0.2069 -0.1054
 6175W        W25029   6.812  15.346   2.270 -0.1984  0.2434  0.0682
 6176W        W25030   5.428   1.553  10.788 -0.2467  0.2460  0.1009
 6177W        W25031   3.574   8.531  14.100  0.0001  0.2188  0.0731
 6178W        W25032  13.781  12.419  12.297 -0.3325 -0.2866 -0.0899
 6179W        W25033  16.193   1.217  10.961 -0.1125 -0.2566 -0.0601
 6180W        W25034  12.163   1.810  12.811 -0.0989 -0.0340 -0.0789
 6181W        W25035   2.504  15.451   2.594  0.0906  0.1079  0.0716
 6182W        W25036   9.438   1.365  14.234 -0.1335 -0.2181  0.2052
 6183W        W25037  12.812  17.674   2.291  0.2817  0.0742  0.2479
 6184W        W25038   5.158   5.109   9.664  0.1012 -0.0527 -0.1499
 6185W        W25039   2.167  14.331   1.050 -0.0657 -0.2167 -0.2743
 6186W        W25040   0.317  16.958   3.696 -0.0508  0.5609 -0.3314
 6187W        W25041   1.591   9.682  13.487  0.0212 -0.2761 -0.0309
 6188W        W25042  12.789  14.419  10.819  0.0222  0.0922  0.3350
 6189W        W25043   6.088   3.732   2.720 -0.1184  0.1712  0.3047
 6190W        W25044  15.475   5.925  13.737  0.0531 -0.1135 -0.0316
 6191W        W25045   1.179   3.704  10.971  0.0651 -0.2932  0.0975
 6192W        W25046   1.999   6.263  12.374  0.2589  0.1198  0.0442
 6193W        W25047   7.943   6.905  12.277  0.1705  0.1008  0.0943
 6194W        W25048   8.391  10.872  10.468 -0.2379 -0.2542 -0.0315
 6195W        W25049   4.650   1.600  10.108  0.1362 -0.3669 -0.1581
 6196W        W25050  16.930   7.639   0.903  0.0581  0.1231  0.2275
 6197W        W25051  10.988  10.182  14.507  0.1946 -0.2695 -0.3783
 6198W        W25052  11.732   6.299   3.413 -0.2173  0.2515 -0.1611
 6199W        W25053  15.441  10.303  13.357 -0.1828  0.1518 -0.0869
 6200W        W25054  13.214  12.367  12.417  0.0762 -0.2319  0.2903
 6201W        W25055  16.701  14.295  13.691  0.4506 -0.4169 -0.1246
 6202W        W25056   8.645  17.984   5.288 -0.0458 -0.0880  0.3842
 6203W        W25057  12.835   2.895  12.796  0.0629 -0.0487 -0.0986
 6204W        W25058  14.819  13.617  14.385  0.0534 -0.2041  0.1665
 6205W        W25059  15.732  17.496   3.742  0.0960 -0.2490  0.1532
 6206W        W25060   3.260  16.719   2.320 -0.1925 -0.0643 -0.0599
 6207W        W25061   5.224   3.546   2.848  0.2033  0.0408 -0.1902
 6208W        W25062   2.679   2.951   3.625  0.2091  0.1294 -0.1729
 6209W        W25063   7.605  15.625   0.907 -0.0653  0.0068 -0.0628
 6210W        W25064   5.970  16.807   1.715 -0.0348  0.2195  0.0377
 6211W        W25065  10.146   9.044  11.261  0.0856 -0.0486 -0.2333
 6212W        W25066   3.470   1.874  13.290 -0.1385 -0.4203 -0.1625
 6213W        W25067   1.879  17.996  11.326  0.1451 -0.3120 -0.2551
 6214W        W25068   2.804  16.259   2.095  0.3045  0.2369 -0.2207
 6215W        W25069   3.757  13.599  13.694  0.2003 -0.2794  0.0630
 6216W        W25070   6.957  13.618  11.377 -0.1074  0.2275 -0.1605
 6217W        W25071   2.341   7.506  11.314 -0.1297  0.0166  0.2822
 6218W        W25072  10.398  10.706  11.979 -0.0548  0.2640 -0.1846
 6219W        W25073   0.309  11.436   4.624 -0.0176 -0.0082  0.1712
 6220W        W25074  15.824  12.445   1.369 -0.2433  0.1551  0.0941
 6221W        W25075   0.425   2.147  11.899 -0.1462 -0.0081 -0.1684
 6222W        W25076   3.607  14.755   1.250 -0.0080 -0.0248  0.0641
 6223W        W25077  16.058  17.085  14.598 -0.1639 -0.1383 -0.0635
 6224W        W25078  13.416  15.260   0.443  0.1552  0.4721 -0.3975
 6225W        W25079  18.001   2.396   2.373  0.0254  0.3125  0.1206
 6226W        W25080   4.102   5.712   3.287  0.0221 -0.1065  0.0587
 6227W        W25081  16.592  16.700   0.575 -0.2019  0.0922 -0.0042
 6228W        W25082   1.314   2.764  10.842  0.0806 -0.0208 -0.0676
 6229W        W25083  17.299   6.980   0.240  0.4556 -0.0267  0.0340
 6230W        W25084   3.652   3.879  13.187  0.0183  0.0194  0.1468
 6231W        W25085  14.542   7.575  13.027  0.1914 -0.1555 -0.0682
 6232W        W25086   5.972   2.817  13.860 -0.2230  0.0819  0.0347
 6233W        W25087   5.186   5.161   0.202  0.0729  0.0733 -0.1054
 6234W        W25088  14.835   8.221  11.611  0.0235  0.1411  0.2560
 6235W        W25089   5.673   2.638  11.488 -0.1768  0.2026 -0.0941
 6236W        W25090   0.306  15.993   1.179  0.1944  0.0032  0.0990
 6237W        W25091   5.802   2.316   0.786  0.1182  0.0121  0.1083
 6238W        W25092  15.199   5.036  13.652  0.0032 -0.2177  0.0790
 6239W        W25093  18.460   3.833   1.886  0.1118 -0.0951 -0.4408
 6240W        W25094  10.888  15.530  13.839  0.0579 -0.2374 -0.0917
 6241W        W25095   1.602   7.564   0.331 -0.0180  0.0645 -0.3376
 6242W        W25096   5.096  12.745   2.579 -0.0943  0.0389 -0.0065
 6243W        W25097  16.702  14.213   2.949  0.1162  0.1345 -0.0268
 6244W        W25098  10.533   9.344   3.165  0.3212  0.0639 -0.0103
 6245W        W25099  12.439   5.282  13.376 -0.1500 -0.3043  0.0725
 6246W        W25100   7.596   2.459  10.980 -0.0458  0.0477  0.1737
 6247W        W25101   6.436  15.377  11.912  0.1242  0.0507  0.3558
 6248W        W25102   6.912   8.794  12.902 -0.0204 -0.1393 -0.1587
 6249W        W25103   6.329  11.663  14.291  0.2999  0.0072 -0.1074
 6250W        W25104   7.204   8.257   1.159 -0.0266  0.1456 -0.2454
 6251W        W25105   0.515   5.879   0.292 -0.0451 -0.2390 -0.0083
 6252W        W25106  18.262   3.172   0.344 -0.4273 -0.2856  0.0884
 6253W        W25107  18.784   2.517  11.773 -0.0071 -0.1582 -0.2017
 6254W        W25108  16.871   4.716  14.116 -0.3257  0.2024 -0.0873
 6255W        W25109   7.496   6.862   4.224  0.1933 -0.1945  0.0303
 6256W        W25110   8.450   5.953  12.187 -0.0146 -0.0642 -0.1544
 6257W        W25111  17.737  15.615  10.874 -0.1244  0.0066  0.0817
 6258W        W25112   2.694  18.756   2.680 -0.3711 -0.0895 -0.1334
 6259W        W25113   8.689  15.177   3.666 -0.0643 -0.1258 -0.0068
 6260W        W25114   1.143   1.922   3.571 -0.1935 -0.2294 -0.2538
 6261W        W25115   3.400   1.504   3.353  0.0713 -0.2843  0.1963
 6262W        W25116  11.226   5.155  13.710  0.5074  0.2107  0.1017
 6263W        W25117  11.074  14.923   0.119 -0.0998 -0.1474 -0.0877
 6264W        W25118  11.757   1.528  11.823  0.3652 -0.2095  0.1322
 6265W        W25119  15.383   0.920  13.487  0.2372 -0.0565 -0.3031
 6266W        W25120  11.587  13.262  14.771  0.0267 -0.2750 -0.2000
 6267W        W25121   5.307  13.348  13.765 -0.2193  0.1096  0.0036
 6268W        W25122   7.629  13.805   1.545 -0.0252  0.0253 -0.3364
 6269W        W25123  12.021   5.905   3.315  0.1525 -0.1341 -0.1775
 6270W        W25124   6.696   4.367   4.461  0.1460 -0.1023 -0.1211
 6271W        W25125  16.750  10.616  13.607  0.4801  0.0586 -0.2594
 6272W        W25126  11.581   3.629  11.090  0.0068 -0.0997 -0.2139
 6273W        W25127  15.058  11.232   4.021 -0.1813 -0.4145  0.1092
 6274W        W25128   9.016  11.148  13.291  0.0697 -0.0940  0.1581
 6275W        W25129  10.263  13.559  12.355 -0.3297 -0.1461  0.1444
 6276W        W25130  18.726   2.708   1.239  0.1558 -0.1101  0.3613
 6277W        W25131   7.272  14.860  13.958  0.0269 -0.0252  0.2942
 6278W        W25132  16.707   1.319  11.264 -0.0865  0.1324 -0.0151
 6279W        W25133   7.030  11.308   0.518 -0.1512 -0.0681 -0.1472
 6280W        W25134  17.395   8.080   3.614 -0.3129 -0.0231 -0.1577
 6281W        W25135  16.465   2.139   3.261 -0.1495  0.3666  0.3357
 6282W        W25136   3.966  15.474  14.214 -0.0957 -0.1545  0.1439
 6283W        W25137  15.503   6.224  12.679  0.1966  0.1881 -0.0601
 6284W        W25138  16.364  18.700   0.074  0.1705 -0.0211 -0.2196
 6285W        W25139   6.817  18.552  12.755 -0.0513 -0.0157  0.1198
 6286W        W25140   9.150   1.072  11.831  0.1510 -0.1534 -0.1575
 6287W        W25141  11.644   5.282  12.885  0.1387 -0.1087 -0.2434
 6288W        W25142   1.442  18.223  11.273 -0.1174 -0.3280 -0.0324
 6289W        W25143   0.887  18.979  12.856 -0.0091  0.0302 -0.2426
 6290W        W25144  14.641  13.130  12.313  0.4207  0.1212  0.1228
 6291W        W25145   9.570   8.082   2.681 -0.0248 -0.0809 -0.1376
 6292W        W25146   4.070  10.034  12.664  0.1292 -0.3559  0.2493
 6293W        W25147  15.908   6.091  13.931  0.1950 -0.1692 -0.2836
 6294W        W25148   3.506   9.030  14.241  0.0870  0.0480  0.1880
 6295W        W25149  10.434  14.875  10.381 -0.0842 -0.1789  0.0930
 6296W        W25150   6.417  11.514   3.609  0.1243  0.3082 -0.1238
 6297W        W25151  14.145  14.045  13.214  0.3318  0.1862 -0.0467
 6298W        W25152   8.678  16.366  14.335 -0.1199  0.2239 -0.1970
 6299W        W25153   0.275  10.165   2.236  0.0362  0.0618  0.0745
 6300W        W25154   5.113   2.972  14.081 -0.0982 -0.0688 -0.0234
 6301W        W25155  13.253  12.699  12.892 -0.1112 -0.3492  0.0512
 6302W        W25156  15.109   0.605  13.250  0.0031  0.3822  0.0488
 6303W        W25157   6.848  12.082  10.797  0.1972 -0.0325 -0.1540
 6304W        W25158  10.083   7.488  11.359  0.2569  0.2573  0.1554
 6305W        W25159  13.118   9.191  14.738 -0.0624 -0.1061 -0.1692
 6306W        W25160  14.604   8.347  11.213  0.1809 -0.0186 -0.0335
 6307W        W25161   0.767  16.565  11.506  0.0300 -0.1520 -0.1673
 6308W        W25162  14.164  11.241  12.455  0.1777 -0.0789 -0.0561
 6309W        W25163   9.250   9.671   4.242 -0.1309 -0.2125  0.1055
 6310W        W25164   7.635   0.949  10.089  0.3207 -0.0539 -0.0159
 6311W        W25165   9.227  12.695  13.017 -0.2735 -0.2782  0.1335
 6312W        W25166   8.954   2.453   3.450  0.2603  0.3108 -0.0172
 6313W        W25167   4.830  10.617  13.682 -0.0266  0.0519  0.2102
 6314W        W25168   3.301  17.903   1.211  0.3191  0.0016 -0.0612
 6315W        W25169  11.312  11.901  10.570  0.3141  0.1850  0.1214
 6316W        W25170  15.061   5.872  12.751  0.0256  0.2320 -0.0513
 6317W        W25171   3.374   3.008   1.049 -0.1472  0.1893  0.0459
 6318W        W25172   5.744   2.888  12.895  0.1510 -0.1554 -0.1253
 6319W        W25173  11.686  12.905   2.774  0.2518  0.0685 -0.2084
 6320W        W25174   3.160  17.734   3.345  0.3773  0.1885 -0.0804
 6321W        W25175  14.253  16.971  14.530  0.0907  0.1691  0.2148
 6322W        W25176  11.778   7.862   3.432 -0.0629 -0.2441  0.1040
 6323W        W25177  14.384   3.700   0.367  0.0092 -0.0575 -0.0295
 6324W        W25178   7.194  18.842   3.201  0.1021  0.2368 -0.2726
 6325W        W25179   0.702   1.852   2.087  0.1308  0.1037 -0.1648
 6326W        W25180   7.123   1.192  13.305 -0.1279 -0.3424 -0.0255
 6327W        W25181   1.769  18.930   0.321 -0.1726  0.0435  0.0913
 6328W        W25182  14.679   0.318  13.246  0.1139  0.0082 -0.2305
 6329W        W25183   7.695  15.415  11.675 -0.0089  0.1866 -0.1751
 6330W        W25184   0.864  12.090   4.639 -0.2911 -0.1879 -0.1486
 6331W        W25185  15.465  16.907  11.905  0.0219 -0.0836  0.1439
 6332W        W25186   5.515   3.795   3.791 -0.0795 -0.2789 -0.3090
 6333W        W25187   8.077  14.828  11.708 -0.2330 -0.0998 -0.1006
 6334W        W25188   8.421   8.466  13.139 -0.2454  0.0533 -0.1672
 6335W        W25189   2.782  15.064   2.672  0.1871  0.0836  0.0600
 6336W        W25190   0.689   0.956  13.644 -0.1450  0.0725 -0.1141
 6337W        W25191   7.031   4.784  13.246  0.0142  0.2298 -0.0020
 6338W        W25192  16.770   6.895   0.298 -0.1278  0.2246  0.0520
 6339W        W25193   2.784  12.333   3.694 -0.2213 -0.1216 -0.0850
 6340W        W25194   1.952   5.115   5.306  0.0446  0.0774  0.1265
 6341W        W25195   3.982   1.003  12.554 -0.0923  0.3629 -0.0600
 6342W        W25196   8.189   8.984   0.162 -0.0371  0.2221 -0.1283
 6343W        W25197  18.884  15.261   2.659 -0.0220 -0.0988 -0.0960
 6344W        W25198  16.998   8.564  11.331 -0.2607  0.0486  0.2818
 6345W        W25199  18.149  10.349  11.614  0.2511  0.0612  0.1535
 6346W        W25200   9.762  13.720   0.405 -0.1432 -0.0444  0.1008
 6347W        W25201   7.427  11.808  12.148  0.0423  0.4984  0.0776
 6348W        W25202   2.326  15.665  12.988  0.5448  0.0871 -0.2254
 6349W        W25203  15.715   4.484  13.417 -0.5055 -0.4425 -0.0367
 6350W        W25204  12.002  14.031  13.356  0.0571 -0.0489 -0.0715
 6351W        W25205  17.114   3.770   4.362  0.0155 -0.1730 -0.0124
 6352W        W25206   2.697  13.179  13.556 -0.1256 -0.2015  0.3010
 6353W        W25207   0.687   3.231  12.941  0.1040  0.2588 -0.1238
 6354W        W25208   8.875   5.618  13.695 -0.4740  0.0236 -0.1050
 6355W        W25209  18.786   3.784  14.778 -0.3214  0.0931 -0.1339
 6356W        W25210  14.172  10.488   1.845  0.1785  0.3817 -0.0639
 6357W        W25211   9.500   2.892  12.566  0.3799 -0.3927  0.1389
 6358W        W25212  14.739  18.895   0.711 -0.2372  0.0069 -0.0951
 6359W        W25213  12.932  16.270  13.491  0.2723 -0.0769  0.0827
 6360W        W25214  18.779   7.302  14.217  0.1049  0.4157 -0.1458
 6361W        W25215   4.301   3.556  11.075  0.1336 -0.2856 -0.3035
 6362W        W25216   8.630   1.720   1.694  0.0967  0.1468  0.2672
 6363W        W25217   4.197  19.031   2.371  0.0794 -0.0245 -0.3489
 6364W        W25218   9.954  19.104   2.178  0.0725  0.1205  0.0630
 6365W        W25219  12.303   0.725  14.712 -0.1793  0.1505 -0.0639
 6366W        W25220   2.218   1.619  10.721 -0.2629 -0.1669 -0.0966
 6367W        W25221   6.630   0.707   4.091  0.4306  0.0867  0.2045
 6368W        W25222   9.779  10.933   4.278 -0.1284 -0.0158 -0.1763
 6369W        W25223  10.874  13.897   2.335  0.2057  0.2619 -0.3220
 6370W        W25224  14.849   5.790   9.812 -0.1967 -0.2452 -0.2571
 6371W        W25225   0.695   5.943  11.227  0.1984  0.0448  0.0494
 6372W        W25226  17.011  10.809   2.818  0.1933  0.2686 -0.0621
 6373W        W25227   6.136   9.392   9.949 -0.2601  0.0523  0.1321
 6374W        W25228  15.476  16.718  12.797  0.3095 -0.0903 -0.0016
 6375W        W25229   9.963   5.228  11.710  0.1311  0.0522 -0.3951
 6376W        W25230  12.583   4.821   2.726  0.0786  0.1266  0.0481
 6377W        W25231  15.785   4.389   3.771 -0.0310 -0.2061  0.0990
 6378W        W25232   7.614  10.942   3.528 -0.0092 -0.0975 -0.4307
 6379W        W25233   1.380  19.111  12.831 -0.0338  0.1143 -0.0878
 6380W        W25234  12.402  13.114   2.343 -0.0651  0.3291 -0.0475
 6381W        W25235  12.308  19.122  10.406 -0.1132 -0.0855  0.0262
 6382W        W25236   3.818   5.439   2.900 -0.2024 -0.0692 -0.0784
 6383W        W25237  13.898  16.108   2.586 -0.1781 -0.2116  0.2819
 6384W        W25238  13.399   8.664   4.034  0.0184 -0.0325 -0.1440
 6385W        W25239  14.209   5.905   2.769  0.3229  0.2508  0.1644
 6386W        W25240   1.265   5.765  11.012  0.0663 -0.3925  0.0416
 6387W        W25241   3.103  15.854  11.154 -0.1796  0.0293 -0.0057
 6388W        W25242   5.889  13.991   0.556  0.3351 -0.1609 -0.2268
 6389W        W25243   7.396   9.731   4.155  0.4258  0.1100 -0.0573
 6390W        W25244  14.262   6.220  11.375 -0.2793 -0.1256 -0.1035
 6391W        W25245   9.854   1.189   1.172 -0.0932  0.2451 -0.0791
 6392W        W25246   9.321   7.421  14.751  0.0499  0.0923 -0.2842
 6393W        W25247   4.283  18.361  14.526 -0.0320  0.1533  0.4514
 6394W        W25248  18.414   2.618  12.089 -0.2180 -0.2806  0.0896
 6395W        W25249   3.321  16.116  12.586  0.0923 -0.0047 -0.4408
 6396W        W25250   0.216  14.845   4.779 -0.0829  0.0670 -0.0938
 6397W        W25251   9.705   3.316  10.523 -0.0642  0.1126 -0.0970
 6398W        W25252  15.865  17.071  10.578  0.2736  0.1757 -0.1218
 6399W        W25253  10.377   1.459   2.868  0.5291  0.0968  0.1611
 6400W        W25254  16.147  11.770  12.283 -0.1921  0.0906  0.3714
 6401W        W25255  17.051   7.416   4.859 -0.0197 -0.0430 -0.1410
 6402W        W25256  17.232   1.340  11.206 -0.0678  0.1382  0.2918
 6403W        W25257  11.046  10.198   2.728 -0.0806 -0.1450  0.0489
 6404W        W25258  10.895   6.605   3.215 -0.1156  0.1533 -0.0888
 6405W        W25259   8.810  11.280  10.340  0.0464  0.2079  0.4231
 6406W        W25260  15.454  17.792   2.848 -0.0030 -0.2066 -0.0050
 6407W        W25261  10.751  18.574   0.985  0.2376  0.0176  0.0757
 6408W        W25262   4.532  17.978  13.375  0.0215  0.2670  0.0194
 6409W        W25263  11.900  18.183  14.364 -0.0129 -0.1248 -0.0280
 6410W        W25264  13.745  10.601   2.808 -0.0432  0.0190  0.1233
 6411W        W25265  18.115   8.580  13.856  0.1399 -0.1833 -0.1277
 6412W        W25266   1.684  17.096   3.965 -0.0518  0.1354  0.4156
 6413W        W25267  11.800   2.053  13.133 -0.0455  0.1366 -0.2107
 6414W        W25268   7.532  11.135  14.215 -0.0096  0.2193 -0.0158
 6415W        W25269   3.966   9.193   1.130 -0.1465  0.0595 -0.3938
 6416W        W25270   0.238   3.541   2.851 -0.0915 -0.2232 -0.0104
 6417W        W25271   8.017   0.369  11.847 -0.1315 -0.1611  0.0397
 6418W        W25272   2.363  16.288  11.641 -0.1360 -0.2148  0.2083
 6419W        W25273   3.503  14.320   0.585  0.0077  0.1462 -0.0926
 6420W        W25274  16.875   8.025   3.547 -0.3779 -0.3162  0.3680
 6421W        W25275  12.715  15.659  14.025 -0.3028  0.1376 -0.1129
 6422W        W25276   9.709  14.311  13.992  0.1223  0.0467  0.1295
 6423W        W25277   2.792  14.963   3.209  0.1078 -0.0796 -0.1574
 6424W        W25278  16.816   2.789  12.945 -0.1002  0.1781  0.0702
 6425W        W25279   0.926   1.770  12.607  0.2296  0.3422 -0.2053
 6426W        W25280  15.067   1.663   0.832  0.2289 -0.4005  0.0588
 6427W        W25281  12.364  13.640   1.210  0.2271  0.0140 -0.0094
 6428W        W25282   0.009  14.606  11.036  0.1748 -0.1425 -0.1862
 6429W        W25283   8.810  18.482   3.870 -0.0491  0.1080 -0.2849
 6430W        W25284   6.312  11.136  13.435  0.3586  0.4666  0.4181
 6431W        W25285  12.514  10.185  11.305 -0.0357 -0.0118  0.1760
 6432W        W25286  14.143  18.589  13.360  0.1844  0.1392  0.0479
 6433W        W25287  10.265  17.862   3.808  0.0263 -0.0005  0.0324
 6434W        W25288   3.105   4.087  11.255  0.0637  0.0214  0.0037
 6435W        W25289  17.108   3.145  13.180 -0.0173  0.2666 -0.2548
 6436W        W25290   7.040   7.106  11.062  0.3443  0.0291  0.0187
 6437W        W25291  10.636   7.707   3.375  0.2197  0.0653  0.1401
 6438W        W25292  14.996   8.940   3.949  0.1589  0.2117 -0.0667
 6439W        W25293   9.874  12.701  10.264 -0.1738 -0.2134  0.0720
 6440W        W25294   2.641   8.349   3.710 -0.0563  0.1235 -0.0186
 6441W        W25295   2.605   6.023   3.369 -0.0759  0.1729  0.2063
 6442W        W25296   1.693  11.776  11.408  0.0660 -0.1496  0.1208
 6443W        W25297  10.158   6.949  12.729 -0.0436  0.2130 -0.0811
 6444W        W25298   6.432   2.156  11.475 -0.0762 -0.0785 -0.1439
 6445W        W25299  18.417   0.200  10.636 -0.0221 -0.0543  0.0843
 6446W        W25300   8.858   5.227   4.316 -0.2159 -0.0687 -0.0564
 6447W        W25301   9.305  11.942   3.234  0.1621  0.0283 -0.0604
 6448W        W25302   1.892  13.050   3.776 -0.1131 -0.3975  0.1081
 6449W        W25303  17.389   8.208  10.914 -0.2540  0.3455 -0.1005
 6450W        W25304  18.087   6.100  13.799  0.0650 -0.0648 -0.3029
 6451W        W25305  15.640  15.555   2.688  0.1816  0.0428 -0.1134
 6452W        W25306  18.173  11.562   1.721 -0.0673 -0.0809  0.1296
 6453W        W25307  11.515  17.732   3.523 -0.2775  0.1613  0.0170
 6454W        W25308  12.919   6.112   3.093 -0.0790 -0.0609 -0.1137
 6455W        W25309   7.008   7.331  12.022  0.2755 -0.1631  0.1746
 6456W        W25310  15.311   5.238  11.055  0.1287  0.2425  0.3807
 6457W        W25311  12.784   9.944  10.433  0.0401  0.1304  0.0057
 6458W        W25312   4.203   6.228   3.393 -0.2179 -0.1872  0.1305
 6459W        W25313   3.156   5.167   2.341  0.2837 -0.3896 -0.0389
 6460W        W25314  10.829   9.099  12.388  0.0329 -0.0681 -0.0016
 6461W        W25315   2.773   7.418   2.829 -0.1315  0.3246 -0.1516
 6462W        W25316   2.814   1.945  12.748 -0.2209 -0.1666  0.1373
 6463W        W25317   8.390   6.782  12.449  0.0717  0.0134  0.0839
 6464W        W25318  14.245  17.582   4.736  0.2166  0.0842  0.2775
 6465W        W25319  10.085  10.127  12.176  0.0767  0.3351  0.2264
 6466W        W25320  15.636   8.332   2.323 -0.0386 -0.3288  0.0114
 6467W        W25321  16.358   7.538   1.443  0.1929 -0.1459  0.0460
 6468W        W25322  13.609  19.017  14.346  0.0471 -0.1401 -0.2616
 6469W        W25323   7.535  15.280  10.385  0.2042  0.0218 -0.0893
 6470W        W25324   8.679   6.067   4.780  0.2063  0.0929 -0.2736
 6471W        W25325   6.813   9.328   3.834  0.1464  0.2459  0.1579
 6472W        W25326  14.269   8.430  10.855  0.1400 -0.2154 -0.0775
 6473W        W25327  15.746   9.417   3.702 -0.2861  0.1250 -0.6411
 6474W        W25328   4.805   2.983   3.412 -0.1157 -0.0972 -0.1492
 6475W        W25329  18.728   8.455   2.137 -0.1762  0.0470  0.0703
 6476W        W25330   3.808   0.482  10.836 -0.0303  0.0816  0.0711
 6477W        W25331  17.282  18.628   1.084  0.3227 -0.0515  0.0467
 6478W        W25332  17.624   0.015   2.128 -0.5410  0.1445  0.2759
 6479W        W25333   0.931   0.837  12.208 -0.0324  0.1344  0.0517
 6480W        W25334  15.990   7.509  11.832 -0.0072  0.0474 -0.0811
 6481W        W25335  16.632   2.697  11.256  0.0156  0.1202 -0.0988
 6482W        W25336   2.966   3.263   0.802 -0.2921 -0.2087 -0.0828
 6483W        W25337  18.503   9.077  10.477  0.1536  0.6218 -0.1254
 6484W        W25338  13.827   9.133   0.612 -0.0181  0.3561 -0.0059
 6485W        W25339  16.894   2.077   1.355  0.1997  0.1803  0.2368
 6486W        W25340  11.877  16.466   1.494 -0.0052 -0.1099 -0.1268
 6487W        W25341  11.391   5.155   2.372  0.1095  0.1134 -0.1544
 6488W        W25342   7.455   2.037   1.040 -0.0012 -0.1550 -0.2863
 6489W        W25343   9.276   7.953  10.960  0.1342  0.1010  0.0210
 6490W        W25344   6.594  10.065   0.250 -0.2472 -0.0128 -0.0062
 6491W        W25345  10.980  18.689   0.222 -0.2838  0.2342  0.1668
 6492W        W25346   5.939   4.645   0.920 -0.0913  0.0810  0.3273
 6493W        W25347  17.451  16.078   1.259 -0.1504 -0.1215  0.2011
 6494W        W25348  17.235   7.746  13.316  0.4372  0.0664  0.1080
 6495W        W25349   3.643  10.858  12.182  0.2927  0.1637 -0.0423
 6496W        W25350  10.708   1.685  11.243 -0.2151 -0.0913  0.3998
 6497W        W25351  11.273   7.235  14.105 -0.1119  0.2478  0.0879
 6498W        W25352  11.752   5.542   2.606  0.0337  0.1018 -0.1542
 6499W        W25353  13.809   5.201  13.084 -0.5737 -0.0891  0.1290
 6500W        W25354   6.877   2.874  13.424  0.0287 -0.2563  0.0252
 6501W        W25355   6.658   9.686  10.679 -0.2186  0.0906  0.1430
 6502W        W25356   7.975   9.693  11.658 -0.1452  0.1920 -0.1281
 6503W        W25357   3.429  18.874   0.357 -0.0687  0.1606 -0.0126
 6504W        W25358   2.020  15.482  11.084 -0.0394 -0.0458 -0.0233
 6505W        W25359   0.147  18.124  10.020 -0.1157  0.0049  0.0658
 6506W        W25360   1.452  18.775  10.467 -0.0930 -0.1934 -0.0273
 6507W        W25361   1.782  18.142   4.700 -0.1569  0.1691  0.0524
 6508W        W25362   5.398   1.638  12.244 -0.3421 -0.0560 -0.2448
 6509W        W25363  16.874  11.633  12.748  0.0661  0.0776  0.2075
 6510W        W25364  12.307   5.561   2.697  0.1840 -0.0821  0.1326
 6511W        W25365   0.509   3.440  11.596 -0.3130  0.0745 -0.0026
 6512W        W25366  13.608   3.756  12.112 -0.2667  0.1369  0.0571
 6513W        W25367   8.019  18.408   3.260 -0.1569  0.2530 -0.0045
 6514W        W25368   9.389   8.128  12.977  0.2230 -0.0145  0.2023
 6515W        W25369   7.072   4.018  13.316  0.0964  0.2871 -0.0166
 6516W        W25370  13.313  15.180   0.904 -0.0824 -0.3932  0.4169
 6517W        W25371   2.664   0.277   3.830  0.0956 -0.0638  0.0836
 6518W        W25372  11.802  18.663   1.505  0.2068  0.1583 -0.0482
 6519W        W25373   9.539   8.534  14.745 -0.2643  0.0417  0.1037
 6520W        W25374   4.664  12.913   3.807  0.1995 -0.0173  0.3333
 6521W        W25375  15.115   5.784   0.982  0.0942  0.1066 -0.2081
 6522W        W25376  12.853  17.220  12.897  0.4175 -0.1685  0.0341
 6523W        W25377   1.759   3.930   3.790  0.2674 -0.2017 -0.0348
 6524W        W25378  11.163   4.564  11.991 -0.1622  0.1265 -0.1707
 6525W        W25379   0.642  14.172   5.134 -0.2215  0.0040  0.1371
 6526W        W25380  11.062   1.498   1.009 -0.0184 -0.0768 -0.0551
 6527W        W25381   2.332  12.982   4.248  0.1322 -0.0175 -0.2721
 6528W        W25382  10.342   2.599  12.832  0.0176 -0.0401 -0.0377
 6529W        W25383  14.049   4.265   3.339 -0.1200  0.0503  0.1580
 6530W        W25384  16.909  13.946  11.218 -0.1461 -0.2927 -0.0757
 6531W        W25385   1.288   1.456   3.195 -0.1620  0.0676  0.0784
 6532W        W25386  13.530   0.211   3.717  0.0695 -0.0186  0.0934
 6533W        W25387  12.504   2.020  11.301 -0.1419 -0.3217  0.0240
 6534W        W25388  16.714   1.652   4.014  0.1878 -0.1328 -0.1524
 6535W        W25389   4.242   5.452   2.236 -0.0595 -0.0054  0.2703
 6536W        W25390  16.045  12.315   0.135  0.0928 -0.1522 -0.0355
 6537W        W25391   9.047   9.845   5.115  0.1217  0.1464  0.0744
 6538W        W25392  13.972   1.391  10.629  0.1107  0.2984  0.1039
 6539W        W25393   8.737   3.208  14.424  0.1128  0.0687 -0.0669
 6540W        W25394   6.865   9.593  12.328  0.0631  0.0655  0.0979
 6541W        W25395   7.901   1.015   2.277 -0.1655  0.0472 -0.1607
 6542W        W25396  15.691  17.198  12.954  0.0933  0.1082 -0.2993
 6543W        W25397   7.400   5.220  12.684 -0.5874 -0.0490  0.0706
 6544W        W25398  13.939  16.783  11.360  0.0134  0.2350  0.3236
 6545W        W25399  18.211  17.853  12.719 -0.1261  0.0632  0.1437
 6546W        W25400   1.896   1.527  12.417  0.1193 -0.0384  0.0989
 6547W        W25401  11.659   8.973   2.395  0.5440  0.1418  0.1483
 6548W        W25402  14.686   4.166   2.195  0.1335 -0.3363  0.2346
 6549W        W25403   5.518   0.452  12.331  0.1325  0.1898 -0.1354
 6550W        W25404   9.600  11.951   3.879  0.0230 -0.2614 -0.1173
 6551W        W25405  12.389   6.794   1.581  0.0247  0.1973 -0.2154
 6552W        W25406  18.836   2.594  12.986  0.0513 -0.0995  0.2491
 6553W        W25407   3.407  13.745   4.329  0.4015 -0.3532  0.2252
 6554W        W25408  12.814   5.647  12.707  0.0803  0.0926  0.2187
 6555W        W25409   9.642   5.397   0.626 -0.0411 -0.0355 -0.0513
 6556W        W25410  13.108  13.029   3.998 -0.2089  0.3980  0.2597
 6557W        W25411  18.995   1.631  11.603  0.0507 -0.1144 -0.2920
 6558W        W25412  11.589   6.192   2.631 -0.2630  0.0512  0.1119
 6559W        W25413  17.942   6.981  11.598 -0.1506 -0.2949  0.2707
 6560W        W25414  13.686   4.697  10.955 -0.0563  0.0195 -0.0242
 6561W        W25415   3.440   3.517  14.316  0.2257  0.0171  0.1893
 6562W        W25416  14.621  12.217  11.806  0.0062  0.1025  0.0573
 6563W        W25417   2.497  16.405  10.093  0.0389  0.0962 -0.0496
 6564W        W25418   5.183   9.347  10.049  0.0412  0.1157  0.0616
 6565W        W25419   2.349  14.761   3.080  0.0707 -0.0832 -0.1132
 6566W        W25420   8.369   1.024   3.019  0.0642  0.0124  0.1072
 6567W        W25421   1.850  13.554  11.820  0.3259  0.1777  0.0059
 6568W        W25422   3.008  17.059   1.109 -0.1249 -0.0988  0.0804
 6569W        W25423   4.066   6.392  12.746 -0.0123  0.2436 -0.0780
 6570W        W25424  17.766   2.784   1.573 -0.2791 -0.0504  0.0200
 6571W        W25425  15.354   9.598  11.071  0.1807 -0.1389  0.0489
 6572W        W25426  15.930  13.896   3.888  0.2083 -0.3173 -0.3607
 6573W        W25427   8.981  14.202  13.093 -0.0356  0.2903  0.0841
 6574W        W25428   3.203  13.396   2.214  0.0980 -0.1365 -0.1135
 6575W        W25429   4.239  11.797  11.475  0.2571  0.0805  0.3163
 6576W        W25430  14.825   8.067  13.818  0.0153 -0.1145  0.0435
 6577W        W25431   6.362  18.733  12.903  0.1599 -0.3227  0.2456
 6578W        W25432  13.003  12.531   4.754  0.2002  0.1913 -0.1440
 6579W        W25433   9.000  12.726   3.706  0.0756 -0.1146 -0.0320
 6580W        W25434   8.300  10.972  11.899  0.0247 -0.0972  0.0153
 6581W        W25435   7.226  16.219  14.673 -0.1367 -0.0456  0.2413
 6582W        W25436   7.690  12.533   3.965  0.1362 -0.3651  0.1144
 6583W        W25437   7.431  10.169  13.454 -0.0798 -0.1356  0.2293
 6584W        W25438   8.624   8.438   4.588 -0.2691  0.0481  0.0887
 6585W        W25439  14.563  14.002   4.031 -0.0083  0.0603  0.0918
 6586W        W25440  18.311  12.432   2.006 -0.2237  0.0649  0.1475
 6587W        W25441  11.225  10.257  13.640  0.2635 -0.0508 -0.0094
 6588W        W25442   9.140  10.330  11.212  0.0877 -0.0391 -0.1862
 6589W        W25443   3.057  13.099   0.046  0.1622  0.1294  0.3011
 6590W        W25444  18.343  15.885  11.626  0.0954 -0.1650  0.0998
 6591W        W25445  14.776  14.349  13.607 -0.0410  0.0200 -0.1136
 6592W        W25446   9.774   7.840   3.117  0.0588 -0.0555  0.2402
 6593W        W25447   1.564   4.117   0.824  0.2213 -0.0351  0.2462
 6594W        W25448   6.510  15.287  14.385  0.4470 -0.1066  0.0749
 6595W        W25449  11.255   7.021  13.624 -0.0442 -0.2846 -0.1504
 6596W        W25450   5.834   3.455   0.784 -0.1037 -0.6422 -0.1851
 6597W        W25451   6.857   8.930   4.104  0.0139  0.0990 -0.1681
 6598W        W25452   1.911   0.457   3.425 -0.0131  0.2764 -0.0958
 6599W        W25453   4.909   4.956  12.286 -0.1412  0.1135  0.1251
 6600W        W25454   2.499  10.484   2.171  0.2341  0.0209 -0.0985
 6601W        W25455   6.203   9.563  13.883 -0.3460 -0.0908  0.1449
 6602W        W25456  12.270   9.788   2.854  0.3179 -0.2918  0.1940
 6603W        W25457   7.147   7.454  13.145 -0.0713 -0.2204 -0.1490
 6604W        W25458   5.181  14.136   4.054 -0.2046 -0.0876  0.0919
 6605W        W25459  10.168  13.179  10.903  0.0411 -0.1729  0.0748
 6606W        W25460   3.441   7.044   2.070 -0.0817  0.0574  0.0546
 6607W        W25461   1.425   7.370  11.256 -0.2835  0.3027 -0.4220
 6608W        W25462  11.796   4.321   5.350  0.1168  0.3112  0.2457
 6609W        W25463  15.218   8.824  11.100 -0.1253 -0.1348 -0.1294
 6610W        W25464   0.848  16.699   1.353  0.2995  0.1108 -0.0621
 6611W        W25465   4.207  18.143   2.478  0.0049  0.0580  0.1120
 6612W        W25466  14.648   3.264  13.891 -0.0160  0.2484  0.2605
 6613W        W25467   9.575   3.870  12.610  0.1119 -0.3247 -0.1845
 6614W        W25468  15.921  12.686  12.413  0.2658  0.2352 -0.0465
 6615W        W25469   9.250   3.196   3.614 -0.0356 -0.1278 -0.0573
 6616W        W25470  15.284   5.672   3.780  0.0128  0.3162 -0.4063
 6617W        W25471  12.338   0.981   4.035  0.0946 -0.1947 -0.0618
 6618W        W25472  11.160   6.521   3.958  0.2381 -0.0746 -0.0601
 6619W        W25473   1.693  17.076  11.611  0.0834  0.0932  0.2131
 6620W        W25474   1.405   4.246   3.537 -0.2168 -0.2339  0.1841
 6621W        W25475   6.228  16.132   2.208  0.1381 -0.1422  0.2096
 6622W        W25476  18.437   3.851  12.756 -0.0597 -0.2772  0.3855
 6623W        W25477  10.065   4.918   0.475 -0.3666 -0.0786 -0.0399
 6624W        W25478   0.352   4.587   0.192  0.1219  0.0294 -0.0242
 6625W        W25479   2.194  17.469  12.278  0.1577  0.2990  0.4231
 6626W        W25480   5.070  13.110   2.928 -0.2976  0.1599  0.0530
 6627W        W25481   9.629  14.388  10.348 -0.0323  0.2916  0.3341
 6628W        W25482  10.644   7.741  11.439  0.0511  0.0519 -0.2256
 6629W        W25483  17.556   0.858  14.729  0.2367  0.3055  0.1267
 6630W        W25484   6.582   0.943  12.712 -0.0423 -0.4812  0.2055
 6631W        W25485   2.421  13.022  11.090  0.1215 -0.2791  0.0920
 6632W        W25486  14.020   4.557  14.046 -0.1525 -0.1831 -0.0128
 6633W        W25487   6.772   6.709  12.004 -0.1597 -0.1272 -0.2402
 6634W        W25488  12.353   4.647   0.657 -0.3615  0.1885 -0.1197
 6635W        W25489  12.692   1.309  10.996  0.1511 -0.0207 -0.1135
 6636W        W25490   2.963  15.037  13.183  0.1474  0.0374 -0.1705
 6637W        W25491   3.126  11.975  14.253 -0.0769 -0.2050 -0.4514
 6638W        W25492   4.787  18.088   0.927  0.0755 -0.4074 -0.0521
 6639W        W25493   4.943   2.737   2.265  0.2217 -0.4324  0.2015
 6640W        W25494  15.827   1.366  12.189 -0.0073  0.2987 -0.0969
 6641W        W25495  14.593   8.193   1.664  0.1422  0.0582 -0.0490
 6642W        W25496   1.240  12.716  13.142  0.2848 -0.2224  0.2528
 6643W        W25497   9.052   9.351   2.040  0.0700 -0.2664  0.1448
 6644W        W25498  10.507   4.031   1.586 -0.0003  0.1821  0.1177
 6645W        W25499   5.706  11.709   9.246 -0.1277  0.0109 -0.0240
 6646W        W25500  14.074   0.465  13.919  0.4690 -0.1206 -0.1014
 6647W        W25501  12.376   1.346  14.763  0.0605  0.2091  0.0568
 6648W        W25502   9.599  16.849  12.202  0.2219 -0.3662  0.3771
 6649W        W25503   4.655  15.595   0.391  0.1277  0.2217  0.0106
 6650W        W25504   2.677  15.132   1.160  0.0615  0.5635 -0.0108
 6651W        W25505   9.397   1.647   2.186 -0.2016  0.0447  0.1435
 6652W        W25506   5.550  16.592  12.182 -0.5140  0.1917  0.1576
 6653W        W25507   5.321  10.526  10.211 -0.0764  0.1170  0.2048
 6654W        W25508   9.786   0.920  13.440  0.1360  0.1443  0.2972
 6655W        W25509   4.728   4.328  13.699 -0.3079  0.0185  0.2400
 6656W        W25510  10.572   1.394   2.318 -0.0486  0.0415 -0.1109
 6657W        W25511   9.773   6.140   3.202  0.0070 -0.4734 -0.0876
 6658W        W25512   1.639  18.722  14.519  0.1390 -0.1298 -0.0690
 6659W        W25513  12.683   4.240   4.232  0.2225  0.0225 -0.0364
 6660W        W25514   4.160  15.538   1.172 -0.3023 -0.0578  0.0511
 6661W        W25515  11.016   7.368   3.264 -0.0264  0.1410 -0.6299
 6662W        W25516  11.511   7.953   2.881  0.1620  0.0996 -0.2355
 6663W        W25517  15.158   0.607  11.940  0.0012 -0.2371  0.4593
 6664W        W25518   6.853  16.350   0.947  0.0010  0.2206 -0.0425
 6665W        W25519  16.340   7.104   2.936 -0.0819  0.1284 -0.1530
 6666W        W25520  10.920  13.926  10.752 -0.4351  0.1571  0.3510
 6667W        W25521   8.977   5.316  10.899  0.0699 -0.0797 -0.1626
 6668W        W25522   5.332  10.427   1.229 -0.2444 -0.3830  0.0171
 6669W        W25523   9.395  15.798   3.537 -0.3183  0.3052  0.4273
 6670W        W25524   4.824   3.142   4.192 -0.2251  0.1550 -0.2560
 6671W        W25525   7.173  17.475  11.028 -0.0984  0.0584  0.0374
 6672W        W25526   0.791   6.333  14.201  0.0929 -0.2713  0.0828
 6673W        W25527   0.360  14.771   1.209  0.1419  0.3309  0.0774
 6674W        W25528   4.224   2.555   2.759 -0.0996  0.0088  0.0967
 6675W        W25529   9.559  12.595  14.507 -0.0823  0.3410 -0.1212
 6676W        W25530  11.900  17.805  10.720  0.1268  0.2800 -0.0174
 6677W        W25531  11.262   5.392   0.008 -0.0738 -0.1499  0.0909
 6678W        W25532   1.958   9.406  12.662  0.2207 -0.0350 -0.0180
 6679W        W25533  13.135   5.394   4.738  0.0286  0.4383  0.1538
 6680W        W25534  11.486  10.322   2.494  0.0192  0.0807 -0.0237
 6681W        W25535   4.717   0.205  14.031 -0.0910 -0.0299  0.3032
 6682W        W25536  15.895   1.287  14.227 -0.0126 -0.0982 -0.2636
 6683W        W25537   6.928   5.296  12.354 -0.0343  0.0662 -0.0280
 6684W        W25538   4.842  18.285   3.965  0.3214 -0.2200  0.3431
 6685W        W25539   2.965  12.919   2.363 -0.3687 -0.1670 -0.0268
 6686W        W25540   0.449  13.748   4.195  0.1044 -0.2194  0.1405
 6687W        W25541   8.508  17.460  13.360 -0.0953 -0.0877 -0.1020
 6688W        W25542  18.760  10.386   3.391 -0.0042 -0.1007 -0.1494
 6689W        W25543  11.137  17.455   3.157  0.1043  0.3067  0.0890
 6690W        W25544   9.606   1.147   0.336 -0.2353  0.2636 -0.3073
 6691W        W25545   5.056   6.188   0.277  0.2416  0.0782  0.1204
 6692W        W25546   9.717  13.498  12.936  0.0309  0.1940 -0.3229
 6693W        W25547   2.094   5.115  11.850  0.0604  0.1797  0.0454
 6694W        W25548   3.985  17.451   3.201  0.1910  0.0388 -0.2947
 6695W        W25549   6.674  15.665  14.053  0.1668  0.1416 -0.0210
 6696W        W25550  11.317  15.952  10.687 -0.0431  0.0334  0.0005
 6697W        W25551  16.762  14.810   0.099 -0.0638 -0.2674 -0.0205
 6698W        W25552  11.126   8.166   1.272  0.0820  0.0791  0.2300
 6699W        W25553   4.184  13.368  14.564  0.0274 -0.1851 -0.0193
 6700W        W25554  18.699  10.742   0.247  0.0432  0.1074 -0.2339
 6701W        W25555  15.423  18.263   0.225 -0.0911  0.1313  0.1546
 6702W        W25556   1.005   1.552  11.391 -0.2887 -0.0424 -0.0569
 6703W        W25557  18.188  17.637  14.036 -0.3284 -0.0489 -0.0435
 6704W        W25558  17.080   2.692  13.609 -0.1633  0.3196 -0.1267
 6705W        W25559   7.025  12.700   0.862 -0.0095 -0.1880 -0.1720
 6706W        W25560  11.048   4.065  14.733 -0.1250  0.0145 -0.0790
 6707W        W25561   1.226   8.973   3.360  0.0793 -0.1382  0.0584
 6708W        W25562   2.796   8.855   4.261 -0.3764  0.2355  0.1754
 6709W        W25563  12.119  16.176  12.602  0.0616  0.0860 -0.1684
 6710W        W25564   6.543  15.506   0.157 -0.1809 -0.1664  0.0891
 6711W        W25565   1.253  14.785   5.073  0.4698  0.2214 -0.0735
 6712W        W25566  15.531  10.346  11.608  0.1970 -0.0930  0.1470
 6713W        W25567  12.512   5.544   1.151  0.0126  0.0307 -0.3929
 6714W        W25568  18.178   1.525   4.399 -0.0534 -0.0354 -0.1958
 6715W        W25569   8.204   9.386   4.320  0.2474  0.1239  0.4306
 6716W        W25570   1.950   9.985   1.239  0.2857  0.3474 -0.0432
 6717W        W25571  18.495  15.921   3.243 -0.0425 -0.4906 -0.0442
 6718W        W25572   3.918   4.626   0.186 -0.0892 -0.3640  0.4292
 6719W        W25573  13.312  18.248  10.426  0.3031 -0.0198 -0.0291
 6720W        W25574  12.871   7.888  14.339 -0.0762  0.1880  0.2083
 6721W        W25575   6.041   7.520   3.566  0.2560  0.1358 -0.4054
 6722W        W25576  11.992   0.906  11.599  0.0515 -0.1719  0.0521
 6723W        W25577   8.946  13.910  11.469  0.1276 -0.0229 -0.3520
 6724W        W25578  15.189   6.812  13.208 -0.1081  0.0382  0.0162
 6725W        W25579  14.652  16.782  14.129 -0.0427  0.1168  0.0542
 6726W        W25580  18.567  11.842  11.959 -0.1681  0.0582  0.0688
 6727W        W25581   0.804   8.631  11.262  0.2278  0.0462  0.2756
 6728W        W25582   8.511  14.391   3.177 -0.2947  0.3542 -0.1064
 6729W        W25583  13.634   5.384  14.078 -0.2108 -0.1642  0.0594
 6730W        W25584  10.871  10.463  12.088  0.1425  0.1164 -0.4735
 6731W        W25585   8.235  12.036  11.237  0.0428 -0.0305 -0.0812
 6732W        W25586  12.632   8.372  10.103  0.1567  0.2940 -0.1740
 6733W        W25587  11.443  18.554  11.426 -0.0536 -0.3001  0.0455
 6734W        W25588   4.588  17.239   0.736 -0.0683 -0.0590 -0.1060
 6735W        W25589   9.385   0.439   1.506 -0.1128 -0.1482 -0.2451
 6736W        W25590  19.121  17.529   1.771  0.3431  0.1627 -0.0187
 6737W        W25591   6.647  12.933   0.636 -0.1766 -0.0097  0.0649
 6738W        W25592  12.213   8.749   3.423 -0.0144 -0.3232  0.2235
 6739W        W25593   3.897   1.033   2.682  0.2546  0.2287 -0.0385
 6740W        W25594  14.587  10.683   4.630 -0.0094  0.1104 -0.3544
 6741W        W25595   7.471  12.173   2.142 -0.0818 -0.0311 -0.0698
 6742W        W25596  16.781   5.797   2.308  0.1317 -0.0287  0.0124
 6743W        W25597   2.076  17.805  13.637 -0.0891  0.0764  0.0409
 6744W        W25598  11.135  10.951  12.111  0.1995  0.0606 -0.3035
 6745W        W25599   2.470   5.208  14.769  0.1194 -0.6025 -0.1195
 6746W        W25600  12.975   0.530   2.430 -0.2361  0.5848 -0.0085
 6747W        W25601  18.868  14.557   3.439  0.1461  0.0354  0.0131
 6748W        W25602  14.230  17.578   0.916  0.4798  0.2209  0.3113
 6749W        W25603  18.811  15.160  13.284 -0.2692 -0.0476 -0.1336
 6750W        W25604   1.793  18.511   4.304  0.0422 -0.1319  0.1300
 6751W        W25605   7.665   7.105   1.296  0.0841  0.1076 -0.0404
 6752W        W25606  10.435   4.554  12.615 -0.0391 -0.2015 -0.0845
 6753W        W25607   2.296  14.257   3.135 -0.1420  0.0248 -0.1172
 6754W        W25608  10.283  16.123  11.036  0.1789  0.2340  0.2815
 6755W        W25609  15.954   8.087   3.019  0.3128  0.0760 -0.3796
 6756W        W25610   5.409  12.347  10.611  0.0932  0.1619  0.1667
 6757W        W25611  10.569   6.069  12.810  0.0389 -0.1215 -0.1115
 6758W        W25612   1.711  16.787  12.613  0.3184 -0.1290  0.1219
 6759W        W25613   8.491   3.830  11.618 -0.0694  0.1311  0.0058
 6760W        W25614  15.759   6.076   1.525  0.0074 -0.1396 -0.2709
 6761W        W25615  13.054   9.998  12.963  0.0680 -0.2673  0.0971
 6762W        W25616  10.134   5.383   0.692  0.1387  0.0219 -0.0018
 6763W        W25617  10.488   4.706  11.143  0.1632 -0.1032 -0.0000
 6764W        W25618   4.460  17.353  12.098  0.3443  0.1409  0.1088
 6765W        W25619   7.632   0.849  11.830 -0.1371 -0.1425  0.1072
 6766W        W25620   5.405  13.489   2.899 -0.0366  0.4554  0.0444
 6767W        W25621  15.117  11.172  11.016 -0.0616 -0.0601  0.1211
 6768W        W25622  17.987   1.752   3.990  0.0490 -0.1142  0.0005
 6769W        W25623  16.811   0.305   1.331 -0.0975 -0.2298 -0.2609
 6770W        W25624   4.870   7.097  14.142 -0.0480 -0.2131 -0.0831
 6771W        W25625   9.356   2.396   3.113 -0.0232 -0.1759  0.3137
 6772W        W25626  18.274  14.713  12.025  0.1069 -0.1387  0.0472
 6773W        W25627  18.241  11.159   1.408 -0.0535 -0.1745  0.1580
 6774W        W25628   1.310  16.920  14.614 -0.0758  0.1452 -0.2222
 6775W        W25629  16.134   4.323   2.476 -0.1413 -0.0061  0.0515
 6776W        W25630  13.380   8.370   0.514  0.1881 -0.1633 -0.0581
 6777W        W25631  13.233   3.866   3.705 -0.0410  0.0067  0.0733
 6778W        W25632   3.299  15.345   2.272  0.1288  0.0637  0.2848
 6779W        W25633  16.744  14.343  10.371 -0.2876 -0.1588 -0.1756
 6780W        W25634   8.620  12.980  10.430  0.0635  0.1661 -0.1594
 6781W        W25635   6.456   0.874  14.357  0.0909 -0.2494  0.0118
 6782W        W25636  17.042   7.188  12.947 -0.2671 -0.0332 -0.1056
 6783W        W25637  18.882   0.376   1.172  0.5057  0.1939  0.6135
 6784W        W25638   7.358   6.225  11.285 -0.1826 -0.0208  0.1374
 6785W        W25639   5.819  18.312   4.921 -0.3749 -0.1171 -0.0744
 6786W        W25640   1.343   7.048   0.825 -0.1195 -0.0698 -0.1514
 6787W        W25641  10.535  18.359   2.923 -0.1801 -0.3751 -0.0150
 6788W        W25642   8.659   1.021  11.953 -0.2051  0.0788  0.1453
 6789W        W25643   3.085   4.547  14.670  0.0736  0.2782 -0.0367
 6790W        W25644  14.653   9.317   2.598 -0.1129 -0.0032 -0.0379
 6791W        W25645  13.913  16.566  14.667  0.0455 -0.1985 -0.0694
 6792W        W25646  17.077  16.376  13.582 -0.0921 -0.1344 -0.0768
 6793W        W25647   3.165   5.945   2.764 -0.1071 -0.1349 -0.1999
 6794W        W25648   8.864   1.364   9.851 -0.1572  0.0736 -0.1935
 6795W        W25649  12.906  18.949  13.447  0.0087  0.1786  0.1580
 6796W        W25650   2.316   0.713  11.684 -0.1647  0.1953  0.2600
 6797W        W25651   7.389   9.896  12.052  0.1910  0.0807  0.1219
 6798W        W25652  10.164   8.276   1.895  0.4662 -0.1117  0.2078
 6799W        W25653   7.259   6.930  11.931 -0.0085  0.1147  0.2443
 6800W        W25654   6.447  14.430  10.897 -0.1706 -0.0609  0.1108
 6801W        W25655   1.347  14.776  13.990  0.2133 -0.1606 -0.2785
 6802W        W25656  19.010  12.260  13.137  0.2340 -0.2113  0.0583
 6803W        W25657  19.035   7.236  11.951 -0.1024 -0.0258 -0.1421
 6804W        W25658  14.756   1.587   1.346  0.1235  0.0398  0.0257
 6805W        W25659  10.134   8.702   0.388  0.2222  0.1964  0.1216
 6806W        W25660   6.617   7.246   2.828  0.0388 -0.4216  0.1111
 6807W        W25661  15.989  15.562  11.495  0.0367 -0.0818  0.1661
 6808W        W25662   2.354   3.041  11.446  0.3683 -0.1383  0.0853
 6809W        W25663  17.037   9.163   2.917 -0.0704  0.0731  0.2880
 6810W        W25664  11.736  17.674  14.447 -0.0578 -0.3789 -0.1590
 6811W        W25665  10.303  12.189  14.635  0.0150  0.2974  0.1172
 6812W        W25666   8.431   8.650   2.236  0.4311 -0.0061  0.4214
 6813W        W25667  15.602   8.376  13.497 -0.0644 -0.0699 -0.0736
 6814W        W25668  17.014  13.842   4.343  0.1340  0.0294  0.2748
 6815W        W25669   2.296  10.249   0.231  0.0157  0.0565 -0.3685
 6816W        W25670  10.173   9.041  14.095  0.0940  0.2631  0.1225
 6817W        W25671  17.004  14.772   1.116 -0.1789  0.0182  0.0506
 6818W        W25672  11.684   5.941  13.563 -0.1404  0.3358  0.1113
 6819W        W25673   4.825   1.561   2.849 -0.1905  0.0501 -0.1324
 6820W        W25674  10.325  18.835   0.882  0.0915  0.2816 -0.1776
 6821W        W25675  11.126  15.492  10.554 -0.0193  0.0977 -0.0498
 6822W        W25676  18.823   0.700  12.242 -0.0728  0.1135  0.4288
 6823W        W25677   1.385  18.367   1.226  0.1325  0.1041 -0.0050
 6824W        W25678  12.474  16.218  11.358  0.1492 -0.0690  0.3247
 6825W        W25679  14.742   9.478  13.451 -0.0660  0.0694 -0.4556
 6826W        W25680   3.974  13.235   0.509  0.2288 -0.0379  0.2115
 6827W        W25681   3.393  17.432   4.406 -0.0244  0.0724  0.0282
 6828W        W25682   2.351  11.904  10.765  0.3705 -0.0738 -0.0272
 6829W        W25683   6.914  11.569  12.435  0.1699  0.1221  0.3553
 6830W        W25684   9.141  13.350   3.928  0.2584  0.0835  0.1339
 6831W        W25685  17.419   2.472   4.331 -0.4787 -0.1602  0.0176
 6832W        W25686  14.221   1.013  10.374 -0.0566  0.2552  0.1059
 6833W        W25687  18.930  19.021   1.179  0.1482  0.0090  0.0733
 6834W        W25688   5.544  11.500  13.703 -0.2592 -0.0081  0.0716
 6835W        W25689  13.523   4.754   2.088  0.1503 -0.2728 -0.3697
 6836W        W25690   9.075   0.374  12.628 -0.0274  0.0798 -0.2461
 6837W        W25691  17.798  15.963  10.578  0.2869 -0.4275  0.0840
 6838W        W25692   0.143  11.580  14.345  0.0672 -0.0232  0.2367
 6839W        W25693  10.840   3.355   2.434  0.1294 -0.1158 -0.1478
 6840W        W25694  12.883   9.093  11.111  0.0479  0.4581 -0.0916
 6841W        W25695  15.033  10.161   3.183  0.3014 -0.2422 -0.1118
 6842W        W25696  16.070  16.479  12.157  0.0694  0.0192  0.0176
 6843W        W25697   6.328   5.705   1.017 -0.0824 -0.1968 -0.0469
 6844W        W25698  15.738   2.887  11.159 -0.0044 -0.2553 -0.3003
 6845W        W25699   0.830   0.540  10.155  0.0809  0.1338 -0.0263
 6846W        W25700   4.673   3.435   0.090  0.0148 -0.4792 -0.0994
 6847W        W25701   5.769  14.617  12.387 -0.1690 -0.5775  0.0336
 6848W        W25702  11.373  13.061   0.709  0.0476  0.0866 -0.0331
 6849W        W25703   1.719   0.601  13.845  0.0229 -0.0737  0.0633
 6850W        W25704   5.583  14.586  14.606 -0.0215 -0.2531 -0.0408
 6851W        W25705   9.035   5.188  13.991 -0.0608  0.1710  0.3478
 6852W        W25706   7.460  13.747  11.056 -0.0198  0.1060  0.0549
 6853W        W25707  17.052   3.937   2.501 -0.0229  0.1141  0.0907
 6854W        W25708   0.501   8.446  13.449 -0.0817  0.1044 -0.0996
 6855W        W25709   9.154  11.202   3.934 -0.0014  0.2198  0.0887
 6856W        W25710  18.526   1.454   0.149 -0.0285  0.3364 -0.2774
 6857W        W25711   8.268  17.067  13.844  0.3799  0.1683 -0.0383
 6858W        W25712   6.344   8.883   5.068 -0.1919  0.2864 -0.0828
 6859W        W25713   3.161  12.303   0.547  0.2567  0.2186  0.1717
 6860W        W25714  11.732  16.701  13.690  0.2470 -0.1109 -0.0743
 6861W        W25715   7.132   7.048   3.450  0.0081 -0.0279  0.0441
 6862W        W25716   9.601   6.066   2.300  0.1164 -0.0598  0.2691
 6863W        W25717   7.335   2.016   2.913 -0.0356  0.0492 -0.0085
 6864W        W25718   8.711  13.012   1.196  0.1168  0.2373  0.0028
 6865W        W25719   0.524   9.024  12.007 -0.1532  0.0983  0.0377
 6866W        W25720   8.106   5.654   1.456 -0.0454  0.0009  0.0660
 6867W        W25721  12.227  15.495   0.630  0.0880 -0.1075 -0.1544
 6868W        W25722   6.291  15.124   1.109  0.1266 -0.1137  0.0164
 6869W        W25723   2.192   7.941   3.644 -0.1408 -0.0270 -0.2004
 6870W        W25724   1.297  13.608  11.822  0.1909  0.0269 -0.0030
 6871W        W25725  18.908   8.842  13.558  0.0760 -0.3258  0.1201
 6872W        W25726   9.519   4.551  12.792 -0.0492  0.0756 -0.0776
 6873W        W25727  18.993  11.820   1.074 -0.0264  0.1899  0.0945
 6874W        W25728   7.928   6.502  12.868 -0.1316 -0.0790 -0.2453
 6875W        W25729  17.586   4.456  13.060  0.1405  0.1776 -0.0106
 6876W        W25730   3.172  12.778  12.080  0.0446  0.0218 -0.0089
 6877W        W25731  13.582   4.706   1.521  0.5018 -0.4340  0.0975
 6878W        W25732   2.994  16.779  11.400  0.3068 -0.3156 -0.0930
 6879W        W25733   9.929   1.386   0.668  0.0109 -0.0600 -0.1567
 6880W        W25734  17.720   9.010   1.816 -0.2239  0.0219  0.3782
 6881W        W25735  14.927   0.715   2.589  0.0446  0.1188  0.0251
 6882W        W25736  15.780  14.318   2.602  0.2281 -0.0487  0.1979
 6883W        W25737   1.982  18.541  10.462  0.2065 -0.2789 -0.2990
 6884W        W25738   4.673  14.827   2.430  0.0617  0.2827 -0.1013
 6885W        W25739   6.354  12.794  14.554  0.1343 -0.0672 -0.0533
 6886W        W25740  11.647  15.526   3.661  0.3209 -0.1357 -0.0381
 6887W        W25741   3.274   7.160  12.217  0.0106  0.0784  0.2490
 6888W        W25742   9.471  12.814  13.984  0.1983 -0.2320 -0.1182
 6889W        W25743   6.648  13.523  14.282  0.1173  0.1724 -0.2687
 6890W        W25744   3.753   6.350   2.554 -0.1458  0.2005 -0.1382
 6891W        W25745  10.852  16.810   0.114 -0.2462  0.3074 -0.1381
 6892W        W25746   8.856  13.518   2.322 -0.1135 -0.0520  0.3311
 6893W        W25747   9.580   4.540  11.168  0.1629 -0.0497 -0.0115
 6894W        W25748  18.661  17.043   4.006  0.0387 -0.0322  0.2825
 6895W        W25749  17.181   4.158  13.940  0.1017  0.0417 -0.0660
 6896W        W25750  14.829  12.862  13.183  0.0425 -0.1366  0.1727
 6897W        W25751  10.808  18.022   1.983 -0.2576 -0.1034 -0.0397
 6898W        W25752  17.017  10.778   3.358 -0.0200 -0.2776 -0.0523
 6899W        W25753  16.535  10.768   3.450  0.0317  0.0414 -0.1302
 6900W        W25754  13.703   3.395   1.297 -0.3435 -0.0283 -0.2238
 6901W        W25755   8.827   3.440   3.841  0.3876 -0.0073 -0.1672
 6902W        W25756   5.128  11.573   0.115  0.1931  0.0429  0.2864
 6903W        W25757  17.037   1.228   1.774  0.0923 -0.0503 -0.1747
 6904W        W25758  16.656   1.898  13.342  0.2912 -0.0853  0.0329
 6905W        W25759   3.405  13.117   4.343 -0.1899  0.0807 -0.0945
 6906W        W25760  13.753   7.676  11.587  0.1081  0.1148  0.1985
 6907W        W25761  12.569   2.185  10.431  0.0631 -0.1455 -0.2926
 6908W        W25762  16.251   6.219   1.774  0.0201 -0.4852 -0.0855
 6909W        W25763  15.335   7.681  10.962 -0.4421  0.2219 -0.1330
 6910W        W25764  12.905   0.970   3.569  0.0299  0.1631  0.0619
 6911W        W25765  18.980  14.509  13.469 -0.0758 -0.3190  0.1450
 6912W        W25766   5.965   5.605   3.200  0.0842 -0.0170  0.1633
 6913W        W25767  18.130  14.797   2.940  0.1303 -0.0051  0.1314
 6914W        W25768  12.075  12.929  14.305  0.0280  0.0622 -0.2896
 6915W        W25769  17.761  11.884  13.009  0.3022  0.0702  0.0877
 6916W        W25770   8.489   7.892   4.637 -0.0663 -0.0067 -0.0215
 6917W        W25771   0.728  15.522  13.978 -0.2520 -0.1486  0.0924
 6918W        W25772  16.252   5.233   1.931  0.1807 -0.2814  0.0211
 6919W        W25773   2.322  13.155   3.518  0.1245 -0.0014 -0.1183
 6920W        W25774   6.858  18.070   2.581 -0.0579  0.3203  0.0194
 6921W        W25775   1.503   5.790   2.855  0.2615  0.0575 -0.2569
 6922W        W25776   0.644  12.008   2.535 -0.1692 -0.4080 -0.5342
 6923W        W25777  10.055   3.746  12.511 -0.1168 -0.4051 -0.1369
 6924W        W25778   1.243   6.722  12.211 -0.2162 -0.1458 -0.1460
 6925W        W25779  17.178  12.596  13.878  0.1649 -0.1595  0.0286
 6926W        W25780   7.253   6.412  10.464 -0.1886 -0.2668 -0.1385
 6927W        W25781  17.440   9.541   3.146 -0.0919 -0.2370  0.0256
 6928W        W25782   4.707   4.924   3.855  0.3398  0.0483  0.4403
 6929W        W25783  18.467   1.137   4.597  0.0154  0.0409  0.3192
 6930W        W25784   7.427   0.479  11.566 -0.0181 -0.0563 -0.0831
 6931W        W25785   9.509   1.961  12.204  0.3691  0.0620  0.2629
 6932W        W25786  18.936   5.061  13.778  0.0271 -0.1363 -0.3380
 6933W        W25787  16.971   4.352   2.838  0.1598 -0.3850  0.1227
 6934W        W25788   4.331  15.896   1.623  0.1579  0.3359 -0.1477
 6935W        W25789   9.592   3.276   3.127 -0.0452  0.0135 -0.0783
 6936W        W25790  14.962   3.996   4.433 -0.1492 -0.0786 -0.0303
 6937W        W25791  11.117   6.903   1.912  0.1651  0.2124 -0.0429
 6938W        W25792  17.819   0.389   0.048 -0.2900  0.1390  0.0983
 6939W        W25793  13.247   7.601   4.692 -0.2125  0.1278 -0.2621
 6940W        W25794  17.765  11.617  11.855 -0.0883 -0.1506  0.2604
 6941W        W25795  15.871  11.469   2.510  0.0901 -0.1085  0.0606
 6942W        W25796  11.406   0.647  12.316 -0.0814  0.0154 -0.0588
 6943W        W25797   0.502  17.054  13.415  0.3454 -0.4187 -0.0009
 6944W        W25798   7.874  15.238   0.660  0.3534 -0.7151  0.0752
 6945W        W25799  14.440  16.788   0.223 -0.0781  0.2805  0.0892
 6946W        W25800  15.762   6.968  12.553  0.1359  0.2620  0.1088
 6947W        W25801   9.981   8.947  13.131  0.1866 -0.0827  0.1762
 6948W        W25802  12.393  17.644   1.199  0.0667 -0.0242 -0.2134
 6949W        W25803  13.094  13.174   3.514 -0.2874 -0.0160 -0.0273
 6950W        W25804  14.485   8.860   2.693  0.2975 -0.0834 -0.1780
 6951W        W25805  11.584   9.520   1.038  0.0037 -0.2709  0.1553
 6952W        W25806   2.350  14.198  11.367 -0.2455 -0.0048  0.0291
 6953W        W25807   9.114  11.318   1.628 -0.2663 -0.0457 -0.2304
 6954W        W25808  12.158   1.878  11.708 -0.1574  0.3266  0.1691
 6955W        W25809  16.534   2.675   0.655 -0.1457 -0.0253 -0.2912
 6956W        W25810  11.178   0.644   1.576 -0.0523 -0.0517 -0.1188
 6957W        W25811   7.840  17.690   1.836 -0.2289 -0.1305 -0.1047
 6958W        W25812   5.818  16.150   1.011 -0.2391  0.2791  0.2430
 6959W        W25813   3.068   8.961  11.627 -0.0206  0.2251  0.0749
 6960W        W25814  16.414  10.689   2.018 -0.0472  0.2027 -0.1883
 6961W        W25815   6.601   5.633   3.261 -0.3269 -0.0770 -0.1193
 6962W        W25816   1.433  13.425  13.932 -0.2471  0.2047  0.1467
 6963W        W25817  13.953   0.795   1.892  0.2632 -0.3114 -0.0223
 6964W        W25818   3.278   4.810   5.143 -0.0066  0.2316  0.2375
 6965W        W25819   2.291   3.088  11.959  0.0053 -0.0990  0.1207
 6966W        W25820  10.095  18.765  13.591 -0.0177 -0.4182  0.1269
 6967W        W25821  14.732   1.737  11.896 -0.1826 -0.1447 -0.1199
 6968W        W25822  15.714   1.856  12.212 -0.2984 -0.1918 -0.2913
 6969W        W25823  13.790  15.545   2.898  0.2904  0.4321 -0.0500
 6970W        W25824  19.005  14.261  12.415  0.0516  0.1409  0.1346
 6971W        W25825   5.411   9.394   2.595 -0.0827  0.0727 -0.1615
 6972W        W25826   4.438  14.499   1.285  0.2800  0.0561 -0.1256
 6973W        W25827  17.809   8.671  11.530  0.0418  0.0928  0.2237
 6974W        W25828   4.775   5.146  11.873 -0.0028 -0.1689  0.0307
 6975W        W25829  16.512   6.223   4.086  0.2114  0.1418  0.0608
 6976W        W25830  18.934   4.865   1.363  0.0298 -0.1380 -0.0641
 6977W        W25831  12.259   8.682   1.554  0.1706  0.0449  0.1798
 6978W        W25832  15.789   9.056   3.400 -0.2679 -0.4170 -0.2514
 6979W        W25833  18.334  13.630  12.851  0.0912 -0.1930  0.1379
 6980W        W25834   6.618   7.436  11.776  0.4171 -0.1760  0.0628
 6981W        W25835  16.075   3.179   2.454  0.0703  0.1844  0.0081
 6982W        W25836  10.901   1.365  13.347 -0.2294 -0.1398 -0.0012
 6983W        W25837   2.183  14.663  12.551  0.4510 -0.0768  0.1142
 6984W        W25838  12.004   2.776   1.153 -0.1536  0.3916 -0.1039
 6985W        W25839  16.365   7.398   2.522  0.2975 -0.1999  0.2156
 6986W        W25840   6.529   0.424  13.497  0.0025  0.2016 -0.1505
 6987W        W25841   2.143   1.516   2.979 -0.0395 -0.1779 -0.0896
 6988W        W25842  12.096  11.935  13.027 -0.0004  0.0583  0.0326
 6989W        W25843  18.256   1.078   2.498  0.2292 -0.0189  0.1907
 6990W        W25844  10.713  17.747  14.657 -0.0296  0.0070  0.2362
 6991W        W25845   9.736   1.694  10.974  0.0594  0.0598  0.0571
 6992W        W25846   9.317  11.267  13.991  0.0289 -0.3209 -0.0197
 6993W        W25847  11.944  13.598  11.905  0.2208 -0.2421  0.3979
 6994W        W25848   6.414  12.956  13.646  0.1271  0.2313 -0.3627
 6995W        W25849   1.756   2.380   0.176  0.1382  0.0012  0.1421
 6996W        W25850  18.831   4.175   9.730  0.1788  0.1637 -0.2642
 6997W        W25851   2.512  12.611  12.267 -0.0073  0.0081  0.1942
 6998W        W25852  14.667   3.391  12.603  0.0031 -0.1043  0.0310
 6999W        W25853   8.797   8.805   3.723 -0.0120 -0.1113 -0.1756
 7000W        W25854   5.886   6.813  13.853 -0.0345 -0.3280 -0.0216
 7001W        W25855  18.954   5.938   2.996  0.2953 -0.1559  0.1403
 7002W        W25856   1.863  17.238   2.239 -0.0763 -0.1341 -0.3562
 7003W        W25857   4.116  12.983   0.106 -0.2183  0.0238 -0.0737
 7004W        W25858  12.548  14.937   1.294 -0.3821 -0.0095 -0.2903
 7005W        W25859   7.106   6.652   4.049  0.1730  0.0298 -0.1192
 7006W        W25860   2.746   7.456  13.615 -0.0528 -0.1841 -0.0230
 7007W        W25861   5.245  13.865   1.173  0.0323 -0.0815 -0.0399
 7008W        W25862  15.976  17.392   0.647 -0.3666  0.4387 -0.0568
 7009W        W25863   6.560  14.882  11.820  0.0064 -0.0922 -0.0269
 7010W        W25864   9.064   3.464   3.222  0.3183 -0.1313  0.1035
 7011W        W25865  12.028  13.355  14.613  0.1310  0.1487 -0.1950
 7012W        W25866  19.132   4.005  10.573  0.2554  0.2558  0.0664
 7013W        W25867   5.266  14.624  12.654 -0.0955 -0.0088  0.2119
 7014W        W25868   4.154   2.707  12.710  0.3826 -0.1905  0.3344
 7015W        W25869   2.433  17.500  12.821 -0.0221  0.0669 -0.0572
 7016W        W25870   7.879   8.723   3.867  0.1652 -0.2385 -0.1280
 7017W        W25871  13.958  16.487   2.239  0.2867  0.0654  0.0670
 7018W        W25872  15.351   1.478  10.898 -0.0927 -0.0251  0.1125
 7019W        W25873  14.646   4.092  10.273  0.2793  0.0989 -0.2723
 7020W        W25874   1.466  16.820   0.462 -0.2500  0.2514 -0.0425
 7021W        W25875  15.331   6.159  10.550  0.0182  0.2392  0.0795
 7022W        W25876   1.406   5.105  14.149  0.0719  0.1955 -0.1858
 7023W        W25877   6.382  11.391   4.467  0.0715  0.2425  0.1869
 7024W        W25878   1.485  10.339   1.917  0.0024 -0.0262  0.1250
 7025W        W25879  18.953  18.856  12.575  0.3348 -0.0274  0.0506
 7026W        W25880   9.087   7.262  14.332 -0.0740  0.2835 -0.5516
 7027W        W25881  18.624  15.407   2.247 -0.1990 -0.0338  0.3114
 7028W        W25882  17.935   7.369  12.893  0.0580  0.1098 -0.0673
 7029W        W25883   8.212  15.355  14.443 -0.0416  0.1373  0.1277
 7030W        W25884  14.101  15.178  11.324 -0.3162  0.0359 -0.0570
 7031W        W25885  17.283   1.450   0.903  0.1653 -0.3663  0.1966
 7032W        W25886   8.841   3.060   0.945  0.1787 -0.1289 -0.4582
 7033W        W25887   5.515  12.880  13.154 -0.0189  0.0230 -0.3203
 7034W        W25888  18.721   9.321   0.769  0.0949  0.0309  0.1598
 7035W        W25889  16.331   6.000  12.916  0.1927  0.1290 -0.0912
 7036W        W25890  12.377  18.943   2.381 -0.1599 -0.0477  0.1622
 7037W        W25891  10.320  17.174  13.585 -0.1834  0.0784  0.0190
 7038W        W25892  13.289   8.516  13.918  0.3315 -0.2155  0.5230
 7039W        W25893   8.248  11.369  10.299  0.0555  0.0331  0.1810
 7040W        W25894   9.746  17.355   1.645  0.1712  0.0811  0.1675
 7041W        W25895  10.708  14.178  14.335 -0.2924 -0.0526  0.1600
 7042W        W25896   0.792  13.899  12.514 -0.0117 -0.0339  0.2171
 7043W        W25897   2.368   8.680   4.038  0.4578  0.0513  0.3124
 7044W        W25898   9.140  14.150  14.686  0.3889  0.0685  0.1067
 7045W        W25899   2.818  17.793  12.877 -0.0622  0.0944 -0.0327
 7046W        W25900   7.072   1.729   0.318 -0.3473 -0.0256  0.1726
 7047W        W25901   1.604  18.597  11.924  0.1488  0.1196 -0.2744
 7048W        W25902   9.849  14.314   3.477 -0.0837 -0.0712 -0.0337
 7049W        W25903   2.321  17.221   2.475  0.1179  0.2294  0.0142
 7050W        W25904  14.020   7.312   1.243 -0.0960 -0.2103 -0.0425
 7051W        W25905   4.701   2.669   1.006 -0.1760 -0.2049 -0.3903
 7052W        W25906   7.002  15.536   3.341 -0.1963  0.1178 -0.4674
 7053W        W25907  16.974   2.384  12.487  0.2207  0.0859 -0.3210
 7054W        W25908  18.768  13.592  11.102  0.2726 -0.0429 -0.2555
 7055W        W25909   4.446  12.534   4.055 -0.1666  0.0085  0.1849
 7056W        W25910   8.691  18.767  11.745  0.3374  0.4638  0.3376
 7057W        W25911   9.209  10.803  14.202  0.2126 -0.3147 -0.0898
 7058W        W25912   7.612   3.343  12.853 -0.4244 -0.1556 -0.2863
 7059W        W25913   2.459   9.416  12.141 -0.1216 -0.2555  0.0696
 7060W        W25914   0.031  10.816  11.016  0.4416  0.2414 -0.1920
 7061W        W25915  10.965  15.332  12.887 -0.0808  0.0833  0.0801
 7062W        W25916   6.558  18.873  11.929 -0.2130 -0.4493  0.1762
 7063W        W25917   0.341   2.222   3.793  0.0059 -0.1918  0.0249
 7064W        W25918  12.777   7.846  11.170 -0.0946  0.2307  0.1308
 7065W        W25919  16.641   7.762   3.154 -0.0995 -0.0889 -0.0570
 7066W        W25920   6.909  10.094   0.696  0.1097  0.1087  0.1106
 7067W        W25921   1.218   3.618   1.926  0.2062  0.0457 -0.1708
 7068W        W25922  12.038  14.974  13.391 -0.2238 -0.0192 -0.3528
 7069W        W25923   1.157   7.729  12.100  0.0331  0.0735  0.1242
 7070W        W25924  16.040  10.297   9.998 -0.1392  0.2635 -0.0986
 7071W        W25925   8.160  12.201   3.502  0.1996 -0.1585  0.1504
 7072W        W25926   0.598   5.825  14.227  0.2532 -0.2187  0.1668
 7073W        W25927  13.029   3.954  11.602  0.0534  0.4695 -0.3033
 7074W        W25928   4.260   5.989  10.541  0.2082  0.2847  0.1387
 7075W        W25929  13.294  15.787  11.924 -0.0193 -0.0010 -0.1616
 7076W        W25930   0.135   2.526   0.357  0.0773  0.0038 -0.1776
 7077W        W25931  15.101   4.908  11.456  0.0470  0.2197 -0.3824
 7078W        W25932   1.765   1.076  12.551 -0.0340 -0.2114  0.3418
 7079W        W25933   8.169   1.287  12.183  0.0195  0.3040  0.1982
 7080W        W25934   5.017   6.402  10.577 -0.0279 -0.2797  0.2755
 7081W        W25935   0.580  10.507   1.826 -0.0012  0.3368 -0.0943
 7082W        W25936  10.231  15.982   2.490  0.0995  0.2726  0.2756
 7083W        W25937  10.364   9.205   2.466 -0.2908  0.0220 -0.3139
 7084W        W25938   9.315   7.931   3.361 -0.0115 -0.2309 -0.0802
 7085W        W25939   1.111   2.167   2.061  0.0649 -0.1562  0.4866
 7086W        W25940  18.501   8.614   0.727  0.1337 -0.0319 -0.1678
 7087W        W25941   6.654   3.469   0.304  0.1154  0.0368  0.1030
 7088W        W25942  15.359  15.033  13.255  0.0117 -0.2131  0.0297
 7089W        W25943  10.079  11.092  11.757 -0.3379  0.0768 -0.1593
 7090W        W25944  16.661  14.565  10.793  0.0641 -0.2359 -0.1377
 7091W        W25945   8.908   6.114  14.016 -0.0521 -0.0482 -0.2878
 7092W        W25946   0.690  18.668  13.996 -0.0479 -0.2348  0.2915
 7093W        W25947   1.372   6.494  10.739 -0.3616  0.4465 -0.5050
 7094W        W25948  17.282   8.886  13.013  0.1737 -0.1074  0.2440
 7095W        W25949   5.232   6.731   4.100 -0.0679  0.1938  0.2741
 7096W        W25950  19.120   0.915   1.045  0.0470  0.0134  0.5038
 7097W        W25951  16.763   9.628   0.468 -0.1928  0.0938  0.0691
 7098W        W25952   0.670   4.711   0.934  0.1122 -0.0273  0.0495
 7099W        W25953   8.641   4.670   3.276  0.2733 -0.1218  0.0393
 7100W        W25954  12.446   4.012   2.398 -0.0034  0.0079 -0.0213
 7101W        W25955   6.372  18.270   0.352  0.1068 -0.1132 -0.3353
 7102W        W25956  10.772   0.456  11.146 -0.2165  0.0666 -0.0893
 7103W        W25957  16.775  17.138  11.595 -0.1661 -0.0135 -0.2028
 7104W        W25958   3.152  18.070  11.571 -0.1433 -0.2538  0.0862
 7105W        W25959  16.749  14.923  11.266 -0.1834 -0.0263 -0.1377
 7106W        W25960   6.063   7.146   1.969  0.0272  0.0606  0.3068
 7107W        W25961   0.890   6.937   4.336  0.0073 -0.0007 -0.1457
 7108W        W25962  11.425   2.247   0.085  0.0721  0.0559 -0.1257
 7109W        W25963   4.832  14.858  11.433  0.0034 -0.1733  0.0175
 7110W        W25964   7.564  16.538   2.220  0.2031 -0.1973 -0.1793
 7111W        W25965   1.022   0.830  11.617  0.0321 -0.0943 -0.1730
 7112W        W25966   4.676   4.301   0.526  0.0080 -0.2860 -0.1731
 7113W        W25967  13.076  17.591  13.680  0.0544  0.4924 -0.0211
 7114W        W25968   5.997  16.658  10.818  0.1240 -0.0277  0.2162
 7115W        W25969  16.019  16.899   1.618 -0.1617  0.0399  0.0839
 7116W        W25970  16.940  10.652   3.902 -0.4942 -0.4707 -0.1559
 7117W        W25971  14.246   9.176  13.323  0.1922  0.0864 -0.1435
 7118W        W25972  18.420   5.675  12.613  0.0722 -0.2725  0.0981
 7119W        W25973   9.097   2.766   2.679 -0.3192  0.1650 -0.1179
 7120W        W25974   6.916   4.316   2.439  0.2332  0.2046 -0.1043
 7121W        W25975   8.965   4.219   3.203 -0.1162  0.1408  0.1999
 7122W        W25976  16.175   1.775   3.946 -0.0325  0.0545 -0.5367
 7123W        W25977  18.249   9.148   0.784 -0.2281 -0.0951  0.2372
 7124W        W25978  10.554  13.026   2.582 -0.1814 -0.1112  0.0589
 7125W        W25979   8.761   5.753   2.530  0.0205  0.1390 -0.1443
 7126W        W25980  11.725   6.163   0.772 -0.0736 -0.5053 -0.1657
 7127W        W25981   7.140  18.196  13.185  0.1051  0.1577 -0.2247
 7128W        W25982  18.215   2.407   2.946  0.0652  0.0110  0.3023
 7129W        W25983  11.854   3.324  13.270 -0.0626  0.2770  0.0637
 7130W        W25984  12.992  10.730  12.233  0.0608  0.1609  0.1167
 7131W        W25985   2.872   6.939   1.496 -0.0788  0.0451 -0.2417
 7132W        W25986  18.281  17.467   2.489 -0.1443 -0.2553  0.0345
 7133W        W25987   7.424   3.682  10.526  0.5160  0.0398 -0.0234
 7134W        W25988  11.676   2.511  14.535 -0.1233 -0.1513  0.3301
 7135W        W25989  12.883  10.862   4.455 -0.1584 -0.1915  0.1337
 7136W        W25990  16.087   2.960  11.598  0.1288  0.3627  0.1528
 7137W        W25991   0.807   5.538  10.830  0.0399  0.0729  0.0644
 7138W        W25992  15.718  11.079  14.509 -0.0630 -0.0057 -0.2079
 7139W        W25993  17.398  10.501   3.096  0.3277 -0.1505 -0.0806
 7140W        W25994   3.657   2.978   0.126 -0.2076  0.0979  0.0113
 7141W        W25995   0.789   2.726   3.362 -0.2712 -0.0310  0.1357
 7142W        W25996   7.480   1.556  13.029  0.1557 -0.2511 -0.2747
 7143W        W25997  16.864   1.536   2.131 -0.2828  0.2240 -0.0680
 7144W        W25998   3.035   3.645  10.985 -0.0854  0.1201  0.2089
 7145W        W25999  15.890   0.556  10.972  0.0583  0.2156 -0.5925
 7146W        W26000   2.310   0.921  13.845  0.0383 -0.2673  0.0850
 7147W        W26001  18.328  10.287   3.199 -0.0372 -0.0735  0.1384
 7148W        W26002   6.297  17.966  11.652  0.3783  0.0393  0.1271
 7149W        W26003  17.456   1.105  12.533 -0.0824  0.1746 -0.0926
 7150W        W26004  17.242  10.153  14.251  0.1796 -0.5023 -0.0947
 7151W        W26005  18.939  12.003  12.348 -0.1001 -0.3835  0.1555
 7152W        W26006  16.345   1.246   3.716 -0.0243 -0.0909 -0.2458
 7153W        W26007  12.628  17.610  12.529 -0.4692  0.3549 -0.0937
 7154W        W26008   3.020  16.624  13.418  0.1614  0.0297 -0.1798
 7155W        W26009   9.119  15.756   4.101  0.0760 -0.0341  0.0377
 7156W        W26010  14.343   2.765   3.201  0.0585  0.0430 -0.1881
 7157W        W26011   4.959  10.509   0.803  0.1036  0.0294  0.0924
 7158W        W26012  11.121   7.941  12.239  0.0614  0.0205 -0.0738
 7159W        W26013   9.122   8.453   2.577  0.0638 -0.1515  0.0725
 7160W        W26014  10.540   6.560   5.328  0.3063 -0.2142 -0.0627
 7161W        W26015  14.456  14.251  14.110 -0.0064  0.1797  0.0312
 7162W        W26016  16.844  15.684   1.812 -0.0237  0.2071 -0.0540
 7163W        W26017   7.641  11.248  12.805 -0.3067  0.2118  0.0427
 7164W        W26018   2.704  13.477  14.714  0.3644 -0.0337  0.0015
 7165W        W26019   2.755   9.038   1.987 -0.0810  0.2607  0.1875
 7166W        W26020  18.723  14.956   1.121 -0.0965 -0.1506 -0.2486
 7167W        W26021   4.430  11.845  12.439  0.0408 -0.0027 -0.1010
 7168W        W26022  16.673   1.047  14.387 -0.5852  0.2023  0.3425
 7169W        W26023  11.737   7.732   0.194 -0.2116 -0.1147 -0.0441
 7170W        W26024  17.913   0.421  11.997 -0.2700  0.4870 -0.0514
 7171W        W26025  14.970  14.510   0.538 -0.0790 -0.1287 -0.2021
 7172W        W26026   4.118  17.856  10.600 -0.0271 -0.1492  0.1494
 7173W        W26027   2.539  11.480  14.184  0.2150  0.2185 -0.2007
 7174W        W26028   4.135   4.005   0.610  0.1010  0.0856 -0.0524
 7175W        W26029   8.111   0.861  13.062  0.0759  0.1715  0.0329
 7176W        W26030  10.044   0.833  14.275  0.0584 -0.1824  0.2042
 7177W        W26031   2.289   1.978  12.321 -0.0287  0.2188  0.4484
 7178W        W26032  10.481  18.561   1.463  0.0212 -0.0543  0.0217
 7179W        W26033  10.418  14.241   0.266 -0.1017 -0.0843 -0.1232
 7180W        W26034   1.189   2.481   1.036  0.0302 -0.4882 -0.1977
 7181W        W26035   3.608  11.061  12.678  0.0987 -0.1461 -0.0385
 7182W        W26036   5.223  12.956  12.710 -0.0346 -0.1967 -0.0745
 7183W        W26037  15.382   4.432  12.132 -0.0770  0.2680 -0.0150
 7184W        W26038   0.493   0.441  13.706 -0.0787 -0.3738 -0.0538
 7185W        W26039   6.125  14.658  12.818 -0.0760 -0.1022  0.2264
 7186W        W26040   1.471  13.526  11.349  0.2785 -0.1319 -0.0273
 7187W        W26041  18.441   2.474   3.761 -0.2414  0.1149 -0.1158
 7188W        W26042  16.425  18.402  12.450  0.2639  0.1430 -0.0622
 7189W        W26043  18.400  17.280  13.285 -0.2170  0.1188 -0.0862
 7190W        W26044   6.264   6.489   9.645  0.1995  0.0302 -0.1113
 7191W        W26045  17.492  11.635   4.060  0.1868 -0.3725  0.0391
 7192W        W26046  10.735   2.966  14.129  0.1933 -0.0955  0.1263
 7193W        W26047  10.161   3.794  14.526  0.1158 -0.4172  0.0063
 7194W        W26048  12.976   8.635   2.909  0.0621 -0.3921  0.0667
 7195W        W26049   7.537  10.156   2.858 -0.2160 -0.5831 -0.2588
 7196W        W26050   1.099  12.766  14.356  0.1146 -0.1010 -0.1435
 7197W        W26051   0.755   2.392   4.176  0.3851  0.0393  0.0865
 7198W        W26052   5.840   7.957   1.327 -0.1323  0.0971 -0.0906
 7199W        W26053   5.803   8.458  13.867 -0.3267 -0.1100 -0.2312
 7200W        W26054  17.480   0.086  14.187 -0.0971 -0.0568 -0.2586
 7201W        W26055  18.116  13.254   3.217  0.0668 -0.1600  0.0037
 7202W        W26056   6.548  10.609   9.303  0.0677 -0.0494  0.2939
 7203W        W26057   8.812  17.800  10.745 -0.0543 -0.0031  0.1825
 7204W        W26058  13.200  13.240   3.044  0.1643 -0.2113 -0.0920
 7205W        W26059   6.991   3.321   2.310  0.0352 -0.1590 -0.0715
 7206W        W26060   7.200  17.606   0.598 -0.1448  0.0532  0.0327
 7207W        W26061   2.606   8.275  12.120 -0.1508 -0.2095 -0.0006
 7208W        W26062  13.170  13.147   2.020  0.3698 -0.1771 -0.2765
 7209W        W26063   5.322  16.672   0.355 -0.0690  0.0694  0.2948
 7210W        W26064  16.245   6.943   1.365 -0.2842  0.1483  0.3262
 7211W        W26065  16.979  18.814   0.736  0.0651  0.2065  0.0636
 7212W        W26066   0.911   1.978   2.488 -0.0578  0.1015  0.1970
 7213W        W26067   1.263  12.378   3.240  0.1592  0.0292 -0.2775
 7214W        W26068  10.081  15.187   0.640  0.1755  0.0367  0.0499
 7215W        W26069  14.187  13.153  11.905  0.1134  0.3648 -0.0166
 7216W        W26070   4.292   5.725   4.297 -0.2330  0.3034 -0.1567
 7217W        W26071   9.120   8.644  13.789  0.1104 -0.1573  0.0509
 7218W        W26072  11.240   1.678  13.622  0.1310 -0.2410  0.1789
 7219W        W26073   6.255   3.070   1.650  0.0376 -0.0704 -0.1205
 7220W        W26074   1.476  10.060   4.403 -0.1834 -0.0152 -0.0717
 7221W        W26075   1.655   5.233  11.555  0.6131 -0.0975  0.1289
 7222W        W26076   0.260   3.755   2.068  0.5744  0.3576  0.1135
 7223W        W26077   5.452   6.612  12.656  0.1131 -0.1786 -0.1993
 7224W        W26078   5.879  11.407   3.580 -0.1728  0.0282 -0.2010
 7225W        W26079  13.796  18.950   0.036 -0.2200  0.0483  0.0279
 7226W        W26080   5.094   4.123   3.641  0.1027 -0.0208 -0.4454
 7227W        W26081   5.825  11.025   1.816  0.3250  0.3368 -0.0795
 7228W        W26082  10.125   2.770   3.238 -0.1162 -0.2730  0.1455
 7229W        W26083   8.810  14.689   2.687 -0.0172  0.1255  0.1727
 7230W        W26084  18.990   0.631  14.511  0.1300 -0.2269 -0.1026
 7231W        W26085  14.430   7.910  11.497  0.0952 -0.0054 -0.0877
 7232W        W26086   4.157   9.592  11.248 -0.2079  0.0455 -0.0362
 7233W        W26087  12.229   0.522  13.144  0.1938 -0.3463 -0.1977
 7234W        W26088  18.888  17.214  12.076  0.1005 -0.2008  0.1148
 7235W        W26089   4.938  11.365  14.484 -0.1042 -0.2907  0.1113
 7236W        W26090   7.710   0.806   3.618  0.0357  0.1404  0.1524
 7237W        W26091   3.229  13.981   0.324  0.1116  0.0443 -0.0186
 7238W        W26092  10.053  13.544   1.059 -0.0167  0.0305 -0.1348
 7239W        W26093   8.411  16.069  12.636  0.2737  0.0466 -0.0371
 7240W        W26094   6.161  10.624   1.713  0.1514  0.0807 -0.3573
 7241W        W26095  16.211   5.856  11.614 -0.2882  0.1944  0.1789
 7242W        W26096  13.916   0.186   0.541 -0.3199  0.0616 -0.1567
 7243W        W26097   1.633   6.145  12.744 -0.0692 -0.0260 -0.1049
 7244W        W26098  18.905   2.846  10.160 -0.0157  0.0084  0.1227
 7245W        W26099   6.827   6.555   3.442  0.1421  0.0451 -0.0173
 7246W        W26100  11.694   2.599  12.016  0.1956 -0.2696 -0.1379
 7247W        W26101   3.460   8.208   1.886 -0.0480 -0.0352 -0.1420
 7248W        W26102  11.963   4.538   3.145 -0.2276 -0.0081  0.0030
 7249W        W26103   0.506   4.285   0.638 -0.0234  0.1680  0.0558
 7250W        W26104  16.704  10.915  13.127 -0.0393  0.0995 -0.4576
 7251W        W26105  17.166   0.978  11.751 -0.1056  0.0269 -0.3190
 7252W        W26106  15.027  11.031   2.982  0.0660 -0.0099 -0.1963
 7253W        W26107  14.788   5.717  11.849 -0.1462 -0.1829 -0.1283
 7254W        W26108   0.645  12.050   9.775 -0.0305 -0.0632 -0.0584
 7255W        W26109   3.325  11.705  14.640 -0.0110  0.0055  0.0266
 7256W        W26110   9.855  14.885  10.300  0.0880 -0.2710 -0.2280
 7257W        W26111   2.899   0.964   1.049  0.2753 -0.3319  0.1062
 7258W        W26112  12.131  18.852   0.134  0.2478  0.2297  0.2667
 7259W        W26113  18.779  14.805   0.564  0.4084 -0.3143 -0.1649
 7260W        W26114   6.283  11.475   0.659 -0.0460  0.0404 -0.2522
 7261W        W26115  15.585   0.086   2.515 -0.1737  0.0945  0.0475
 7262W        W26116   2.933   5.537   4.570 -0.0511 -0.0605  0.0137
 7263W        W26117   6.616   8.063  14.310  0.0595 -0.0889  0.1382
 7264W        W26118  12.323  11.693  13.834  0.0411  0.0145  0.1392
 7265W        W26119   2.674  14.989   0.112  0.2308 -0.4017  0.4543
 7266W        W26120  13.874   0.976   3.590  0.1793  0.0757 -0.1610
 7267W        W26121   8.136  13.244  10.458 -0.4438  0.0670  0.1886
 7268W        W26122   7.871   4.903   4.155 -0.0234 -0.0867  0.1531
 7269W        W26123  16.349  14.037  13.326  0.0732  0.0830 -0.0973
 7270W        W26124  18.834   9.200  11.565  0.1403  0.0303  0.0973
 7271W        W26125  14.636  15.866   1.269  0.0104 -0.2268 -0.0180
 7272W        W26126  10.389   9.194   3.817  0.0480  0.1478  0.1288
 7273W        W26127   5.927  13.806  10.285 -0.1807 -0.4310  0.0513
 7274W        W26128   9.388   8.701   1.424  0.0696 -0.3286 -0.2217
 7275W        W26129  16.639   1.527  12.414  0.2991  0.2585 -0.3025
 7276W        W26130  13.725   8.099   0.769 -0.1242 -0.2089  0.0508
 7277W        W26131  16.438  11.503   4.069  0.0315  0.2423  0.0349
 7278W        W26132   2.526   0.108   2.517 -0.1743  0.1603 -0.0734
 7279W        W26133   1.976   8.427   0.569 -0.0155  0.1545 -0.0746
 7280W        W26134   3.968   0.881   0.984 -0.0539 -0.2341 -0.0737
 7281W        W26135  12.592  12.453  13.432 -0.0025  0.2158  0.1775
 7282W        W26136  12.055   5.329   3.598  0.2029 -0.0385 -0.0915
 7283W        W26137   9.952   4.541  10.865 -0.0186 -0.0941 -0.0805
 7284W        W26138   8.840   4.971   4.725  0.0792 -0.0085 -0.2149
 7285W        W26139   9.452  18.633   9.447 -0.0070 -0.0770 -0.0558
 7286W        W26140   4.337   4.579  11.238  0.2250  0.1696  0.1726
 7287W        W26141   3.894   4.260  14.103 -0.4333  0.0864 -0.1821
 7288W        W26142  18.243   2.804  10.823 -0.0596  0.0764  0.1815
 7289W        W26143  17.790   7.087   4.645 -0.0826 -0.0662 -0.5172
 7290W        W26144   6.704   3.059   4.390 -0.0479  0.2831  0.0724
 7291W        W26145  14.087   8.167  11.245  0.1224 -0.1391 -0.2129
 7292W        W26146  12.088  11.216   0.642 -0.1411 -0.0834 -0.1522
 7293W        W26147   9.329  14.184   2.803  0.0186  0.1054  0.2421
 7294W        W26148   3.917   9.141   9.990 -0.2142  0.1189  0.1919
 7295W        W26149   8.895  17.778  13.096  0.1483  0.2194 -0.4653
 7296W        W26150  13.726   3.595   0.017  0.0009 -0.4054 -0.1060
 7297W        W26151  14.173  12.403  14.243 -0.0251  0.1628 -0.0819
 7298W        W26152   5.840   8.567  12.235 -0.5592 -0.0812  0.0198
 7299W        W26153  13.576   2.146  10.603 -0.3104  0.0578  0.0492
 7300W        W26154   1.951   5.607  12.720 -0.0661  0.0596 -0.3267
 7301W        W26155   4.784   5.969  12.292 -0.0212  0.1270 -0.1127
 7302W        W26156   4.828   3.752   2.110 -0.2150 -0.1022 -0.0167
 7303W        W26157   8.425   2.305  12.147  0.2047 -0.1252 -0.3247
 7304W        W26158   0.551  14.455   0.640  0.1173  0.1066 -0.1442
 7305W        W26159  14.114  17.407  11.870 -0.3905  0.2782  0.0856
 7306W        W26160   1.972  16.696   3.225 -0.0274  0.1415  0.1607
 7307W        W26161  10.218  19.092   1.385 -0.0439  0.1847 -0.0368
 7308W        W26162   7.728   4.812  14.182  0.2527  0.2415 -0.1244
 7309W        W26163   3.005   5.103   1.197  0.0395 -0.0237  0.0132
 7310W        W26164   1.910   4.987   0.675 -0.2144  0.0895  0.0058
 7311W        W26165   3.881   7.786  12.105  0.3061  0.0209 -0.0283
 7312W        W26166   5.248  14.931  13.080 -0.0648  0.2018 -0.0252
 7313W        W26167   7.704  12.087  11.259  0.2511 -0.2764 -0.0157
 7314W        W26168  14.243  10.365   3.481  0.0001  0.0668  0.2199
 7315W        W26169   2.592  11.295   1.121 -0.2312  0.0964  0.0153
 7316W        W26170   5.705   1.095   0.256 -0.2946 -0.1163 -0.3024
 7317W        W26171   6.055   8.306  11.785 -0.1519  0.0379 -0.0190
 7318W        W26172   6.895   2.994  14.224  0.0798 -0.0127 -0.2147
 7319W        W26173   5.194  10.291   2.546  0.0622  0.1317 -0.2177
 7320W        W26174   1.890  17.121  12.118  0.1483 -0.0376 -0.4972
 7321W        W26175   6.939   2.532  14.732 -0.2127  0.0538  0.1624
 7322W        W26176  14.980  17.182   3.223  0.1866  0.0170 -0.1136
 7323W        W26177  12.673   5.886   1.584  0.0708 -0.3112 -0.1656
 7324W        W26178  18.253  13.985   5.248  0.1104 -0.0219  0.0067
 7325W        W26179   2.142   2.958   0.818 -0.1430  0.2490 -0.1190
 7326W        W26180   9.124  18.505   4.599 -0.0535  0.0786  0.2820
 7327W        W26181   4.126   7.806   1.512  0.0310 -0.0987  0.3136
 7328W        W26182  11.687   8.733   3.466 -0.6445  0.0435  0.2482
 7329W        W26183   2.778   3.930   3.604 -0.0683  0.1331 -0.1017
 7330W        W26184   9.224  18.599   3.022 -0.0927  0.0339  0.0012
 7331W        W26185   4.672  14.223  13.974 -0.0140  0.2815 -0.0302
 7332W        W26186   7.128  11.768  14.621 -0.1906  0.0360 -0.1278
 7333W        W26187   1.881   7.950   0.795  0.1159  0.1087  0.4513
 7334W        W26188   7.333  18.666   4.424  0.0035  0.0274 -0.0994
 7335W        W26189   1.789   3.578   0.158  0.6573 -0.0193  0.0999
 7336W        W26190   8.933   9.543  12.425  0.0438 -0.3099 -0.2232
 7337W        W26191   7.646   0.557  13.984  0.0010  0.1603  0.3776
 7338W        W26192  15.994  17.734   9.960  0.0987 -0.4643 -0.0211
 7339W        W26193  16.671   7.723  11.568 -0.0860 -0.5594 -0.1745
 7340W        W26194   3.256   4.508   1.704 -0.1053 -0.0715 -0.2437
 7341W        W26195  17.262  10.902  10.961 -0.0189  0.1458 -0.1544
 7342W        W26196   1.956   4.635  11.931 -0.1050 -0.0289 -0.0012
 7343W        W26197   8.708   3.393  11.403  0.0787 -0.3693 -0.2710
 7344W        W26198   1.534  11.492  13.204  0.2668  0.0975  0.2248
 7345W        W26199   5.806   7.973  13.901  0.2253 -0.0736 -0.0218
 7346W        W26200  10.200  10.433  13.466 -0.0670 -0.0965 -0.1800
 7347W        W26201  12.934   0.952  13.525 -0.1076 -0.3009  0.1861
 7348W        W26202   5.385  15.687   3.454  0.1333  0.0550 -0.1802
 7349W        W26203  15.521   1.681   0.589 -0.2508  0.1961  0.1872
 7350W        W26204  16.904   5.780   2.786 -0.0667 -0.1361 -0.1557
 7351W        W26205  12.094  10.627  14.649  0.0439  0.2034  0.0475
 7352W        W26206   3.986  10.456   0.478 -0.1118 -0.1393 -0.0436
 7353W        W26207   4.305   1.917  10.270 -0.2478 -0.1146 -0.1019
 7354W        W26208   5.765   8.209   0.888  0.2366  0.2162 -0.1266
 7355W        W26209   2.393   2.498  13.335  0.2118 -0.0203  0.1681
 7356W        W26210  17.952  13.785  13.667  0.1690  0.3719  0.0232
 7357W        W26211  10.057  10.310  13.036  0.0352 -0.2617 -0.0004
 7358W        W26212  10.321   7.225  10.928  0.2144  0.2533  0.2445
 7359W        W26213   1.952   9.879   0.008  0.1298  0.0558  0.3181
 7360W        W26214   9.776  16.909  13.195  0.0070 -0.0694 -0.0625
 7361W        W26215   1.632  19.149   3.414  0.0617  0.1024 -0.1105
 7362W        W26216  15.072   4.110  14.263 -0.2863 -0.0943 -0.2683
 7363W        W26217  12.569  15.231   3.949 -0.1620  0.0894 -0.0867
 7364W        W26218  15.538   1.788  13.075  0.3249 -0.1232  0.1108
 7365W        W26219  10.677  17.245   0.110 -0.0988  0.3124  0.2044
 7366W        W26220  17.517  13.158  11.274  0.0786  0.2894 -0.0180
 7367W        W26221   9.831  14.498  12.002  0.0753 -0.1310  0.0848
 7368W        W26222  12.041   9.758  13.098  0.2781  0.0254  0.0207
 7369W        W26223  16.237  10.584  12.213 -0.0516  0.0471 -0.1006
 7370W        W26224   8.294   3.459   3.125 -0.3406  0.3341 -0.1719
 7371W        W26225  16.257   2.917  11.030  0.1348  0.2142 -0.0390
 7372W        W26226  13.819   2.831  14.228  0.1634 -0.3394 -0.0701
 7373W        W26227  15.426   9.869  11.496 -0.3330 -0.0457 -0.1235
 7374W        W26228  10.076  12.790  12.458  0.2795  0.1408 -0.1476
 7375W        W26229   6.881   7.255   0.037  0.5502  0.0037 -0.1284
 7376W        W26230  15.702   5.905  14.790  0.1268  0.1038  0.3091
 7377W        W26231  13.001  16.594  11.119 -0.0688  0.1396 -0.1323
 7378W        W26232   0.253  17.054   3.172 -0.0167 -0.0070  0.1623
 7379W        W26233   2.688  10.812  10.995 -0.3704 -0.0196  0.1258
 7380W        W26234  15.961   4.118  13.718  0.0023 -0.1568 -0.2558
 7381W        W26235   5.547  14.327   2.213  0.1042 -0.1201 -0.0300
 7382W        W26236  19.133  16.133   0.828  0.1613  0.2761  0.0806
 7383W        W26237   6.899  12.016  13.548 -0.1350 -0.2521  0.0712
 7384W        W26238  15.316  11.459   3.221  0.0118 -0.0992 -0.0814
 7385W        W26239   6.707  15.557   2.707  0.2113 -0.4070  0.3159
 7386W        W26240   6.724   1.500  13.789 -0.6128  0.1039  0.3105
 7387W        W26241  11.369   1.785  14.244  0.0765 -0.0041 -0.3771
 7388W        W26242   5.226  12.496  12.420  0.0766 -0.2002  0.0713
 7389W        W26243  11.175   6.073   2.343  0.0266 -0.3777  0.3833
 7390W        W26244   4.290   3.122   0.941 -0.0248 -0.0374 -0.2955
 7391W        W26245   0.033   7.450   4.933 -0.0573  0.0966 -0.0338
 7392W        W26246   5.509  16.906  13.200  0.2427 -0.0334  0.1225
 7393W        W26247   9.314  18.960  13.845  0.1628 -0.0896 -0.1942
 7394W        W26248  17.526   8.113  13.047 -0.0780 -0.0694 -0.0653
 7395W        W26249   4.757   0.397   9.174  0.2206  0.0267 -0.0580
 7396W        W26250  16.023   6.842   0.937  0.4226  0.1000 -0.0869
 7397W        W26251   3.314  13.577   1.652 -0.3166  0.1993 -0.0324
 7398W        W26252  13.023   1.710   2.637 -0.2897  0.1649  0.0797
 7399W        W26253   5.484   6.066  11.080  0.1576 -0.1057 -0.0921
 7400W        W26254  10.964  15.465   0.084 -0.0610 -0.3204  0.0651
 7401W        W26255  17.330  11.418  14.790  0.1860  0.0989 -0.0140
 7402W        W26256  11.018  10.514   0.136  0.0666 -0.4001 -0.1980
 7403W        W26257   5.438  17.982  12.318 -0.0979  0.0223 -0.0716
 7404W        W26258   5.751   2.004  14.289 -0.0724 -0.1530 -0.1609
 7405W        W26259  13.720  13.163   0.423  0.2721 -0.1710 -0.1872
 7406W        W26260  15.538  13.943   2.375 -0.0062  0.0728 -0.0445
 7407W        W26261  18.694   3.246   1.414  0.0021  0.2614 -0.0687
 7408W        W26262   0.055   7.375  13.884  0.0973 -0.0731 -0.1035
 7409W        W26263   1.917   7.182   1.784 -0.0295 -0.1480  0.3122
 7410W        W26264  12.105   2.894  11.634 -0.0010 -0.1781 -0.3017
 7411W        W26265  14.325  11.640  11.860 -0.0731 -0.1831 -0.1872
 7412W        W26266  14.273   9.289  14.480 -0.1719  0.0264 -0.0523
 7413W        W26267   0.211   7.860  12.819  0.3514  0.2567  0.1083
 7414W        W26268  19.133   0.965  11.400  0.4004  0.3385 -0.0941
 7415W        W26269   2.749  14.028   0.493 -0.0003  0.0743 -0.1642
 7416W        W26270   4.856   4.640   2.757 -0.1007 -0.0372 -0.0039
 7417W        W26271   6.967   7.709   1.829 -0.0321 -0.1803  0.2511
 7418W        W26272   6.106   0.006  13.036  0.3207 -0.1330 -0.2269
 7419W        W26273  11.936  11.496  12.653  0.1134 -0.3560  0.0769
 7420W        W26274   0.424  15.265   1.471 -0.0614 -0.3125  0.2487
 7421W        W26275  18.630  16.317  12.857  0.1557 -0.0305 -0.2319
 7422W        W26276   3.846   0.726   3.117 -0.2992  0.0527 -0.2055
 7423W        W26277  16.764   3.422   3.145 -0.1101  0.1100 -0.4411
 7424W        W26278   4.583   7.681  12.598 -0.1576 -0.0934  0.1968
 7425W        W26279   9.323   5.664  14.147  0.1189  0.0063 -0.0411
 7426W        W26280   4.272  10.239  10.433 -0.2277  0.5419  0.1056
 7427W        W26281  18.454   6.045   2.515 -0.3421 -0.1052  0.0849
 7428W        W26282  18.133   8.291   3.115  0.3235  0.1764  0.0011
 7429W        W26283  19.044   3.700  12.959  0.4456  0.3615 -0.2947
 7430W        W26284   6.808   7.850   0.077  0.1935  0.1442 -0.2448
 7431W        W26285  16.153   9.922   1.849 -0.3213  0.0424  0.0908
 7432W        W26286   5.500  15.291   0.616 -0.1655 -0.1043  0.1595
 7433W        W26287   2.140   9.764   2.648 -0.3013  0.0143 -0.1038
 7434W        W26288  15.838   5.273   0.215  0.1215 -0.0429  0.0554
 7435W        W26289   8.262  19.064  12.370 -0.1470  0.2899  0.3901
 7436W        W26290   7.567  18.237  11.446  0.1444  0.0371  0.1324
 7437W        W26291  11.884  13.573  11.147  0.3072 -0.1735  0.2748
 7438W        W26292   5.568  15.597  13.549  0.0767 -0.3448  0.0867
 7439W        W26293  12.431  12.876   3.184 -0.2065 -0.1094 -0.1407
 7440W        W26294  17.530  18.332   0.605  0.0605  0.0431  0.1298
 7441W        W26295   1.048   5.333   0.950 -0.0901  0.0955  0.0234
 7442W        W26296   3.004   1.107  12.996 -0.0394 -0.0336 -0.1032
 7443W        W26297  17.304   4.729  12.680 -0.5737 -0.2320 -0.1076
 7444W        W26298   9.825  18.882   4.354 -0.0030  0.0013  0.0143
 7445W        W26299  15.777   7.532   1.240  0.0352 -0.0682  0.0151
 7446W        W26300  14.423   3.553   3.198 -0.1974 -0.0210  0.1166
 7447W        W26301  14.156   6.336   3.040 -0.0970  0.0197  0.1219
 7448W        W26302   1.511  11.494  13.856  0.3325  0.3896 -0.4440
 7449W        W26303  14.116  10.965   1.899  0.1019 -0.3665 -0.0150
 7450W        W26304  13.031   2.470   3.197 -0.0057 -0.1892  0.0382
 7451W        W26305   6.435   8.657  11.401  0.1452 -0.2379  0.1495
 7452W        W26306   9.419   8.349  13.462  0.0610 -0.2839  0.1681
 7453W        W26307  13.781  15.334   4.752  0.0394  0.0213 -0.0544
 7454W        W26308   8.171   4.652   3.355  0.0117  0.4912  0.0105
 7455W        W26309  13.639   6.625  13.202  0.4102 -0.1833 -0.3432
 7456W        W26310  12.831   8.640   3.862  0.3408 -0.0207  0.2252
 7457W        W26311   7.469   4.056   3.162 -0.0632 -0.1547  0.0704
 7458W        W26312   7.535  17.970   1.548 -0.0045 -0.1697 -0.2932
 7459W        W26313  12.770  12.022  11.179  0.0495 -0.3428  0.1414
 7460W        W26314  11.870   5.191  10.656  0.0905 -0.0843 -0.0432
 7461W        W26315  16.516   4.195  12.535  0.2415 -0.1366 -0.3080
 7462W        W26316   4.215  18.774  12.112  0.0343  0.2408  0.0100
 7463W        W26317  13.836   1.056  13.073  0.3567 -0.0093 -0.0432
 7464W        W26318   7.867   5.209  13.546 -0.1164 -0.2957 -0.1506
 7465W        W26319  18.315   0.487   2.721 -0.0646 -0.0423 -0.1582
 7466W        W26320   3.831  12.423  14.274 -0.4685  0.2346 -0.0399
 7467W        W26321   4.242   5.906   9.494  0.2078 -0.2048 -0.0841
 7468W        W26322  13.472   2.188  13.424 -0.3540 -0.0365  0.0536
 7469W        W26323   7.147   9.488   0.681  0.2917 -0.1531  0.0088
 7470W        W26324   4.873  17.817   2.453  0.2003 -0.1175  0.2208
 7471W        W26325   1.753   6.707  12.342 -0.0142  0.0854 -0.0313
 7472W        W26326   7.993  17.356  11.291  0.3764 -0.0577  0.1284
 7473W        W26327  12.995  10.758   3.851  0.1394  0.1993 -0.2523
 7474W        W26328  15.620   5.269   3.500 -0.0859  0.0387 -0.1973
 7475W        W26329   2.651  15.325  12.823 -0.0262  0.2182 -0.0748
 7476W        W26330   0.918   1.881   1.361  0.0982  0.0981  0.2132
 7477W        W26331  16.235   5.028   0.413 -0.1934  0.1914  0.1583
 7478W        W26332  12.531   6.102  11.343  0.1501  0.0950 -0.0877
 7479W        W26333  19.124   6.966  12.383 -0.3355 -0.1482  0.3730
 7480W        W26334  12.448  12.181  12.100  0.0523 -0.0778 -0.1586
 7481W        W26335   1.108  18.712   1.675  0.1708  0.1785  0.1486
 7482W        W26336   8.298  13.860   0.177  0.2504  0.0206 -0.2450
 7483W        W26337   9.124  10.534  12.201  0.2128  0.0239  0.1117
 7484W        W26338   5.870   6.588   0.357 -0.0716 -0.0904 -0.4445
 7485W        W26339  15.037   2.844  14.655 -0.0066 -0.0054 -0.2267
 7486W        W26340  13.540   5.516  11.329  0.1462 -0.1335  0.1994
 7487W        W26341  18.447   6.338  11.220 -0.1224  0.0229  0.0066
 7488W        W26342   6.316   9.288   4.692  0.2111  0.0626 -0.0704
 7489W        W26343   3.034  12.140   0.047 -0.1045 -0.1431 -0.3505
 7490W        W26344  13.606  13.902  13.486  0.1031  0.3137  0.0275
 7491W        W26345  14.127  17.480  14.434  0.2387  0.1655  0.3255
 7492W        W26346  12.243  11.329   2.263 -0.1173 -0.0539 -0.2489
 7493W        W26347   7.486  13.223   1.913 -0.1010 -0.1786  0.1942
 7494W        W26348   7.309  18.641  12.970  0.1455  0.2493  0.0955
 7495W        W26349  10.233   3.903  11.675  0.0093 -0.0906  0.0191
 7496W        W26350   6.027   7.681  11.287  0.0542 -0.1132 -0.3721
 7497W        W26351   8.734   9.434  10.281  0.0691  0.1976 -0.0352
 7498W        W26352  16.198   9.015   2.922  0.0114  0.1858  0.1455
 7499W        W26353   1.151   2.402   3.214  0.0626 -0.0720 -0.2637
 7500W        W26354   7.518   9.635   1.016 -0.1458  0.0548  0.0460
 7501W        W26355   1.130   9.591   2.293 -0.3491 -0.0648  0.1304
 7502W        W26356  12.254   6.633  12.303  0.0168  0.0018  0.2690
 7503W        W26357   8.779  18.974   0.369  0.3631  0.1305 -0.2146
 7504W        W26358   5.036   2.996  11.107  0.1285 -0.0239  0.0677
 7505W        W26359   0.677  12.011   3.030  0.0582  0.0838 -0.4649
 7506W        W26360   7.623  17.165   3.671 -0.3979 -0.1290 -0.0459
 7507W        W26361   5.123  14.450  10.403  0.0119 -0.1256 -0.2303
 7508W        W26362  12.015   6.364   2.983 -0.1664  0.2546 -0.0140
 7509W        W26363   6.534  17.643  12.355  0.1290 -0.2111  0.2791
 7510W        W26364  13.007  11.666   3.848  0.0860  0.0772  0.4779
 7511W        W26365   3.534   2.663   1.761 -0.0457 -0.1124  0.1842
 7512W        W26366  18.632   8.937   1.090  0.1463 -0.3268  0.2330
 7513W        W26367   4.886   1.801  12.188  0.0513 -0.0398 -0.0303
 7514W        W26368   6.158   0.625   4.421  0.0516  0.0552  0.0358
 7515W        W26369  18.789  18.735  11.803 -0.0174 -0.1442  0.0779
 7516W        W26370   2.831   6.403   4.101  0.1902  0.0927  0.0836
 7517W        W26371   7.459  13.217   2.393  0.0837  0.3085 -0.0903
 7518W        W26372  19.068  19.136   3.695 -0.2630 -0.0852  0.2463
 7519W        W26373   1.075   1.328   0.559  0.0958  0.0065 -0.0664
 7520W        W26374  18.992   4.550   2.375 -0.2379 -0.0072  0.3341
 7521W        W26375   3.842  12.902  14.323  0.1467  0.1843 -0.2474
 7522W        W26376  15.542  11.202   0.230  0.1112  0.0643 -0.1643
 7523W        W26377  15.901   0.223   4.062  0.2734 -0.1548 -0.1643
 7524W        W26378  12.076  16.036   2.938 -0.1547  0.2129  0.2355
 7525W        W26379   6.951  16.602   3.202  0.1162  0.1752  0.1847
 7526W        W26380   5.412  11.559   2.490  0.2871 -0.1024  0.0870
 7527W        W26381   8.277  16.780   0.489 -0.1692 -0.3298  0.2229
 7528W        W26382   8.791  18.646   2.801  0.3191 -0.0711 -0.2308
 7529W        W26383  16.451   8.951  13.388  0.1723  0.3756  0.0430
 7530W        W26384  17.681  16.820   2.093 -0.1637  0.0721  0.0086
 7531W        W26385  18.980   6.596   4.466 -0.1093  0.0043  0.1265
 7532W        W26386  15.609  14.402  12.858 -0.1184  0.2775  0.4465
 7533W        W26387   3.612   2.551  14.577  0.1141 -0.1090  0.0856
 7534W        W26388   3.892   7.467  13.071 -0.2028  0.1322 -0.0705
 7535W        W26389   1.102   4.417   0.785 -0.2613 -0.0435 -0.1314
 7536W        W26390   7.990   2.510  12.499 -0.1012  0.0296 -0.3474
 7537W        W26391   0.433  11.157  10.918 -0.0442  0.1691  0.0568
 7538W        W26392  19.103  15.780   1.417 -0.1239 -0.0579  0.0523
 7539W        W26393  18.348  11.148  11.296  0.0920 -0.1146  0.3638
 7540W        W26394   4.954  13.355   2.000  0.0916  0.2465  0.3178
 7541W        W26395   2.264  11.390   2.091  0.3652 -0.1894  0.1471
 7542W        W26396  12.275  12.940   4.456  0.4796 -0.1740 -0.1115
 7543W        W26397  15.132   6.473  12.218  0.0098 -0.2717 -0.6824
 7544W        W26398   2.332   5.306   2.697  0.1574 -0.1674  0.0864
 7545W        W26399   2.474  15.384   3.504  0.1054 -0.2069  0.1927
 7546W        W26400   3.208   2.729   0.170 -0.1877 -0.0710 -0.0587
 7547W        W26401  12.890   7.499  12.109  0.0803  0.3631  0.0898
 7548W        W26402  17.726  18.707   2.209  0.1358  0.0371 -0.0873
 7549W        W26403  18.409  14.425   0.237  0.0459 -0.1235 -0.1085
 7550W        W26404  10.065  17.480   1.290 -0.1300  0.6832 -0.0680
 7551W        W26405   3.517   7.942   3.856  0.0146  0.0349  0.0984
 7552W        W26406   8.764   9.738   3.548  0.1303 -0.1052  0.3814
 7553W        W26407  13.859  18.562  10.933 -0.0750 -0.0819  0.0888
 7554W        W26408   2.314   6.196   2.425 -0.0056  0.1807 -0.1121
 7555W        W26409  15.808   4.625  10.913  0.1900 -0.0298  0.1078
 7556W        W26410   5.311  17.847   2.277 -0.0594 -0.3933  0.1402
 7557W        W26411   6.069  14.548  14.128  0.0760 -0.0846  0.2440
 7558W        W26412   2.898  18.182  14.621  0.2413 -0.0194 -0.3045
 7559W        W26413  18.675   3.474  14.442  0.3812 -0.0582 -0.0728
 7560W        W26414   0.610   1.506   2.475 -0.1246 -0.1152  0.4107
 7561W        W26415  14.274  10.174   1.201 -0.0887 -0.1571 -0.0450
 7562W        W26416   5.410  15.934   2.047  0.1990  0.3246  0.2563
 7563W        W26417  17.659  10.956   1.555  0.1347 -0.0663 -0.2741
 7564W        W26418   1.935   1.408  12.904  0.0163  0.2562 -0.0448
 7565W        W26419   7.044   2.969   3.980  0.1641 -0.3749  0.0244
 7566W        W26420  15.396  14.919  14.641 -0.0972 -0.4345 -0.1223
 7567W        W26421   2.981  17.130  14.788  0.1362 -0.1393  0.2222
 7568W        W26422  15.270   2.693  12.725 -0.2920 -0.0636  0.0579
 7569W        W26423  18.904   0.827  13.952  0.1048 -0.1731  0.4511
 7570W        W26424  13.902  10.800   0.513  0.1756  0.0312 -0.2862
 7571W        W26425   3.151   7.633   0.738  0.1885  0.1649  0.1559
 7572W        W26426  15.111   6.798  13.757 -0.1319  0.1736  0.3549
 7573W        W26427   5.103  10.124  11.197 -0.2729  0.1105 -0.0568
 7574W        W26428  17.966   2.734  11.266  0.0793 -0.0099 -0.0885
 7575W        W26429   8.879  12.165   2.871 -0.0744  0.1957  0.1196
 7576W        W26430  11.645  14.321   1.430  0.2330  0.1224  0.4114
 7577W        W26431  14.729   6.672   3.579 -0.1496  0.1276 -0.0796
 7578W        W26432  14.998   3.624  13.739 -0.0889  0.0272  0.0219
 7579W        W26433   0.904   2.373  11.861  0.0210  0.2467 -0.1884
 7580W        W26434  11.445  15.806   1.077 -0.0084 -0.0550  0.0722
 7581W        W26435   0.496   9.336   1.697  0.1864  0.1071  0.0278
 7582W        W26436   2.198  15.505  13.965  0.3998  0.0943 -0.3032
 7583W        W26437   2.793  13.382  11.408 -0.1565  0.0885  0.1119
 7584W        W26438   5.516  13.785  13.810 -0.2419  0.2811 -0.2046
 7585W        W26439  17.347   0.967   3.926 -0.3597  0.0244 -0.0051
 7586W        W26440   2.806  14.295  14.030 -0.0750 -0.2129 -0.3641
 7587W        W26441   4.048   7.417   0.977  0.1524  0.0401 -0.1573
 7588W        W26442   8.089  16.193  13.042  0.2878  0.0533 -0.4187
 7589W        W26443   2.114  13.901   4.511  0.3054 -0.0273  0.2264
 7590W        W26444  13.712  14.017   1.738  0.0938  0.0033 -0.0952
 7591W        W26445   3.054  13.439  10.491  0.0271  0.1548  0.0633
 7592W        W26446   2.988   9.046  14.007  0.3326 -0.3664 -0.0258
 7593W        W26447  17.845   2.677   3.765 -0.1509  0.5157 -0.1643
 7594W        W26448   1.777   7.716  12.526 -0.0199  0.0491  0.1990
 7595W        W26449   6.065  18.420   4.473  0.0984 -0.2131 -0.3086
 7596W        W26450  12.303   0.126  11.109  0.0492 -0.0277  0.0808
 7597W        W26451  17.089   4.152   4.084 -0.3880  0.1200 -0.1113
 7598W        W26452   4.698  12.913  12.584 -0.0167 -0.0427 -0.0519
 7599W        W26453  18.475  17.558   3.931  0.2321  0.0032  0.0612
 7600W        W26454   1.015   7.160  12.828 -0.1626 -0.2025 -0.0618
 7601W        W26455  11.537   3.735   3.593  0.1679  0.0392  0.1246
 7602W        W26456  13.845   5.210   2.160  0.2104 -0.3607 -0.0570
 7603W        W26457   7.795   0.477  14.683  0.0022  0.0110 -0.1912
 7604W        W26458   6.773   8.717  11.895 -0.1151  0.1629 -0.2041
 7605W        W26459  18.167  17.098   3.805 -0.1841  0.0665 -0.1070
 7606W        W26460   1.178   2.891   2.375  0.1513  0.0164 -0.0931
 7607W        W26461  11.607  14.825   3.207 -0.0815  0.1441 -0.0546
 7608W        W26462  15.996   3.837  12.529  0.0981 -0.2757 -0.0518
 7609W        W26463  11.509   9.413  13.705  0.1013  0.2624 -0.1765
 7610W        W26464   2.965   9.379   4.022  0.1836  0.1413  0.0149
 7611W        W26465  13.210  11.809  12.675  0.1076  0.0576  0.1955
 7612W        W26466   0.818  15.872  13.016  0.0038  0.2192 -0.6739
 7613W        W26467  13.155  10.372   3.293 -0.1339 -0.1058 -0.0306
 7614W        W26468  15.079   1.780   0.324  0.2201  0.0290  0.0203
 7615W        W26469  14.300  18.212  14.102  0.0726 -0.0729 -0.2938
 7616W        W26470   0.426   4.288  11.846 -0.2118  0.1656  0.2677
 7617W        W26471   8.796   0.591   1.545  0.4144  0.0348  0.0072
 7618W        W26472   2.567   6.737   1.180 -0.0502 -0.0608  0.2711
 7619W        W26473  12.227   8.382   1.933  0.2337  0.2251  0.2549
 7620W        W26474   2.241  13.427  10.817  0.1144  0.0730  0.1470
 7621W        W26475  17.884  18.610   3.320  0.0118 -0.1030  0.0704
 7622W        W26476   7.506  14.448  11.804  0.1120  0.1587 -0.1492
 7623W        W26477   2.478   0.872  10.699 -0.0944 -0.0178 -0.1812
 7624W        W26478   2.767   3.310   2.349 -0.4449 -0.0098 -0.0013
 7625W        W26479   8.020  19.144   3.989 -0.0174  0.0461  0.1493
 7626W        W26480  13.117  13.163   0.239  0.0393  0.1682  0.0800
 7627W        W26481   5.806   6.000  13.869 -0.1585 -0.0303  0.1267
 7628W        W26482   6.634  15.197  11.387  0.0279 -0.0668 -0.1645
 7629W        W26483  17.129  14.479  12.807 -0.2000 -0.2406 -0.2252
 7630W        W26484   7.764   5.811   2.782  0.0023  0.1799  0.0710
 7631W        W26485   9.855   9.613   2.572  0.1140  0.1523  0.0813
 7632W        W26486   4.090  16.816   5.140  0.2506 -0.5854  0.1565
 7633W        W26487  17.225   9.775   3.573  0.1576  0.1613 -0.2947
 7634W        W26488   9.146  14.758   2.000  0.1884 -0.1003  0.0920
 7635W        W26489  16.432  11.155   3.107  0.2331 -0.0590 -0.0537
 7636W        W26490   1.349  14.348   2.997  0.3668 -0.1502  0.1080
 7637W        W26491  11.548  17.216  13.725 -0.3054 -0.1027 -0.0320
 7638W        W26492   5.898   3.027   3.554  0.1529 -0.0883 -0.0865
 7639W        W26493  16.827  17.950   4.150  0.0115 -0.0267 -0.2484
 7640W        W26494  16.280  18.671  11.222 -0.1251 -0.1203 -0.0498
 7641W        W26495   9.312   7.223  11.023  0.0912  0.1092 -0.0271
 7642W        W26496  19.017   4.343  14.384 -0.1145  0.1980 -0.1430
 7643W        W26497   3.942  15.575   1.652  0.0004  0.1890  0.3733
 7644W        W26498  18.772   8.064  11.819 -0.1490 -0.1784  0.3314
 7645W        W26499   0.968  14.448  14.120  0.2907  0.2392  0.1619
 7646W        W26500  19.004  16.551   3.227  0.1705 -0.0055 -0.1313
 7647W        W26501  18.905  15.841   4.093 -0.1899  0.0035  0.1431
 7648W        W26502   1.399  14.037   3.970  0.0164  0.2089 -0.1245
 7649W        W26503  18.475   0.278  11.151  0.0531  0.1345 -0.2332
 7650W        W26504  10.078   6.220   2.754 -0.0638 -0.3780 -0.1329
 7651W        W26505   6.538   0.500   1.074  0.0164 -0.1403  0.0280
 7652W        W26506   5.736   6.833  14.344 -0.1180 -0.1117 -0.0078
 7653W        W26507  16.652   4.319   2.464 -0.2612 -0.0985  0.2756
 7654W        W26508  18.435   6.418  13.534  0.1015  0.1936  0.0736
 7655W        W26509  10.240  17.895  12.571 -0.2040 -0.1445  0.3382
 7656W        W26510   0.618   2.448  13.507  0.1802  0.3444  0.0564
 7657W        W26511  14.396   8.414  11.715  0.3460 -0.0114 -0.4414
 7658W        W26512  17.951  17.735   3.846  0.1376  0.0264  0.2950
 7659W        W26513   4.270   3.988  12.170  0.0117  0.2679 -0.3043
 7660W        W26514   9.737   0.572   4.196 -0.5224 -0.0619  0.2541
 7661W        W26515   8.536   5.383   2.231 -0.0656 -0.0036  0.1341
 7662W        W26516  16.691  17.618  11.727 -0.4749 -0.0996 -0.0533
 7663W        W26517  14.624  13.545  11.119  0.2058 -0.0357 -0.1938
 7664W        W26518   1.245   4.505  12.713  0.1932 -0.1616 -0.0211
 7665W        W26519   0.582   6.504   9.821  0.1377  0.1433 -0.1388
 7666W        W26520   9.801   9.472  14.157 -0.0909  0.2273  0.2493
 7667W        W26521  16.770  16.906  14.134 -0.1113 -0.1990 -0.2131
 7668W        W26522  16.496   7.903   2.673 -0.1423 -0.1650  0.0599
 7669W        W26523   3.333  10.416   1.898  0.0128 -0.0442  0.0026
 7670W        W26524  14.215   5.772   9.964 -0.1727 -0.0493 -0.1407
 7671W        W26525   9.948  10.026  11.712  0.2187  0.1543 -0.1318
 7672W        W26526   1.976  10.979  10.315  0.1571 -0.2097  0.3557
 7673W        W26527   7.283  14.105  12.182 -0.2136 -0.0357  0.1523
 7674W        W26528  10.671   1.248  11.638  0.0688  0.1010  0.0650
 7675W        W26529  13.158   7.703   2.713 -0.1153  0.1948 -0.0336
 7676W        W26530  13.022   7.953  10.081 -0.1177 -0.3092 -0.1070
 7677W        W26531  11.918   0.998  13.977  0.0211  0.1768  0.0198
 7678W        W26532   7.451  17.122   0.072  0.0016 -0.0676 -0.0106
 7679W        W26533   4.500   1.471  11.024  0.0446  0.1047  0.1355
 7680W        W26534  19.045   6.916   4.103 -0.1717  0.0507 -0.0776
 7681W        W26535  15.574  14.238  11.632 -0.2249  0.3175 -0.1383
 7682W        W26536  16.505   8.120  11.355  0.1776 -0.0673 -0.1419
 7683W        W26537   9.443   8.306   2.140  0.0659 -0.2057  0.0446
 7684W        W26538   8.018   5.795  11.674  0.0962 -0.0067 -0.1767
 7685W        W26539   1.574   7.623   1.613 -0.2296 -0.0162 -0.1707
 7686W        W26540  11.356  15.470   4.631  0.1278  0.2084  0.1415
 7687W        W26541   2.362  14.577  14.065  0.2192 -0.0144  0.1989
 7688W        W26542   8.847   1.936   4.192  0.0638 -0.0532 -0.2568
 7689W        W26543   9.132  18.848   0.058 -0.1641 -0.1614  0.2043
 7690W        W26544   5.922  11.646   4.244 -0.0832  0.0225 -0.1345
 7691W        W26545   9.546  15.850  10.404  0.2445 -0.2511  0.1795
 7692W        W26546  14.956   1.359   2.575  0.0826  0.2525 -0.1622
 7693W        W26547   7.762  16.967  13.521  0.0184 -0.2112 -0.0852
 7694W        W26548   4.739   0.400   3.146 -0.1998  0.0076 -0.0376
 7695W        W26549   0.833   0.335  12.348  0.0793 -0.0827  0.2383
 7696W        W26550   9.288   7.548   3.798  0.2311  0.3499  0.0399
 7697W        W26551  12.295   1.117   0.410 -0.0129  0.1991  0.3294
 7698W        W26552  16.714  15.116   1.261  0.0085  0.0729  0.1057
 7699W        W26553  18.267  10.202  14.396  0.0496 -0.1595 -0.0517
 7700W        W26554  13.156  17.596  12.680  0.0139 -0.1280 -0.0352
 7701W        W26555   7.385  14.889  10.872  0.0750  0.1306  0.0704
 7702W        W26556   5.783   4.554  12.690 -0.4525 -0.0617  0.0385
 7703W        W26557   2.807  10.800  13.194  0.3029  0.0011  0.0878
 7704W        W26558   6.351   7.745  14.689  0.5374  0.2024  0.2062
 7705W        W26559  14.139   6.749   2.773 -0.1798 -0.1247 -0.0450
 7706W        W26560  18.693   7.077  14.718  0.0930  0.1027 -0.1020
 7707W        W26561   8.192   9.927   0.340 -0.0780 -0.0296  0.0103
 7708W        W26562  17.841   3.942  14.695  0.0209  0.0597  0.0448
 7709W        W26563  12.119  18.579  14.503 -0.0807 -0.0132  0.0518
 7710W        W26564  19.125   8.134  12.340 -0.1616  0.0166  0.2385
 7711W        W26565  12.798   5.354   2.013  0.1364 -0.1303  0.1806
 7712W        W26566   4.712   9.890  10.923  0.0113  0.1384  0.0323
 7713W        W26567   0.715  12.864  12.582 -0.0995 -0.0909  0.1178
 7714W        W26568  17.897  13.918   0.849  0.2919  0.3025  0.0947
 7715W        W26569  13.402   2.752   3.375  0.3081 -0.0874 -0.1734
 7716W        W26570  13.251   2.456   2.217 -0.1101 -0.3802  0.1029
 7717W        W26571  14.894  18.266   3.548  0.0997  0.0991  0.2271
 7718W        W26572   8.247  17.851  12.571  0.0688 -0.2308  0.1551
 7719W        W26573  17.690   5.670   3.661 -0.1083  0.0517 -0.0460
 7720W        W26574  16.074  19.118   2.578 -0.1391  0.1467  0.0450
 7721W        W26575  18.665   9.430   3.763 -0.0939 -0.1446  0.0339
 7722W        W26576   4.236  12.477   0.428 -0.0347 -0.0118  0.3989
 7723W        W26577  15.821  12.527   2.456  0.0026 -0.0336 -0.3099
 7724W        W26578  14.603   8.615   0.459  0.0191 -0.4351 -0.3324
 7725W        W26579  11.140   9.142  13.903  0.2700 -0.1079  0.1134
 7726W        W26580  15.007   6.171   0.645  0.1263  0.3382 -0.0593
 7727W        W26581  11.417  17.943   1.907 -0.0735 -0.1140  0.1042
 7728W        W26582   8.372   9.373   5.663  0.3930 -0.0295  0.0445
 7729W        W26583   6.300   4.886   4.500  0.0391  0.0699 -0.0908
 7730W        W26584  16.371   4.325  11.588  0.1279 -0.5186 -0.0675
 7731W        W26585   1.377   0.993  14.642  0.0500 -0.0255  0.1627
 7732W        W26586   7.393  17.036   2.489  0.0137  0.0755  0.1830
 7733W        W26587  12.123  18.344  10.967  0.2700  0.2500  0.0739
 7734W        W26588  13.902   5.358   1.260  0.0567 -0.0670  0.0854
 7735W        W26589   7.062  17.482  14.198 -0.1082  0.0694 -0.0291
 7736W        W26590   5.159  18.301   3.415  0.3049  0.4779 -0.5655
 7737W        W26591  18.037  14.275  11.179  0.0361 -0.2362 -0.0601
 7738W        W26592  11.564  10.724  11.854  0.0891 -0.1278 -0.0123
 7739W        W26593   4.707  18.802  13.707 -0.1166  0.0492  0.0255
 7740W        W26594  10.016  14.284   3.973 -0.3996 -0.1692  0.0793
 7741W        W26595   1.081  10.680   1.832  0.2028 -0.0547  0.1244
 7742W        W26596  17.573  13.846   3.821 -0.0344  0.2649 -0.1276
 7743W        W26597  12.408   5.025  11.169  0.0588  0.0424 -0.2195
 7744W        W26598   2.571   4.056  14.694  0.0227  0.1643 -0.2228
 7745W        W26599   9.573  10.726  10.199 -0.1518  0.1308  0.0911
 7746W        W26600   4.956  11.230   4.992  0.1358  0.3088 -0.0730
 7747W        W26601  14.800   4.998   2.789  0.3991 -0.0413 -0.0823
 7748W        W26602   4.419   2.419  12.988  0.0781  0.1858  0.1911
 7749W        W26603  18.843   4.716  11.866  0.0805 -0.2634  0.4037
 7750W        W26604   5.031   3.631  13.277 -0.2083  0.2399 -0.1262
 7751W        W26605   3.510  17.234  13.783 -0.0233 -0.0817 -0.1477
 7752W        W26606   0.998   3.033   5.021 -0.0892  0.1589 -0.0217
 7753W        W26607   4.823  12.586  11.111  0.0291 -0.1809 -0.2888
 7754W        W26608   5.352  10.084   3.012 -0.0575 -0.1406  0.1324
 7755W        W26609  18.837  17.940  10.366  0.1623 -0.2365 -0.2081
 7756W        W26610  10.463  12.728   0.165 -0.1898  0.2052 -0.1301
 7757W        W26611  10.717  11.861   1.568  0.3814 -0.1737  0.4423
 7758W        W26612  15.677   4.681   3.364  0.4956 -0.1132 -0.1484
 7759W        W26613   5.937  18.834  14.303 -0.0965 -0.2412  0.0367
 7760W        W26614  16.113   5.271   9.955 -0.0481 -0.3984 -0.0517
 7761W        W26615  12.332   4.807  13.527 -0.0481 -0.0612  0.2515
 7762W        W26616  16.385   8.823  14.670  0.1210  0.1018 -0.3348
 7763W        W26617  14.693   5.707   1.565 -0.4697 -0.1499  0.3336
 7764W        W26618   4.306  16.495   2.582 -0.1478  0.1539 -0.0184
 7765W        W26619  14.097  14.181   4.219 -0.1917  0.1791 -0.0506
 7766W        W26620   1.699   6.687   0.801  0.0010  0.1889 -0.2154
 7767W        W26621  14.664  15.983   0.807 -0.1199  0.2711 -0.0921
 7768W        W26622  12.514  18.162  11.201 -0.0032  0.1813  0.0966
 7769W        W26623   6.442  15.412   0.704 -0.3096 -0.0246  0.0407
 7770W        W26624  16.913  13.218  12.140 -0.1722  0.2281 -0.2529
 7771W        W26625   2.636   4.270   2.133 -0.0361 -0.1904  0.1005
 7772W        W26626   8.933   6.869   3.214  0.1933 -0.1875 -0.2126
 7773W        W26627  14.258  17.129   0.617  0.0734 -0.0479 -0.1211
 7774W        W26628  17.133   1.219  14.445  0.0438 -0.0043 -0.0977
 7775W        W26629   5.262   3.786   1.541  0.1266  0.0626  0.2566
 7776W        W26630   0.383  15.173   2.013  0.0116  0.1481  0.0180
 7777W        W26631  14.564   5.482   2.014 -0.3311  0.0516 -0.3195
 7778W        W26632   3.520   2.412   3.900 -0.0394  0.0320  0.0992
 7779W        W26633  12.091   3.857  12.492  0.1254 -0.1682 -0.0746
 7780W        W26634   5.292  16.500   2.932  0.1654  0.0370 -0.0115
 7781W        W26635   5.025   6.873  10.461 -0.3290  0.1155 -0.1309
 7782W        W26636  16.442  16.946   4.806  0.4108 -0.3391 -0.2839
 7783W        W26637  14.973   4.093   1.207 -0.0828 -0.1457  0.2813
 7784W        W26638  18.502   3.761  13.623 -0.1431  0.1979  0.3246
 7785W        W26639  10.751   5.950  13.272  0.0200  0.2118  0.0029
 7786W        W26640  13.967   0.090   2.245  0.0790 -0.0646 -0.1769
 7787W        W26641   5.995   4.767  13.137  0.0561 -0.0954 -0.1770
 7788W        W26642   3.964  10.203   5.429 -0.2663  0.0639  0.0074
 7789W        W26643  11.940   5.102  12.516 -0.1865 -0.0183  0.2445
 7790W        W26644   9.308   0.137   3.515  0.1614  0.2167  0.1952
 7791W        W26645  15.480   1.120  14.515  0.1286  0.2752  0.0512
 7792W        W26646   0.940   6.407   4.251 -0.1325 -0.1216 -0.1840
 7793W        W26647  18.979   1.460   3.789 -0.0157  0.1555 -0.1121
 7794W        W26648  18.008  16.165   3.239  0.0774  0.4776  0.0160
 7795W        W26649  10.657  10.382  12.546 -0.1973 -0.0429  0.1555
 7796W        W26650  13.373   6.064   2.379 -0.2849 -0.2602  0.1239
 7797W        W26651   5.074  16.768   3.715  0.0360  0.0064  0.1327
 7798W        W26652   5.946  18.950  13.489  0.2728 -0.0671 -0.1809
 7799W        W26653   8.903   0.181   3.839  0.0990  0.1359 -0.3129
 7800W        W26654  16.096  12.867  10.928 -0.1634 -0.1605  0.2613
 7801W        W26655  12.255  16.537   4.675  0.2694  0.1183 -0.1062
 7802W        W26656   3.449   9.960   1.193 -0.0346  0.0049  0.0338
 7803W        W26657   6.624   2.166   1.849 -0.1504  0.2651  0.1892
 7804W        W26658  14.486  14.476   0.748 -0.1467 -0.1629  0.0653
 7805W        W26659   7.617  16.910  12.535  0.1469  0.0957 -0.1261
 7806W        W26660  15.520   0.242   3.240 -0.2047 -0.1918 -0.2030
 7807W        W26661   4.695   0.439   4.062 -0.3023  0.0986  0.0186
 7808W        W26662  11.344  18.286   4.395  0.2091  0.0358  0.1394
 7809W        W26663  12.996  11.361   0.620  0.0304 -0.4493 -0.0132
 7810W        W26664   0.622  14.086  12.996 -0.1263 -0.2673 -0.0532
 7811W        W26665   3.327   1.073  10.343  0.0246  0.0428 -0.2083
 7812W        W26666   9.704  17.450   4.102 -0.1311  0.2407 -0.2231
 7813W        W26667   1.343   4.948   3.320 -0.0961 -0.3070  0.2851
 7814W        W26668   0.317   4.966  14.660  0.0505 -0.3272 -0.5457
 7815W        W26669   7.862   8.607  12.512  0.1269 -0.0562  0.0807
 7816W        W26670   3.950   4.340  11.401 -0.0650  0.3724 -0.0733
 7817W        W26671  16.605   2.723  13.840 -0.0564  0.6498  0.2007
 7818W        W26672  17.382   6.157  12.147 -0.0923  0.4337  0.0848
 7819W        W26673  16.612   4.385  13.764 -0.0864  0.0868 -0.1840
 7820W        W26674  10.755   3.287  11.666 -0.2015  0.1542  0.0230
 7821W        W26675  11.292  18.381   1.565 -0.0194 -0.1851  0.0360
 7822W        W26676   0.493   9.974  11.702 -0.3089 -0.3199 -0.0061
 7823W        W26677   3.389  15.530   1.798  0.0945 -0.1796 -0.2257
 7824W        W26678  16.441  17.882  10.207  0.1220  0.2874  0.0440
 7825W        W26679  10.720  12.188  12.318 -0.0758 -0.1117  0.0820
 7826W        W26680   7.453   1.042  10.560  0.0378  0.0288 -0.5854
 7827W        W26681   8.551   5.365   2.738 -0.0708  0.0148 -0.1862
 7828W        W26682  12.757   2.251  12.961 -0.1041  0.2422  0.1587
 7829W        W26683   1.270  12.336   0.409  0.1051  0.2857  0.1767
 7830W        W26684   9.591  16.799   3.669  0.2500 -0.1130  0.2371
 7831W        W26685   2.575   0.363  14.248 -0.1996  0.0190  0.1124
 7832W        W26686  14.424   9.588   0.044 -0.2408  0.1005 -0.2618
 7833W        W26687  10.924  13.580   1.325  0.1365  0.3069 -0.1654
 7834W        W26688   3.943   2.702  12.244 -0.1428 -0.0699 -0.0828
 7835W        W26689  14.579  12.983   2.930  0.1173 -0.0982  0.1571
 7836W        W26690  14.251  16.048   2.174  0.1418 -0.0055  0.0734
 7837W        W26691  18.172  12.398  13.927 -0.1554  0.1139 -0.1891
 7838W        W26692   7.278  14.551  12.920  0.0411 -0.1368 -0.0399
 7839W        W26693   7.306  17.791  11.389  0.0566 -0.0008 -0.0158
 7840W        W26694   7.330   1.113   2.901 -0.4353  0.1166 -0.0968
 7841W        W26695   0.599  15.944   2.028 -0.1793 -0.0942  0.1266
 7842W        W26696   8.206  15.934   1.447 -0.3031  0.2504  0.0618
 7843W        W26697  15.499   3.369  11.094 -0.0110 -0.1321 -0.2573
 7844W        W26698  13.946  18.463   0.557  0.1368 -0.0312  0.3146
 7845W        W26699  10.536  14.286   2.227 -0.2318 -0.2458  0.2409
 7846W        W26700  17.515  13.475   0.186 -0.1996 -0.1253 -0.0135
 7847W        W26701  10.573  12.753  10.871  0.0421  0.1148 -0.1260
 7848W        W26702   0.923   3.156   2.092  0.0868  0.0078  0.1683
 7849W        W26703   2.657   9.207  12.543  0.0475  0.1441  0.1247
 7850W        W26704  18.136   2.177  13.428  0.0837  0.0568 -0.1723
 7851W        W26705  12.735   8.007  12.068 -0.1891 -0.0009 -0.2612
 7852W        W26706  14.786   1.077   2.218  0.1677 -0.1854 -0.1015
 7853W        W26707   7.002   9.352  13.850  0.1181 -0.0257 -0.0714
 7854W        W26708   5.282  17.292   1.415  0.1766  0.1514  0.2318
 7855W        W26709   3.110   8.134  11.989  0.1372  0.2193 -0.0235
 7856W        W26710  15.920  13.853   0.572 -0.5087  0.2278 -0.1564
 7857W        W26711  13.664   4.335  12.292 -0.2430  0.0064  0.1419
 7858W        W26712  16.384  12.528   2.610 -0.4712 -0.1134  0.1769
 7859W        W26713   1.225  17.638   2.909 -0.0485 -0.2697 -0.1916
 7860W        W26714  13.274  17.774   3.025 -0.3032  0.0906  0.1270
 7861W        W26715   9.700   2.365  11.886 -0.0583 -0.0701 -0.0872
 7862W        W26716   1.137   1.743  13.478  0.0938  0.1054  0.1084
 7863W        W26717  10.911  17.712  14.112  0.2181  0.1523 -0.2094
 7864W        W26718   9.833   7.168   1.197  0.1501 -0.3209  0.0447
 7865W        W26719  12.750   9.832   9.867  0.0188  0.2957 -0.2776
 7866W        W26720  12.543  12.706  14.039  0.1593 -0.1694 -0.1239
 7867W        W26721   7.639  17.942   9.979  0.1153  0.0779  0.1492
 7868W        W26722   0.067   8.066  13.275 -0.2246  0.2674  0.1543
 7869W        W26723   1.294  15.705   2.773 -0.0269 -0.3885 -0.0853
 7870W        W26724  17.664   3.406  11.813 -0.1923 -0.5694 -0.4248
 7871W        W26725  10.937  14.792  12.760 -0.2857  0.2308 -0.3615
 7872W        W26726   8.055  17.571   0.820  0.2802 -0.0794 -0.2402
 7873W        W26727   0.679   6.420   0.275 -0.2943  0.0892  0.1161
 7874W        W26728  18.030   4.460  11.316  0.1456 -0.1224  0.0441
 7875W        W26729   2.735  12.085   0.426 -0.0718 -0.0854  0.1829
 7876W        W26730  11.705  12.086  12.780  0.1372 -0.1084  0.1310
 7877W        W26731  11.663   1.121   2.369  0.1823 -0.1205 -0.0160
 7878W        W26732   2.278  17.959   2.918  0.1593 -0.1314 -0.4430
 7879W        W26733  10.694  16.165  12.152  0.0229  0.1197 -0.0284
 7880W        W26734   3.106  10.581  13.981  0.3951 -0.0517 -0.0287
 7881W        W26735   4.127  16.427  13.278 -0.0086  0.0889  0.0652
 7882W        W26736   2.814   6.994   2.024 -0.0419 -0.0030  0.2394
 7883W        W26737  12.148  18.246  13.546  0.1957 -0.0829 -0.1218
 7884W        W26738   4.341   0.973   0.330  0.0184  0.2589  0.1701
 7885W        W26739   0.557  10.284   2.611 -0.0548 -0.0628 -0.2193
 7886W        W26740   0.788   4.590   0.373 -0.0642 -0.0177 -0.0500
 7887W        W26741   6.129   8.736  12.605  0.2519 -0.1642  0.2130
 7888W        W26742   2.620   3.969  11.430 -0.0273 -0.0816 -0.0878
 7889W        W26743   7.790   3.302   2.835  0.0976  0.2970 -0.1172
 7890W        W26744  11.479   1.161   1.602 -0.4634 -0.1585  0.1423
 7891W        W26745   9.596  17.743  13.824 -0.3111 -0.4650  0.0312
 7892W        W26746  14.035   5.083  13.883 -0.0851  0.1618  0.2564
 7893W        W26747  13.173   8.643   1.433  0.1521  0.0512  0.0899
 7894W        W26748  12.576  18.537  14.359 -0.0656  0.0819 -0.0936
 7895W        W26749   5.489  19.017   5.272 -0.1054  0.1776 -0.0053
 7896W        W26750  14.866  14.118   0.812 -0.1325  0.1121  0.1176
 7897W        W26751   4.225  15.343   0.570 -0.1281 -0.1317 -0.3210
 7898W        W26752  10.748   2.445   1.370  0.1229 -0.1161  0.2276
 7899W        W26753  14.840  16.307  13.291  0.0741 -0.0029 -0.0504
 7900W        W26754   4.297   9.576  12.254 -0.2281  0.2764 -0.0467
 7901W        W26755  16.870   7.535   4.373  0.1384  0.0095 -0.2431
 7902W        W26756   3.413   5.372   0.476  0.0004 -0.1849  0.1696
 7903W        W26757  18.241   5.689   2.785 -0.3223  0.4231  0.0802
 7904W        W26758   1.965   6.840  13.865  0.3294  0.0380  0.3879
 7905W        W26759  14.587  10.564  14.375  0.3173  0.1971  0.0190
 7906W        W26760   6.616  17.249   1.207 -0.3159  0.0105 -0.0689
 7907W        W26761  13.596  18.218   3.194 -0.0234  0.1141 -0.0254
 7908W        W26762  15.883  14.989  13.267 -0.2202 -0.2825 -0.0598
 7909W        W26763  18.254   0.374  13.352 -0.0554 -0.2394  0.0687
 7910W        W26764  11.463  14.016  10.482 -0.0151  0.1509  0.0549
 7911W        W26765   8.400   9.124   0.700  0.2872 -0.4897 -0.0403
 7912W        W26766   6.636  14.377  13.488 -0.0668 -0.2893 -0.1490
 7913W        W26767  16.173   9.249   2.333  0.3310 -0.2012  0.0323
 7914W        W26768   0.845  14.228  13.693  0.2979 -0.0197  0.0867
 7915W        W26769  10.351  11.240  12.165  0.0746 -0.2682 -0.1621
 7916W        W26770   2.519  15.797  13.553  0.3280  0.0800  0.3849
 7917W        W26771  15.177   6.534  14.544 -0.1580 -0.1467 -0.2148
 7918W        W26772  17.391  17.856   0.626 -0.2113 -0.0686 -0.2018
 7919W        W26773  10.134   0.934   0.286 -0.0378  0.2409  0.1531
 7920W        W26774   6.527  16.543   3.930 -0.1073  0.0416  0.0997
 7921W        W26775   7.376  14.564  12.300  0.1406 -0.0814  0.1199
 7922W        W26776   9.285  10.950   1.389 -0.0536  0.1541 -0.2128
 7923W        W26777   9.805   5.454   1.145 -0.0278  0.0125  0.2778
 7924W        W26778  11.960  14.159   3.175 -0.0156 -0.1945 -0.1112
 7925W        W26779   7.465   3.707  14.590  0.3174  0.1444  0.0808
 7926W        W26780  14.454   9.322   3.168  0.2389 -0.1122 -0.4056
 7927W        W26781   1.042  11.087   3.893  0.3361 -0.2479  0.1093
 7928W        W26782  16.954   4.882   0.649  0.0837  0.1153 -0.4859
 7929W        W26783   2.231   9.685  13.053  0.2081  0.0363  0.2173
 7930W        W26784   5.295   1.186   0.607  0.1204  0.0643 -0.0058
 7931W        W26785  11.854   9.172   0.360 -0.0860 -0.0106  0.3094
 7932W        W26786  15.680   9.849   0.165 -0.3647  0.0472  0.0279
 7933W        W26787  16.613   3.655  12.687 -0.1231 -0.0744  0.0441
 7934W        W26788  17.739   0.966   3.580 -0.0059  0.2238 -0.2032
 7935W        W26789  10.162  17.180   0.180  0.1354 -0.4468  0.0347
 7936W        W26790   2.750   1.670   1.011  0.1058  0.1215 -0.0916
 7937W        W26791   7.520  15.377  10.936 -0.0780 -0.2955  0.2070
 7938W        W26792  15.457  18.417  13.915 -0.1474 -0.0667 -0.1730
 7939W        W26793  17.775  10.043   1.007 -0.1224 -0.4409 -0.2868
 7940W        W26794   5.773   5.559   1.786  0.2927  0.0432 -0.0665
 7941W        W26795   4.575   1.023  10.794  0.1268 -0.0026  0.0735
 7942W        W26796   2.976  14.329   2.280 -0.0964  0.2626 -0.0496
 7943W        W26797  17.468   3.535  14.672  0.0531 -0.1615  0.1587
 7944W        W26798   3.551  12.434   2.301  0.2117 -0.0891 -0.2892
 7945W        W26799  16.497   5.258   3.596  0.0404 -0.1328  0.0214
 7946W        W26800  16.628  16.547   9.232 -0.1473 -0.0034  0.2132
 7947W        W26801   5.398  17.850  10.215  0.0563  0.1310  0.1292
 7948W        W26802   7.769  10.869  13.873  0.1543  0.0375 -0.2542
 7949W        W26803  13.211   9.522  14.428 -0.5612  0.0374 -0.3173
 7950W        W26804  14.175  12.617   2.725  0.0702 -0.1614 -0.2561
 7951W        W26805   0.168  10.409  12.708  0.0633 -0.0463 -0.0601
 7952W        W26806  11.208  17.870   2.860  0.1130 -0.2108 -0.1505
 7953W        W26807   3.376   6.072   1.231 -0.3014 -0.0114 -0.0973
 7954W        W26808  14.812  11.361  12.393 -0.0639  0.1745 -0.1567
 7955W        W26809   5.286   5.121  11.847 -0.1904 -0.2165 -0.1008
 7956W        W26810   7.331   7.996   2.686  0.1463  0.2103  0.2751
 7957W        W26811   5.938   1.663  13.086 -0.2320  0.1535  0.0351
 7958W        W26812  13.350   1.568  11.272 -0.2850  0.1322 -0.1120
 7959W        W26813   1.553  16.223   5.424  0.2666 -0.0053 -0.3633
 7960W        W26814   3.333  16.703   0.941  0.0881 -0.1514 -0.2888
 7961W        W26815   0.306  15.585  13.731 -0.0880  0.0831  0.3501
 7962W        W26816  13.696   2.735   1.024 -0.0297  0.0979 -0.1751
 7963W        W26817  13.857  17.002   3.436 -0.1057 -0.5007 -0.0209
 7964W        W26818  13.772  11.589  14.105 -0.0823  0.0994 -0.0008
 7965W        W26819  11.796  18.307   2.549  0.0699 -0.0633  0.0909
 7966W        W26820  10.976  15.619   1.006  0.1888  0.1180  0.1968
 7967W        W26821   4.099   4.192  13.179 -0.0705  0.2302 -0.2276
 7968W        W26822   8.911   2.452   4.067 -0.4076  0.0987  0.3159
 7969W        W26823   6.213   4.569  11.983 -0.1737 -0.2409  0.2624
 7970W        W26824   9.872  14.834   1.426  0.1032  0.1220 -0.0234
 7971W        W26825  17.840  17.347   2.687  0.6130  0.0272  0.1895
 7972W        W26826   5.349  19.136  11.567 -0.1310 -0.1800 -0.1587
 7973W        W26827  11.735   9.665   0.156  0.1759  0.2335  0.1056
 7974W        W26828   1.660  10.606   2.943  0.4066 -0.0642 -0.4725
 7975W        W26829   7.569  10.928  13.226  0.1081 -0.1552  0.1011
 7976W        W26830   8.779   6.677   4.012  0.2580  0.1464  0.0230
 7977W        W26831   7.783  11.718  12.887 -0.0945 -0.2028  0.0410
 7978W        W26832  17.618   4.513  10.403 -0.0063 -0.2539 -0.0648
 7979W        W26833  19.079   8.635  14.346 -0.0387 -0.1270  0.0832
 7980W        W26834   1.706   2.400   3.279  0.2133 -0.2645 -0.0753
 7981W        W26835  17.470   6.746  14.436  0.3363  0.0524 -0.0178
 7982W        W26836  13.841  16.841   4.001 -0.0473  0.0730  0.2822
 7983W        W26837  10.614  10.510  14.369 -0.3686 -0.0231  0.2911
 7984W        W26838   4.798   2.924  11.596  0.1499  0.0074  0.2242
 7985W        W26839   1.338   2.140   2.800  0.1226 -0.2136 -0.2983
 7986W        W26840   6.194   0.877  11.342  0.2686 -0.1891 -0.1756
 7987W        W26841  16.895  11.642  13.481  0.1378 -0.0241  0.1841
 7988W        W26842   1.815   0.668  14.660  0.0460 -0.0059  0.1106
 7989W        W26843   2.245   4.432   0.228 -0.2573  0.1609  0.1410
 7990W        W26844  14.998  13.007   1.710  0.4515  0.1616  0.0403
 7991W        W26845   2.639   8.798  13.785  0.3813 -0.0224 -0.0244
 7992W        W26846  15.140  17.115   4.323  0.0286 -0.0134 -0.5248
 7993W        W26847   2.895   2.727  13.404  0.3748 -0.0553 -0.1976
 7994W        W26848  15.949  12.555   0.570  0.0293  0.1898  0.1115
 7995W        W26849  18.294   3.164   4.557 -0.1657  0.2045 -0.0689
 7996W        W26850  12.140  10.565   3.552  0.2267 -0.0160  0.2435
 7997W        W26851   5.608  17.535   2.779  0.2405  0.2254  0.0553
 7998W        W26852   7.747   3.535  10.075  0.1514  0.3753 -0.1430
 7999W        W26853  13.051   4.706   2.957  0.0608  0.0458  0.0587
 8000W        W26854  11.119   7.001  10.993 -0.1310 -0.1989  0.2405
 8001W        W26855  13.618   1.154   1.755  0.3451  0.2022  0.0253
 8002W        W26856  18.270   0.268  13.814 -0.1573 -0.1143 -0.0669
 8003W        W26857   5.998  12.492  13.025 -0.2147  0.0328  0.1558
 8004W        W26858   9.470   4.704  14.746  0.0972 -0.3989 -0.0519
 8005W        W26859  11.722   5.629   9.568 -0.0413  0.1590  0.1200
 8006W        W26860   7.187   5.573   1.545  0.2332  0.0289 -0.0170
 8007W        W26861  13.223   5.658   3.801 -0.2369  0.0741  0.0595
 8008W        W26862  12.249  14.961   3.659 -0.0881 -0.2554 -0.1035
 8009W        W26863   1.374   4.253  13.670 -0.1508 -0.2473  0.2745
 8010W        W26864  18.459   6.128  13.001  0.1923  0.0118 -0.3536
 8011W        W26865   1.701  16.568   3.874 -0.0502 -0.0406  0.0909
 8012W        W26866   3.142   0.910  11.503 -0.0266 -0.1117  0.2257
 8013W        W26867   1.167   5.339  12.376 -0.0352 -0.0353 -0.3726
 8014W        W26868  10.037   0.615  11.711 -0.0033  0.2492  0.0160
 8015W        W26869  14.998  14.721   2.109  0.0558  0.1032  0.2129
 8016W        W26870   8.728   9.797  14.297  0.3079 -0.0539 -0.4086
 8017W        W26871   7.893   9.025   3.435  0.1328  0.0760 -0.1229
 8018W        W26872   6.661  17.964   4.100  0.1005  0.1987 -0.1012
 8019W        W26873   7.213   8.690   0.049  0.0188 -0.1436  0.2244
 8020W        W26874  12.143   8.875   2.151 -0.1168  0.0343 -0.2102
 8021W        W26875  14.923   6.340   2.146 -0.0943  0.2583 -0.0608
 8022W        W26876  16.721   5.133   2.875  0.1448 -0.0328 -0.3152
 8023W        W26877  11.051   7.816  10.484  0.0032  0.0984  0.2884
 8024W        W26878  13.498  18.489  13.506 -0.2539 -0.0535 -0.0618
 8025W        W26879   1.602   4.682   2.060  0.0260 -0.1311 -0.0885
 8026W        W26880  11.609  12.140   2.216 -0.1871 -0.0922  0.0776
 8027W        W26881   6.207  16.987   3.262 -0.0933 -0.3402 -0.1275
 8028W        W26882   3.008   9.256   4.481  0.5720  0.0061  0.1584
 8029W        W26883   2.400  18.551   2.369 -0.1617 -0.0400 -0.1932
 8030W        W26884   5.645   9.210   1.860 -0.2869  0.0887 -0.0620
 8031W        W26885   1.588   5.858   4.320  0.3015 -0.0119 -0.1501
 8032W        W26886   9.960   1.460  13.387  0.0350 -0.2035 -0.0514
 8033W        W26887  14.692   1.057  11.261  0.0108 -0.0898  0.0076
 8034W        W26888  18.649  15.927   2.367 -0.2165 -0.1979  0.1539
 8035W        W26889  18.036  12.655   9.961  0.2644  0.0878 -0.1226
 8036W        W26890   6.697   6.989  13.881  0.3578 -0.2542  0.0806
 8037W        W26891   7.825   7.023  14.739 -0.3312 -0.0620 -0.1813
 8038W        W26892   5.275   2.828  10.725 -0.0791  0.0727  0.1529
 8039W        W26893  11.625  14.358   3.621  0.0539 -0.4101 -0.1058
 8040W        W26894   6.167   0.382   0.070  0.1813 -0.2900 -0.2761
 8041W        W26895   9.122  14.559   3.099 -0.0353 -0.0114  0.0307
 8042W        W26896   9.762  12.837  11.172 -0.0643 -0.0155 -0.1128
 8043W        W26897   1.205  12.178  14.342 -0.3189 -0.0004  0.0405
 8044W        W26898   2.483  10.199   1.244  0.1990 -0.3479  0.0187
 8045W        W26899  15.400  17.263   2.913  0.0064 -0.1733 -0.0725
 8046W        W26900   0.977  13.806   4.154 -0.0960  0.1106 -0.3120
 8047W        W26901   6.090   3.296  10.816  0.1962  0.3982 -0.1924
 8048W        W26902  11.104  15.523   3.860 -0.0339  0.0584 -0.1116
 8049W        W26903  17.142   9.512  11.150  0.0229  0.0024  0.4052
 8050W        W26904  13.569   6.723   2.949  0.2644  0.1009 -0.0371
 8051W        W26905   1.096  11.399  13.071  0.0826  0.2223 -0.1832
 8052W        W26906   4.864   8.999   4.825 -0.1393 -0.2885  0.0988
 8053W        W26907  13.513   5.261   3.599  0.0196 -0.1061 -0.0451
 8054W        W26908   9.523   9.192   4.433 -0.2082  0.4664 -0.1492
 8055W        W26909   0.773   1.168   4.071 -0.0689 -0.0994 -0.0178
 8056W        W26910   5.032   4.629  14.014 -0.1059 -0.0933  0.3698
 8057W        W26911  14.113   9.952   0.219 -0.1571 -0.1447 -0.1163
 8058W        W26912  11.772  13.931   0.494  0.2367 -0.0040  0.0136
 8059W        W26913  15.843  14.329   3.677  0.1905  0.0417  0.0095
 8060W        W26914  12.734  11.493   3.277 -0.3749  0.0302 -0.3660
 8061W        W26915  13.317   5.478   0.463 -0.0593  0.2402  0.0924
 8062W        W26916  10.847  11.656  13.129  0.0145  0.0371 -0.1187
 8063W        W26917   1.460  16.065  14.496  0.0079 -0.0369 -0.1260
 8064W        W26918   2.642   7.662   0.950 -0.0929  0.0779 -0.3674
 8065W        W26919  14.090  11.416   4.526 -0.0718 -0.0577  0.3946
 8066W        W26920   8.938  13.982  10.944 -0.1381  0.0130  0.1679
 8067W        W26921   6.122  11.469   2.123  0.2169 -0.0342  0.0172
 8068W        W26922  13.254   1.671   1.834  0.1200  0.0702 -0.0574
 8069W        W26923   2.573   7.349  13.149 -0.1779 -0.3358  0.1084
 8070W        W26924  14.525   4.225  14.447 -0.0212 -0.2460 -0.0775
 8071W        W26925  13.102   7.051  11.893  0.0802  0.0865 -0.2369
 8072W        W26926   0.274   7.818  11.068  0.1826 -0.1093  0.2122
 8073W        W26927   2.087   2.303   3.547 -0.1781 -0.0062  0.0043
 8074W        W26928  16.971  12.008   2.940 -0.2889 -0.4383 -0.1794
 8075W        W26929  12.989   1.190   1.742 -0.0669  0.3147 -0.1444
 8076W        W26930  14.560  11.008  12.629 -0.2533 -0.2552  0.1242
 8077W        W26931   5.074   4.438  14.495  0.0188 -0.2561 -0.2638
 8078W        W26932   3.082  11.957  11.626  0.1040  0.0591 -0.1835
 8079W        W26933   0.781   4.503  10.761 -0.0844 -0.1320  0.1464
 8080W        W26934   2.592   9.965   2.374  0.1717  0.1551 -0.1410
 8081W        W26935  11.941   6.804   1.385 -0.1037  0.1787  0.1094
 8082W        W26936   7.974  11.643  13.455  0.1550  0.1248 -0.2174
 8083W        W26937   4.246  10.275  14.529 -0.0086  0.1721  0.0112
 8084W        W26938  17.274   7.873  10.125 -0.0947  0.1194  0.0938
 8085W        W26939  13.938   0.107   4.015 -0.1998 -0.0210  0.1703
 8086W        W26940   2.459  12.951   2.746  0.0014  0.2405  0.2079
 8087W        W26941   4.958  14.708   1.284 -0.0478  0.0885 -0.2428
 8088W        W26942   7.512   7.218   3.150  0.1188 -0.1145  0.0076
 8089W        W26943   3.023   1.170   3.083  0.0445 -0.0989  0.0133
 8090W        W26944  12.266   1.437   5.004  0.0562  0.4022 -0.3803
 8091W        W26945   6.585   6.542  11.632 -0.0339 -0.2113  0.1533
 8092W        W26946  10.298  13.253   5.214  0.1030  0.0448  0.0276
 8093W        W26947   4.874  18.580   1.688  0.0032 -0.1761  0.1750
 8094W        W26948   2.023  12.621   4.019  0.0273  0.3454  0.0656
 8095W        W26949   1.530   3.270  13.434  0.0323  0.0572 -0.0483
 8096W        W26950  13.330   5.937  11.744  0.1060 -0.0094  0.0905
 8097W        W26951  13.445  15.358  10.887 -0.1488 -0.0211 -0.0934
 8098W        W26952   7.472   7.825  13.310 -0.0343  0.0608 -0.2213
 8099W        W26953   6.811   1.851  12.564  0.2806 -0.5133 -0.1584
 8100W        W26954  12.563  12.393   1.205 -0.0125 -0.0540 -0.1105
 8101W        W26955  12.426   5.154  13.862 -0.3202 -0.0590  0.1194
 8102W        W26956  13.124   1.333   0.370  0.1241  0.2886  0.1585
 8103W        W26957  17.148  11.317   3.155  0.3132 -0.2055 -0.0757
 8104W        W26958  13.867   0.306  14.423  0.2047  0.1598 -0.2061
 8105W        W26959   1.322   3.710  13.670  0.0741  0.0621  0.0895
 8106W        W26960   0.511   6.449  12.742 -0.2606 -0.1757  0.2700
 8107W        W26961  17.264  12.881   3.275 -0.1546  0.1625  0.0142
 8108W        W26962   1.900  15.680  10.662  0.0872 -0.4595  0.0914
 8109W        W26963  12.593   8.788   0.198  0.0185 -0.0062 -0.1281
 8110W        W26964   4.437   3.203  12.834 -0.2973  0.0526  0.1044
 8111W        W26965   3.022  12.447  14.058 -0.2244  0.1665 -0.1409
 8112W        W26966   7.877  17.390  13.763  0.0473  0.1174 -0.1503
 8113W        W26967   4.166   0.532  12.500 -0.1430  0.1267 -0.1671
 8114W        W26968   5.396  10.761  12.816  0.3032 -0.2756  0.0766
 8115W        W26969   4.975  18.727   3.918  0.0542  0.0792  0.2215
 8116W        W26970   8.026   5.413  10.629 -0.1736  0.3422  0.0367
 8117W        W26971  12.911  18.118   3.219 -0.0461 -0.2685 -0.5583
 8118W        W26972  14.637   3.744  11.853 -0.1330  0.1350  0.3214
 8119W        W26973   4.586  12.316   1.316  0.0772  0.0178  0.0433
 8120W        W26974  15.707   4.426  12.514 -0.2190  0.1119 -0.3315
 8121W        W26975  17.564   4.078   3.124  0.1380  0.0288 -0.2600
 8122W        W26976  10.796  18.033   0.935 -0.2591 -0.1027 -0.2331
 8123W        W26977   2.373   2.437   0.802 -0.1572  0.0714 -0.2260
 8124W        W26978   9.089  16.981   2.790 -0.3621  0.1520 -0.2511
 8125W        W26979  14.726  17.560   1.770  0.1257  0.0779 -0.0259
 8126W        W26980  14.690  15.841  13.347  0.0690 -0.0125 -0.2236
 8127W        W26981  16.554  12.280   3.835 -0.4705  0.1815 -0.1553
 8128W        W26982  14.282  12.161  13.108  0.1642  0.2407 -0.0092
 8129W        W26983  11.192  12.084   1.660 -0.2033 -0.2910 -0.0659
 8130W        W26984   6.910  14.762  13.560  0.2614  0.0011 -0.0145
 8131W        W26985   6.924   3.583   9.719 -0.1492  0.1933  0.1110
 8132W        W26986   2.599   7.699   3.582  0.4451  0.0103  0.1374
 8133W        W26987  13.302   6.584   3.868 -0.3336 -0.3137  0.3314
 8134W        W26988   4.315  15.082  13.329 -0.1396  0.2822  0.0281
 8135W        W26989  18.571  18.241  11.873 -0.0745  0.0209  0.1526
 8136W        W26990  16.801   8.902  11.678 -0.0665 -0.0397 -0.0850
 8137W        W26991  13.594  12.032  14.319 -0.0206 -0.0637 -0.1872
 8138W        W26992   1.033   0.209   0.355  0.2676  0.0903  0.0139
 8139W        W26993  17.958   3.957  12.827  0.1099  0.0300 -0.1016
 8140W        W26994   4.870   4.703  10.405  0.1195 -0.2937 -0.0275
 8141W        W26995   7.223   8.363  11.819  0.2296 -0.1523 -0.1614
 8142W        W26996  15.502  13.960  13.982 -0.1151  0.1936  0.3009
 8143W        W26997  12.029   8.053   4.769  0.0129 -0.1260 -0.0902
 8144W        W26998  17.329   2.413   3.871  0.0238 -0.1519 -0.0202
 8145W        W26999   8.529   0.856   0.534  0.0741 -0.3634 -0.3652
 8146W        W27000  10.574  18.533   0.439 -0.0545  0.0167  0.0925
 8147W        W27001  17.730  15.997   1.748  0.3381  0.1314 -0.0204
 8148W        W27002  11.943  11.664   3.460  0.0281 -0.0900  0.5629
 8149W        W27003   3.275  12.379   1.233  0.1466  0.0227  0.0537
 8150W        W27004   1.443   6.656   0.322  0.0974 -0.0653  0.0774
 8151W        W27005   7.079   8.481   3.871 -0.2874 -0.0418 -0.3013
 8152W        W27006  13.041  13.692  13.110 -0.1339 -0.1542  0.0705
 8153W        W27007  17.147   8.236  10.503  0.2190  0.0149  0.1771
 8154W        W27008   6.145  13.733   2.258 -0.2129  0.1364  0.0630
 8155W        W27009  16.147  17.736   1.510  0.1080  0.2490  0.0323
 8156W        W27010   7.477  18.897   4.876 -0.3045 -0.0499 -0.0387
 8157W        W27011   5.528   1.860  10.471  0.1059 -0.0666  0.1979
 8158W        W27012   2.185  18.846  11.253  0.4415 -0.2072 -0.0057
 8159W        W27013   2.627   1.401  13.916 -0.0240 -0.0244 -0.2333
 8160W        W27014  12.102   7.677  14.690  0.2816 -0.3274  0.1936
 8161W        W27015   8.152  12.976   1.217 -0.0715  0.2906  0.0204
 8162W        W27016   9.577  18.260  13.300  0.0625  0.0255  0.1308
 8163W        W27017  10.266   4.362  14.333  0.3403  0.1498  0.1302
 8164W        W27018   6.006   0.134  12.433  0.3918  0.1861  0.1532
 8165W        W27019   7.620   2.937  13.717 -0.0400 -0.1708  0.0585
 8166W        W27020   5.249   3.224   1.426  0.1181 -0.0576 -0.1728
 8167W        W27021   7.185  13.782  12.498 -0.1858 -0.1634 -0.1440
 8168W        W27022  16.005   6.536   0.065  0.1301  0.0279 -0.0692
 8169W        W27023   3.827   4.535  11.872 -0.2108  0.0486  0.2215
 8170W        W27024   2.531   9.174  13.419  0.0068 -0.0459 -0.0153
 8171W        W27025   5.286  18.099   3.932 -0.1791 -0.0398  0.1457
 8172W        W27026  14.186   9.268   4.053 -0.2746  0.0879 -0.0283
 8173W        W27027   3.755  12.578  14.719 -0.2407 -0.1438 -0.3752
 8174W        W27028   9.329   5.202  14.459  0.1335 -0.0972  0.1410
 8175W        W27029   4.919   4.562   1.773  0.3188  0.2128 -0.2444
 8176W        W27030  18.274   7.352   4.688  0.0845  0.1141 -0.1033
 8177W        W27031  14.320  14.144  12.003 -0.0578  0.0338  0.3579
 8178W        W27032  14.917  13.188   0.802 -0.0642  0.1569 -0.0749
 8179W        W27033   7.865   4.385  12.872 -0.1172  0.3293  0.1677
 8180W        W27034  18.819  17.063   1.748  0.2466  0.0678  0.2846
 8181W        W27035  18.148   5.483   3.346  0.0826 -0.1952  0.0553
 8182W        W27036  11.780   8.670   0.016  0.1251 -0.1624 -0.0959
 8183W        W27037   6.949  15.192  14.151 -0.0524  0.3083  0.3333
 8184W        W27038   3.487  16.205   0.947 -0.0222 -0.2941  0.0235
 8185W        W27039  12.259   2.599   2.260 -0.0739 -0.0776  0.3025
 8186W        W27040  11.195  13.415  12.218  0.2251 -0.3384  0.0388
 8187W        W27041  10.924   9.990  10.964  0.1166 -0.1929  0.0380
 8188W        W27042   3.440  12.101  13.879  0.4586 -0.2243 -0.2838
 8189W        W27043  18.034  19.134  10.395  0.1487  0.2306  0.1615
 8190W        W27044   6.314   6.097  14.018  0.3965  0.0399 -0.0216
 8191W        W27045   7.684  18.493   2.403  0.2067 -0.1068  0.1244
 8192W        W27046  14.482  10.305   0.009 -0.0822  0.3395  0.0697
 8193W        W27047  10.722  10.028  13.493  0.0164 -0.1100 -0.0664
 8194W        W27048   4.060  10.722   4.164  0.2506 -0.0794  0.0212
 8195W        W27049   8.111  16.174  11.166 -0.0174 -0.0985 -0.2552
 8196W        W27050  16.657  12.968   1.603 -0.2282 -0.1234 -0.2389
 8197W        W27051  11.120  15.267  11.033 -0.0429 -0.0615  0.1187
 8198W        W27052   6.008  15.824   0.066  0.0135 -0.1201 -0.0087
 8199W        W27053  13.090  18.155  13.750  0.2966  0.2278 -0.0755
 8200W        W27054  17.259   2.314   3.361 -0.0207  0.0201 -0.2081
 8201W        W27055  18.739  18.420   0.280  0.0572  0.4092  0.5011
 8202W        W27056   4.229  17.735   1.158  0.0247  0.1106 -0.0552
 8203W        W27057   5.127  11.909   2.967  0.1260 -0.1368 -0.0862
 8204W        W27058   4.873   9.712   3.105 -0.0819 -0.1473  0.1551
 8205W        W27059   3.254  19.128   3.030  0.1316 -0.2508  0.2095
 8206W        W27060  11.093   4.632  13.546  0.1403  0.1169 -0.3151
 8207W        W27061   0.652  17.115   0.685 -0.1169  0.0441  0.1481
 8208W        W27062   1.462   1.809   2.292 -0.1496 -0.0105  0.1157
 8209W        W27063   0.711   9.513  11.562 -0.2681  0.0138 -0.2199
 8210W        W27064   6.990  12.141   3.006  0.0518 -0.0360 -0.2049
 8211W        W27065   4.834  11.754   3.348  0.2754 -0.2438 -0.2461
 8212W        W27066  10.902   9.139  14.574  0.0895  0.1435  0.0537
 8213W        W27067   0.549  12.150  13.244 -0.3552 -0.0308 -0.2136
 8214W        W27068  14.530   3.151  12.992 -0.0696  0.0383 -0.2047
 8215W        W27069  15.143  14.811  12.824 -0.1039  0.3262 -0.0448
 8216W        W27070  13.548  13.374  12.814 -0.1993  0.0758 -0.1446
 8217W        W27071  11.328  17.955  14.052  0.0948  0.1147 -0.4813
 8218W        W27072   3.736  17.256   4.045  0.0781 -0.2336 -0.1967
 8219W        W27073  15.005  17.763  13.884 -0.1903  0.0261  0.0630
 8220W        W27074   4.430  14.944  10.975  0.1534  0.1989 -0.0288
 8221W        W27075  11.330  18.954  14.266 -0.1253 -0.1588  0.0283
 8222W        W27076  16.616   6.463  11.126 -0.4149  0.0733 -0.2252
 8223W        W27077   4.108  13.749  10.357 -0.0738  0.1273 -0.2312
 8224W        W27078  13.112   7.559  10.717  0.1869  0.2643  0.0595
 8225W        W27079   8.143  10.129   1.655 -0.1143 -0.1086  0.1262
 8226W        W27080  18.623  14.433   0.964  0.1702 -0.0232  0.0682
 8227W        W27081  12.247  13.494  13.587  0.2760  0.0279  0.0433
 8228W        W27082  16.205  12.223   3.442 -0.1074  0.2285 -0.0707
 8229W        W27083   6.754   7.362   1.406  0.0204  0.1671  0.0496
 8230W        W27084  17.317  17.223   3.391  0.2735 -0.2170  0.1460
 8231W        W27085  11.937  12.499  13.254  0.0112 -0.0710 -0.0969
 8232W        W27086   4.212  15.528   3.196 -0.1486  0.0915 -0.0690
 8233W        W27087   4.561   1.677  12.544 -0.1431  0.0900  0.0673
 8234W        W27088   9.083  16.468   3.896  0.0423 -0.2485  0.1927
 8235W        W27089  17.123  10.303   3.602  0.0990  0.1678 -0.1113
 8236W        W27090   1.895   8.257  10.631  0.3913 -0.1806  0.0068
 8237W        W27091  16.400   6.328   1.118 -0.3497  0.0913 -0.1658
 8238W        W27092  14.633   9.934   0.347  0.1307  0.1991  0.1379
 8239W        W27093  18.792   2.782   1.725 -0.4590  0.0266  0.1927
 8240W        W27094  17.862   9.929  11.650  0.4476 -0.2489  0.1101
 8241W        W27095  16.714  13.014   3.185 -0.3818  0.2409  0.2677
 8242W        W27096   3.203  16.035   4.620 -0.0266 -0.0783 -0.3184
 8243W        W27097   1.848  14.657  12.934 -0.0885  0.1075 -0.0187
 8244W        W27098  13.586   5.605  12.044 -0.2409  0.1043 -0.2657
 8245W        W27099   4.405  17.445  14.596 -0.1268  0.3071 -0.0132
 8246W        W27100   1.624  11.010   3.253  0.2155  0.0471 -0.0881
 8247W        W27101   7.598   8.653   2.757 -0.1138 -0.2019  0.0614
 8248W        W27102  12.267   6.885   0.291 -0.1232  0.3157 -0.2330
 8249W        W27103   3.669  12.520  11.643  0.0246  0.2232 -0.1832
 8250W        W27104  11.526   8.619   0.956  0.2528 -0.1346 -0.2223
 8251W        W27105  10.391  11.609  13.399 -0.0278 -0.0474 -0.1402
 8252W        W27106  15.454   3.815  12.708  0.0108 -0.0712  0.2087
 8253W        W27107   6.265   3.088  13.101  0.2648  0.3795 -0.1884
 8254W        W27108  14.347   6.439   0.810 -0.2007 -0.2457  0.1311
 8255W        W27109  17.815  14.024  13.259  0.3183  0.0788  0.6383
 8256W        W27110  15.796  14.412   3.121 -0.2775  0.0084  0.0446
 8257W        W27111  10.227  17.747  13.810 -0.1928  0.0645  0.2967
 8258W        W27112  10.835   9.249   2.573 -0.0396 -0.3000  0.2122
 8259W        W27113   9.006  10.313   0.987 -0.2999  0.2071  0.0852
 8260W        W27114   4.046   5.516  13.672  0.3226  0.2034 -0.0759
 8261W        W27115   3.809  12.812  11.231 -0.2282  0.2747  0.1306
 8262W        W27116   0.130   1.548  11.982  0.1259  0.2810  0.2124
 8263W        W27117   9.412   4.616  10.677  0.1176  0.0395 -0.0263
 8264W        W27118  15.956   0.455   2.240 -0.1140 -0.3001 -0.0389
 8265W        W27119   6.877   0.789   1.999  0.0066  0.2840  0.1341
 8266W        W27120  11.424   6.305  13.782 -0.0275  0.0062  0.2032
 8267W        W27121   3.533   3.583  11.779  0.4770  0.3087 -0.1673
 8268W        W27122  12.450   1.939   0.978  0.2768 -0.5165 -0.2580
 8269W        W27123  15.353  10.829  14.713  0.1495 -0.2959 -0.1580
 8270W        W27124   6.387  18.735  13.427 -0.0774  0.0643 -0.0163
 8271W        W27125   2.201  16.195   2.701  0.1110 -0.1104  0.1839
 8272W        W27126  14.975  17.842   4.993 -0.0285  0.0712 -0.1374
 8273W        W27127  12.788   6.033  14.677  0.1612 -0.0148 -0.1285
 8274W        W27128   7.523  12.010   0.660  0.1532 -0.1102 -0.3755
 8275W        W27129  18.716  18.596  10.967 -0.0874  0.1537  0.1465
 8276W        W27130  11.977  17.017  12.877  0.1469  0.0569  0.0138
 8277W        W27131   6.244  17.470   3.385  0.0991  0.1636  0.1689
 8278W        W27132  13.420  13.484  12.087 -0.2294 -0.1471  0.1505
 8279W        W27133   1.861   5.473  14.540 -0.1477 -0.0698  0.0046
 8280W        W27134  10.797   9.050  13.526  0.4020 -0.1613  0.4396
 8281W        W27135   6.927  17.989   0.840 -0.1621 -0.1549 -0.0019
 8282W        W27136  14.979  18.717  13.849 -0.2194  0.0952 -0.2753
 8283W        W27137  13.523   4.493  12.848  0.1998  0.2443  0.1807
 8284W        W27138   3.456  10.316  14.219  0.0149 -0.0054 -0.0528
 8285W        W27139   8.616   1.922  12.456  0.1066 -0.1368 -0.1313
 8286W        W27140  16.553  19.141  11.064  0.0585 -0.2196 -0.1656
 8287W        W27141   3.383   0.425   3.189 -0.3804 -0.0600  0.2423
 8288W        W27142  14.705   7.867  14.527  0.1351 -0.1136 -0.0128
 8289W        W27143   5.101  14.001   2.024 -0.1257 -0.3429 -0.2656
 8290W        W27144  13.027   8.147   2.935  0.1731  0.1498 -0.1942
 8291W        W27145   7.476   1.742  11.980  0.4054  0.4406 -0.0050
 8292W        W27146   8.899   2.416   0.274 -0.0920  0.2180  0.1318
 8293W        W27147  17.314  17.632   1.340  0.1058  0.1517 -0.1225
 8294W        W27148  17.750   4.407   4.435  0.1576  0.0477  0.0996
 8295W        W27149   6.068   5.074   2.338  0.1288 -0.0086  0.3433
 8296W        W27150  18.802  16.619   0.935 -0.2015  0.6198 -0.0480
 8297W        W27151   3.001   3.160   1.313 -0.1337  0.0722  0.4680
 8298W        W27152   4.356  11.548   2.305  0.1067  0.0441  0.3087
 8299W        W27153   1.753   8.094  11.072  0.0473  0.2187  0.3943
 8300W        W27154   6.603  15.030   2.658 -0.5132  0.1983  0.2433
 8301W        W27155  10.008  13.315  13.331  0.1931 -0.1347  0.4462
 8302W        W27156  17.271   8.456   0.171 -0.0714 -0.0402 -0.2231
 8303W        W27157  15.664  15.392  13.011 -0.1381  0.0260 -0.0611
 8304W        W27158   5.226   9.748   4.264  0.0099  0.3202 -0.1565
 8305W        W27159   3.324   4.187  13.964 -0.2396  0.1507 -0.0770
 8306W        W27160   4.633  17.417  13.070 -0.0781 -0.2380  0.1691
 8307W        W27161   5.346   5.988  14.725 -0.0371  0.3497  0.0440
 8308W        W27162   4.355   9.356  14.499 -0.0608  0.0744  0.0586
 8309W        W27163  15.495  12.630   2.912  0.0742  0.1375 -0.0490
 8310W        W27164  17.494   3.777   0.339  0.0413 -0.2688 -0.0374
 8311W        W27165   2.985   4.035  12.294 -0.1112  0.0727 -0.1294
 8312W        W27166  14.654  17.856  14.266  0.1211  0.1505 -0.1916
 8313W        W27167   8.769   4.351   2.143 -0.0777 -0.1842  0.1929
 8314W        W27168  16.104  15.333   3.745 -0.1023  0.0886 -0.0792
 8315W        W27169  14.884   6.142   1.240  0.2294  0.0882  0.0735
 8316W        W27170  10.006   6.547  13.546  0.0133  0.0975 -0.3728
 8317W        W27171   8.100  16.714  11.142  0.1836 -0.0219 -0.0171
 8318W        W27172  18.286   8.909   3.790  0.2705 -0.1510  0.2841
 8319W        W27173   8.550   2.543   2.070  0.0046  0.0532  0.1618
 8320W        W27174  15.966  15.903  14.538 -0.0703 -0.1606 -0.0090
 8321W        W27175  15.807  12.686  13.556 -0.0735 -0.0455  0.0300
 8322W        W27176   7.553  15.680  14.760  0.0279  0.0813 -0.1105
 8323W        W27177   8.014   5.823   2.014 -0.1728  0.1930  0.0858
 8324W        W27178  17.110   2.070  14.273  0.0476  0.1973 -0.1619
 8325W        W27179  15.403  17.488  12.706 -0.0009  0.0553  0.2371
 8326W        W27180   5.558   9.031  11.961 -0.3456 -0.0501  0.0504
 8327W        W27181   6.271   4.929  10.845 -0.0651  0.1458  0.1134
 8328W        W27182  10.932   0.894   1.941 -0.0725  0.0813  0.2897
 8329W        W27183   1.095  10.435  11.254 -0.3319 -0.0156  0.1664
 8330W        W27184  15.418   4.043  13.409  0.3886 -0.0755 -0.1151
 8331W        W27185  18.790   2.968  11.877 -0.2609 -0.0181 -0.0915
 8332W        W27186  13.762  11.054  14.366 -0.3894  0.0657  0.0081
 8333W        W27187  14.173   3.472   1.155  0.0274  0.2291  0.0519
 8334W        W27188   2.653   7.208  10.319 -0.3282  0.0380 -0.1782
 8335W        W27189   4.223   3.263   3.097  0.2526 -0.3748 -0.2314
 8336W        W27190  15.191  12.172   3.743 -0.3157 -0.1479  0.2423
 8337W        W27191  13.896  16.831   1.894 -0.0591 -0.0479 -0.1639
 8338W        W27192  13.037   5.342  13.158  0.0255  0.1085 -0.2433
 8339W        W27193  10.175   5.002   4.364  0.1033 -0.0705 -0.0686
 8340W        W27194   2.996  11.888  12.326  0.2597  0.1178  0.2916
 8341W        W27195  13.459  18.576  14.637 -0.0138 -0.0764 -0.0279
 8342W        W27196  14.250   6.574   3.560 -0.3654 -0.2839 -0.1296
 8343W        W27197   0.917   3.658   2.451 -0.0199  0.0976  0.1855
 8344W        W27198  16.276   7.819  12.769  0.1018 -0.0396  0.0276
 8345W        W27199  18.496  16.714  13.180 -0.0678  0.2216 -0.0314
 8346W        W27200  15.647  19.091   0.183  0.0434 -0.1316 -0.3034
 8347W        W27201  11.070   6.050   0.594 -0.1204 -0.2630  0.2773
 8348W        W27202  19.061  10.997  13.740 -0.0104  0.0644  0.0374
 8349W        W27203   9.335  10.709   4.044 -0.2092 -0.0197  0.0355
 8350W        W27204   3.049  15.317  10.996  0.0773 -0.1543 -0.0680
 8351W        W27205  12.425  14.453   0.122 -0.1699 -0.0171  0.0399
 8352W        W27206   6.123   2.196   1.855  0.3703  0.3301  0.0072
 8353W        W27207   1.873   1.628   2.006 -0.2973 -0.4177 -0.0936
 8354W        W27208   8.166  17.903   3.256  0.0376  0.0735 -0.0486
 8355W        W27209  11.903  11.663   3.995 -0.0640  0.0090 -0.0553
 8356W        W27210  12.589   1.743  13.869  0.1223 -0.1221  0.0778
 8357W        W27211  10.076  11.388   4.220 -0.0613  0.2659  0.0106
 8358W        W27212  13.423   6.035   3.285 -0.0298  0.0142  0.2435
 8359W        W27213   4.165  10.138  11.626  0.0484 -0.0118 -0.1573
 8360W        W27214  15.547   7.129  11.109  0.1934  0.0604 -0.6040
 8361W        W27215  19.071   9.502  12.018 -0.4325 -0.2634 -0.0660
 8362W        W27216   0.073   4.901  11.079 -0.3903  0.1813  0.0094
 8363W        W27217   0.707  10.175   1.310 -0.3250 -0.1804 -0.0300
 8364W        W27218  15.710   5.718   4.038  0.0503 -0.0759  0.1536
 8365W        W27219  13.427   3.497  11.279 -0.0923 -0.0843  0.0002
 8366W        W27220   4.895  17.604  14.480  0.1725  0.1433 -0.2795
 8367W        W27221   8.152  16.679   2.649 -0.1616  0.3075  0.1144
 8368W        W27222   3.089   8.929  12.458  0.0031  0.0602 -0.2928
 8369W        W27223  16.506  13.765   4.359  0.0344 -0.0590  0.1204
 8370W        W27224   9.526   6.317   2.760 -0.3661 -0.2062 -0.1441
 8371W        W27225  18.481   4.208  11.356 -0.4197  0.1509  0.0537
 8372W        W27226   2.732   3.153   1.893  0.0872 -0.1976  0.1775
 8373W        W27227   9.956  17.519  14.168 -0.1588 -0.1314  0.0597
 8374W        W27228   0.038   5.792   0.253  0.2227 -0.1564  0.2123
 8375W        W27229  14.199   4.001   3.756 -0.0680 -0.1595 -0.1410
 8376W        W27230  12.549  17.493   2.654 -0.2217 -0.0444 -0.1776
 8377W        W27231   1.443  11.849   3.262  0.1042  0.5138  0.0224
 8378W        W27232   5.735   0.864   2.646 -0.1778 -0.2183  0.1987
 8379W        W27233   4.888  17.928  11.552  0.1141 -0.1994 -0.0451
 8380W        W27234   1.003   1.272  13.928 -0.0434  0.3100  0.1066
 8381W        W27235   6.611   7.893   2.810 -0.0806 -0.1874 -0.0559
 8382W        W27236   3.206   1.827  10.939 -0.2326 -0.0186  0.0596
 8383W        W27237   1.222  15.223  11.372  0.3131  0.1539  0.1890
 8384W        W27238  16.347  12.791  13.585  0.1982  0.5243 -0.0949
 8385W        W27239  13.313   2.950   3.848 -0.0195  0.2821  0.2834
 8386W        W27240  16.930  17.180  13.774 -0.1404  0.0866 -0.0203
 8387W        W27241  14.072  10.728   0.999  0.0712  0.0981  0.1711
 8388W        W27242   9.372  18.398  11.806  0.0069 -0.0109 -0.1740
 8389W        W27243  17.272   0.280   5.016 -0.3555 -0.2053 -0.1513
 8390W        W27244   0.263   6.410  11.484  0.0737  0.0481 -0.2413
 8391W        W27245  17.898  18.623   4.573  0.1516 -0.2486  0.2195
 8392W        W27246   7.435  11.739   1.908 -0.1423  0.2391  0.0924
 8393W        W27247   6.351   9.230  14.707  0.0631  0.4355  0.3248
 8394W        W27248  18.053   5.656  11.842 -0.0636 -0.1201  0.0967
 8395W        W27249   3.915  13.824  12.402  0.1687 -0.0107  0.2256
 8396W        W27250  16.549  17.965  11.382 -0.1735 -0.0383  0.1404
 8397W        W27251  14.218  12.920  14.399 -0.0822 -0.1430 -0.1960
 8398W        W27252  14.738   8.237   1.210 -0.2247  0.0815  0.3219
 8399W        W27253   2.403   9.704   0.972 -0.0581  0.2315  0.1059
 8400W        W27254  11.442   8.814   0.447 -0.1126 -0.1433 -0.0936
 8401W        W27255   4.789   1.336   4.104 -0.3489  0.0069 -0.0890
 8402W        W27256  17.740   2.258  12.948  0.1443 -0.3427 -0.1844
 8403W        W27257  14.691   2.785  14.174 -0.0256 -0.2269 -0.2369
 8404W        W27258  10.535   7.147   4.393  0.1915  0.2053 -0.2465
 8405W        W27259   1.369   1.619  12.198 -0.0917  0.1316 -0.3563
 8406W        W27260   9.168  10.047  12.846 -0.1748 -0.1688 -0.1050
 8407W        W27261  15.071  12.759  14.083  0.4309 -0.2721 -0.1974
 8408W        W27262   5.438  10.684   1.662 -0.0988  0.0027  0.0754
 8409W        W27263   9.597  16.330   0.087  0.0160 -0.1259 -0.1121
 8410W        W27264   0.670   2.169   1.727 -0.1218  0.0011  0.2954
 8411W        W27265  12.144   7.235   1.324 -0.1771 -0.1884  0.1647
 8412W        W27266   5.007   5.603  13.800 -0.0158  0.0108  0.1898
 8413W        W27267   6.082   4.053  11.812 -0.2318  0.1519  0.0241
 8414W        W27268  13.196   7.967  11.011 -0.0183 -0.3524  0.1792
 8415W        W27269   5.875  10.527  12.782  0.1024 -0.3691  0.2245
 8416W        W27270   4.355  14.715  13.779 -0.0222 -0.0257  0.2701
 8417W        W27271  16.015  16.750  11.070  0.0222 -0.2578 -0.1513
 8418W        W27272  15.335   3.264  13.876  0.1410  0.1339 -0.1318
 8419W        W27273  16.823   6.096   3.248 -0.0564  0.1346  0.1464
 8420W        W27274   0.151   5.378  12.761 -0.2115 -0.1709 -0.1485
 8421W        W27275   5.096   9.561  11.175  0.4270  0.1505  0.0440
 8422W        W27276   5.757   3.527  11.225  0.2427 -0.0638  0.3327
 8423W        W27277   5.180  14.273  12.154 -0.0086  0.1312 -0.1675
 8424W        W27278  12.744  12.428   0.730 -0.0932  0.0187 -0.2500
 8425W        W27279   0.119   9.211   3.354  0.0347  0.2951 -0.1925
 8426W        W27280   4.016  17.802  13.741  0.3050  0.0952  0.0144
 8427W        W27281   2.178  19.084  13.263  0.1197 -0.0341  0.2764
 8428W        W27282   4.342  14.664  12.685 -0.3848 -0.1571  0.1159
 8429W        W27283  14.076  16.492   3.728  0.1739  0.0600 -0.1352
 8430W        W27284   5.038   9.769   0.225 -0.0101 -0.0252  0.2324
 8431W        W27285  15.827   4.067  14.182 -0.0964  0.1178 -0.0069
 8432W        W27286  13.857  13.583   4.097  0.1188  0.0179 -0.1431
 8433W        W27287  11.212  10.500   1.505 -0.0526  0.1520  0.0629
 8434W        W27288  16.203   6.680  13.269  0.0673  0.2007 -0.0111
 8435W        W27289  12.496  16.728  11.330 -0.3275 -0.2199 -0.1705
 8436W        W27290  12.240  13.416  12.290  0.0941  0.2710  0.1428
 8437W        W27291   0.867   2.613   9.828  0.0594 -0.0966  0.1726
 8438W        W27292   6.175  15.094  14.727  0.2385  0.1755 -0.2011
 8439W        W27293   2.844  17.632   1.315  0.0389  0.1943 -0.0687
 8440W        W27294  17.072  17.795  12.968 -0.0401  0.1045 -0.0256
 8441W        W27295  14.294   4.725   0.974  0.4105  0.2589 -0.4195
 8442W        W27296   7.705   9.741   0.064  0.2073 -0.2792 -0.0815
 8443W        W27297   1.804   1.223  14.494  0.1478 -0.0195 -0.2125
 8444W        W27298  11.740  18.415   2.031 -0.1704  0.5144  0.2231
 8445W        W27299  14.928   1.374  14.730  0.0541  0.3945  0.0760
 8446W        W27300  16.129   3.354   0.243  0.0717 -0.0734  0.0278
 8447W        W27301   7.223  11.307   3.535  0.0014 -0.1321  0.3482
 8448W        W27302   2.260   9.103  12.942  0.1273 -0.0450  0.0000
 8449W        W27303   2.316   0.913   9.832 -0.1268  0.2280  0.0329
 8450W        W27304   8.095   7.622  11.368 -0.1736  0.0721  0.0936
 8451W        W27305  17.482   7.009   0.787 -0.2239 -0.1601 -0.0531
 8452W        W27306  17.073   5.626   0.247 -0.1748  0.1178 -0.2729
 8453W        W27307   5.010  13.003  13.328 -0.1667  0.2151  0.2008
 8454W        W27308  19.062   1.923  14.415  0.0724  0.1099 -0.1591
 8455W        W27309  13.749   8.364   4.295  0.2076  0.5940 -0.1301
 8456W        W27310  19.130   4.333  12.249  0.1824 -0.0663  0.2276
 8457W        W27311   8.636  14.214   0.043 -0.4461  0.2505  0.1308
 8458W        W27312  12.879   6.851   1.769  0.1051  0.1528 -0.1540
 8459W        W27313   5.095  16.773  10.812  0.1813  0.1444  0.3523
 8460W        W27314   1.163   0.208   2.178 -0.0318  0.4617  0.1003
 8461W        W27315  10.705   6.789   3.973 -0.0214 -0.1532  0.2056
 8462W        W27316   6.833   8.481  14.521  0.1678 -0.1200 -0.0147
 8463W        W27317  11.075  18.527  14.057  0.2519  0.0162 -0.1113
 8464W        W27318   8.179  14.792  10.126  0.0182 -0.4987 -0.2163
 8465W        W27319  11.204  12.895  12.854 -0.0675  0.2480 -0.0454
 8466W        W27320   9.648  14.659   2.110 -0.0097  0.4994  0.1803
 8467W        W27321   3.357   3.140   0.517 -0.0941 -0.1732 -0.2403
 8468W        W27322   1.101  17.651  13.643  0.1192 -0.0104  0.1362
 8469W        W27323   8.370   0.309   4.203 -0.1404 -0.0088  0.1692
 8470W        W27324   8.503  14.109  11.341 -0.0337 -0.0521 -0.1525
 8471W        W27325  11.032   5.322  14.137 -0.1405 -0.0210 -0.2357
 8472W        W27326   6.004   7.154  12.084 -0.0368 -0.0377 -0.2446
 8473W        W27327   3.708   1.831  12.843 -0.0242 -0.5341 -0.1771
 8474W        W27328  10.269   0.808   1.944  0.1874 -0.1153 -0.0952
 8475W        W27329  14.397   9.354  12.077  0.0092 -0.0664 -0.0882
 8476W        W27330   4.867  16.894  11.276  0.2901  0.0367  0.1686
 8477W        W27331   3.830   9.269   2.977  0.0820 -0.1573 -0.2641
 8478W        W27332  17.994  16.334  13.589 -0.0192 -0.4457 -0.2154
 8479W        W27333  10.120   8.714   2.455  0.2116 -0.2149  0.2555
 8480W        W27334   7.130   4.883  11.414  0.2289  0.4347  0.0698
 8481W        W27335  12.376   9.521  13.947  0.1825 -0.1958  0.0642
 8482W        W27336  14.580   6.002   0.897 -0.1515  0.2446  0.4037
 8483W        W27337  16.819   0.729   4.505 -0.1328 -0.1650 -0.1477
 8484W        W27338   7.056  14.869  12.522 -0.0361  0.0192 -0.2929
 8485W        W27339  18.407  15.167  13.900 -0.2584 -0.0142  0.0937
 8486W        W27340   2.423  10.079  11.586  0.0735  0.1850 -0.1198
 8487W        W27341   7.599   1.566   2.946 -0.0722  0.1547 -0.2461
 8488W        W27342   3.756  18.307  13.772  0.2011 -0.0922 -0.1868
 8489W        W27343  15.773   1.718   2.851  0.5238  0.1042 -0.1482
 8490W        W27344  15.734   9.985   4.386 -0.1587  0.0420 -0.0508
 8491W        W27345   6.677  17.587   1.562 -0.2071 -0.3147  0.1120
 8492W        W27346   9.754  12.803   4.156 -0.0233 -0.4539  0.0561
 8493W        W27347  17.728  17.054   3.094 -0.1139 -0.2643  0.2166
 8494W        W27348   0.228  14.862   5.575  0.1215 -0.4145 -0.1390
 8495W        W27349   2.417   3.537  11.764  0.1046 -0.0400 -0.0312
 8496W        W27350   1.172   5.909   1.364 -0.0234  0.2732 -0.1981
 8497W        W27351   2.385  10.520   3.760  0.2108  0.1322  0.1980
 8498W        W27352  18.620   8.329  12.222 -0.1010 -0.0663 -0.0704
 8499W        W27353   7.071  13.446  13.511 -0.0269  0.1703  0.3568
 8500W        W27354  11.279   7.815   2.005  0.4257 -0.0418  0.1094
 8501W        W27355   9.776   9.811  12.996 -0.2459  0.1259  0.4022
 8502W        W27356  12.199   5.318  14.706 -0.1091  0.0980  0.0514
 8503W        W27357   0.341  19.047   1.987  0.3585 -0.0205  0.1088
 8504W        W27358   2.917  15.599   3.663 -0.0922  0.1471  0.5500
 8505W        W27359   8.516  13.068  11.836  0.0403  0.1756 -0.1074
 8506W        W27360   7.310   6.587   3.537  0.1024  0.1387  0.1071
 8507W        W27361  11.520   0.773   3.907 -0.0939 -0.1456 -0.0358
 8508W        W27362   9.872  11.888  13.928 -0.1243 -0.2396 -0.0145
 8509W        W27363   8.244  14.872  12.375  0.3123  0.0018 -0.0340
 8510W        W27364   9.823   2.455   2.411  0.0514 -0.0343  0.2735
 8511W        W27365  15.821   7.457  13.835  0.1414 -0.0560 -0.2369
 8512W        W27366   2.367  12.450  14.021  0.0711 -0.2594  0.0115
 8513W        W27367   1.924  12.817   2.525 -0.0325  0.1030 -0.2200
 8514W        W27368   1.466  14.017  11.588 -0.0138  0.2661  0.0021
 8515W        W27369   8.542  10.656   3.142 -0.0113  0.0696 -0.3578
 8516W        W27370   4.319   7.276  14.344  0.0966  0.2066  0.0834
 8517W        W27371   4.056  16.113   2.399 -0.1930 -0.3419  0.4877
 8518W        W27372  17.689  15.274  13.383  0.2446 -0.0431  0.3467
 8519W        W27373  11.434   5.904   9.920  0.0183  0.0407  0.1063
 8520W        W27374  18.633  12.305   3.680  0.0426  0.2856 -0.0973
 8521W        W27375  15.049  14.838  13.615  0.0880 -0.0713 -0.1461
 8522W        W27376  18.120   0.463   1.297  0.3097  0.1098  0.1271
 8523W        W27377  10.246   4.057  13.359  0.0224 -0.0294 -0.2337
 8524W        W27378   0.916  14.106   2.905 -0.3402 -0.1129 -0.0233
 8525W        W27379   6.318   8.662   0.223  0.2765  0.1135 -0.0866
 8526W        W27380   1.327   7.974  14.299 -0.0397  0.0880  0.2791
 8527W        W27381   3.885  17.501   2.048 -0.0104  0.1583 -0.0941
 8528W        W27382  15.665  16.833  14.748  0.3378  0.2361  0.0159
 8529W        W27383  16.914  12.204  14.386 -0.2413  0.2306 -0.3415
 8530W        W27384   4.285  13.620   0.681 -0.0611 -0.2487 -0.0555
 8531W        W27385  17.453  15.873   3.158 -0.2430 -0.2025 -0.4814
 8532W        W27386   7.435  17.526   2.766  0.1918 -0.2105 -0.2142
 8533W        W27387   4.531   4.730  13.853  0.1641 -0.2952 -0.0317
 8534W        W27388   2.943  14.139   0.972  0.1341  0.2140 -0.1423
 8535W        W27389   6.117   7.176   3.185 -0.0232 -0.0852  0.0374
 8536W        W27390   0.987   1.851  11.979 -0.1654 -0.0284  0.1381
 8537W        W27391   4.311   2.532   4.567  0.0406 -0.1208  0.1422
 8538W        W27392   4.972   3.488   9.134 -0.2426 -0.0360  0.3465
 8539W        W27393   5.730   4.473  11.768  0.1550 -0.0153 -0.1234
 8540W        W27394   3.269   6.886  12.660  0.0218 -0.0604 -0.0597
 8541W        W27395  16.980   9.112   1.210  0.0855 -0.3054 -0.1443
 8542W        W27396   7.716   6.724   2.370  0.0802  0.0468 -0.0794
 8543W        W27397  18.275  16.820  14.607  0.1182  0.3042  0.0964
 8544W        W27398  10.900   7.889   2.882  0.2615 -0.0479  0.0830
 8545W        W27399   1.349   0.229   1.077  0.0080 -0.0884 -0.0081
 8546W        W27400  15.304   3.941   2.891 -0.0708 -0.0605  0.2736
 8547W        W27401   5.665  18.686   0.589 -0.1262  0.0058 -0.0552
 8548W        W27402   7.573   0.708   0.983 -0.0377 -0.0092  0.1606
 8549W        W27403   1.965  14.130   1.872 -0.2536  0.2614  0.0777
 8550W        W27404   0.195  16.493  13.628  0.1408 -0.1740 -0.3048
 8551W        W27405  11.048  11.790   4.089  0.1382 -0.2956  0.0936
 8552W        W27406  13.252  14.784   0.578 -0.0269  0.1310 -0.1835
 8553W        W27407  14.208  12.228  12.156  0.1108  0.0102  0.0139
 8554W        W27408  11.185  11.285  13.740  0.2183 -0.1392 -0.3302
 8555W        W27409  14.779   2.475  13.827 -0.2436  0.0143  0.1939
 8556W        W27410   4.466   1.976   8.909 -0.0946 -0.0945 -0.2254
 8557W        W27411  11.731   4.873   2.808 -0.0018 -0.0570 -0.2234
 8558W        W27412  14.765   9.212  14.616 -0.0881  0.1679 -0.0948
 8559W        W27413  18.243   4.922   4.263  0.1451  0.0096  0.0025
 8560W        W27414   2.213  14.522   3.884 -0.1428 -0.0429  0.1564
 8561W        W27415   3.329  18.404  14.705 -0.1516 -0.1968 -0.0802
 8562W        W27416   5.820   2.082   0.054  0.0003  0.0780 -0.2004
 8563W        W27417  14.043   9.489   1.751 -0.3174  0.1958  0.0446
 8564W        W27418   3.542   2.622  10.662  0.1397 -0.3049  0.1143
 8565W        W27419   2.986  10.408  14.479  0.0379 -0.2499  0.0617
 8566W        W27420  12.392  10.989   4.314  0.0320  0.2090  0.0770
 8567W        W27421   4.702   4.968   9.908  0.0913 -0.0618 -0.2862
 8568W        W27422  10.303   6.330  13.211 -0.0588 -0.0673 -0.2638
 8569W        W27423  16.924   9.598   3.191 -0.2642  0.0294 -0.1417
 8570W        W27424  15.156  16.836  11.465 -0.1956 -0.2607 -0.3676
 8571W        W27425   1.491   4.022  12.776 -0.2011  0.1018  0.2560
 8572W        W27426  17.065  18.583  10.825  0.0258 -0.0195  0.5350
 8573W        W27427  18.961  13.157  12.384  0.2601 -0.2458 -0.2229
 8574W        W27428   3.786   9.984  11.989 -0.2912 -0.0532  0.4311
 8575W        W27429   9.397   5.439   0.117 -0.1793 -0.0900 -0.0944
 8576W        W27430  15.372   0.778  10.942  0.0542 -0.1108 -0.0939
 8577W        W27431  16.151  11.824   0.047 -0.2460  0.0738 -0.0472
 8578W        W27432  10.131   3.940   0.758 -0.2289  0.2148 -0.0944
 8579W        W27433  15.541  11.144   3.528  0.2757  0.0607  0.0806
 8580W        W27434   1.555   3.876   2.576  0.1013  0.1423  0.2184
 8581W        W27435  17.240  16.303   3.426  0.0652 -0.1629  0.0593
 8582W        W27436  11.381  14.655  13.119  0.0594  0.1771 -0.1996
 8583W        W27437  11.038   6.979   3.619 -0.0749  0.2766 -0.1779
 8584W        W27438  11.007   1.581  12.115  0.2758 -0.2878  0.3310
 8585W        W27439  11.385  11.248   1.340  0.4232 -0.1576 -0.0099
 8586W        W27440   1.103  14.260   5.272  0.0955  0.1574 -0.4518
 8587W        W27441   3.420   2.256  10.270  0.1081  0.0711 -0.2028
 8588W        W27442   3.840  17.216  11.375  0.0909 -0.0511  0.3759
 8589W        W27443   8.289   4.672  12.561 -0.0221 -0.0193  0.0744
 8590W        W27444  16.964   9.536   0.920  0.0291  0.1809  0.2337
 8591W        W27445  10.482  17.063  11.077 -0.2322 -0.0229 -0.0516
 8592W        W27446  16.331   1.490  12.910 -0.1940  0.3605 -0.1590
 8593W        W27447  14.005  17.856  11.506 -0.0016  0.0502  0.3818
 8594W        W27448   1.554   9.158  12.945 -0.1981  0.1296  0.0883
 8595W        W27449   5.001  17.758  12.151  0.3182  0.1106  0.0357
 8596W        W27450   8.442   1.977  13.809  0.0674 -0.0539  0.2892
 8597W        W27451   2.195   2.654  12.220  0.0485  0.1563  0.0509
 8598W        W27452  16.239   9.436  11.582 -0.0313 -0.0155  0.0397
 8599W        W27453  10.313   5.095  10.837  0.0782  0.0117  0.0859
 8600W        W27454  16.514  18.483   1.604 -0.0278  0.0135  0.1368
 8601W        W27455   2.393   5.162   9.628  0.0668  0.0902 -0.4536
 8602W        W27456   0.664  15.990  14.248 -0.1749  0.2411  0.2279
 8603W        W27457   4.663   2.332  13.476 -0.1513  0.0322 -0.1187
 8604W        W27458  16.560   5.218   2.363  0.2843 -0.0873  0.1824
 8605W        W27459  10.200  14.118   2.621  0.2372 -0.1404  0.0447
 8606W        W27460  17.794   5.783   5.409  0.0482  0.1924  0.0940
 8607W        W27461  16.569   4.919  13.845 -0.0167 -0.2313  0.1267
 8608W        W27462   3.329  11.139   2.618  0.0630 -0.0343  0.4536
 8609W        W27463   0.245  17.954  13.296  0.0635 -0.1628  0.1541
 8610W        W27464   4.705  16.290   2.954  0.0625 -0.0185  0.0584
 8611W        W27465  13.882   1.572  11.386  0.2670  0.0226 -0.0548
 8612W        W27466   5.259  11.677  12.276  0.2866  0.0684 -0.0423
 8613W        W27467   8.937   3.550  13.736 -0.0563 -0.0602 -0.0723
 8614W        W27468  18.290  17.815   1.375  0.1222 -0.1590 -0.0351
 8615W        W27469   5.381   1.814   1.652 -0.0751 -0.0786  0.3109
 8616W        W27470  15.845  18.964  12.809 -0.0027 -0.1538  0.2902
 8617W        W27471  17.667  15.583   3.920  0.0721 -0.2021 -0.2044
 8618W        W27472   8.402  11.237  11.453 -0.1968 -0.0105 -0.4974
 8619W        W27473   6.807  17.295  12.875 -0.1095 -0.0488 -0.1530
 8620W        W27474   9.905   1.466   4.487 -0.0764  0.2221 -0.0349
 8621W        W27475   1.500   5.965   1.942  0.4326 -0.1219  0.0245
 8622W        W27476   0.311  14.252  11.667 -0.0534 -0.1746 -0.0984
 8623W        W27477   9.029  13.989  12.125  0.2503  0.0390  0.0586
 8624W        W27478   7.116   5.600  12.778 -0.0923 -0.2553  0.0741
 8625W        W27479   7.443   3.988   2.328 -0.1086 -0.1121  0.0664
 8626W        W27480  11.597  12.383   3.647 -0.0859  0.3636 -0.0348
 8627W        W27481  13.303  12.824   4.428 -0.1072 -0.0117 -0.0829
 8628W        W27482  18.016   8.923  10.531  0.1588  0.2949 -0.1245
 8629W        W27483   6.205  15.853  10.820  0.0182  0.1394 -0.1040
 8630W        W27484   3.471   0.336   2.583  0.0675  0.3655 -0.2798
 8631W        W27485  11.288   4.178  14.291 -0.3809 -0.1189 -0.2015
 8632W        W27486   8.723  12.299   9.350  0.4709 -0.0070  0.0434
 8633W        W27487   7.327  19.126  11.656  0.1630 -0.1189  0.2490
 8634W        W27488   7.866   7.798  12.048  0.0950  0.2099 -0.0298
 8635W        W27489   7.297   3.528  11.922 -0.0358  0.2310 -0.1522
 8636W        W27490  15.501  16.445   0.364  0.3014 -0.2103 -0.0470
 8637W        W27491  13.927  13.459  11.651  0.2020 -0.2910 -0.1775
 8638W        W27492  10.657  11.319  11.128 -0.2699 -0.0393  0.2608
 8639W        W27493  16.361  15.410   0.921  0.1409  0.0833 -0.3726
 8640W        W27494  10.483  13.221  13.170  0.2568  0.3269 -0.0454
 8641W        W27495  17.760  10.418   0.665 -0.0678 -0.1888 -0.0400
 8642W        W27496   2.391   4.773  11.420 -0.0174  0.4893 -0.0432
 8643W        W27497   4.320  15.708  11.540 -0.0965  0.1565 -0.1925
 8644W        W27498  15.005  17.043  13.537 -0.1409  0.1029 -0.0862
 8645W        W27499  12.896  11.219   1.999 -0.1944  0.0024  0.0989
 8646W        W27500   8.073  17.120  14.319 -0.1798  0.2963 -0.1689
 8647W        W27501   2.400  11.895  12.377  0.1911  0.1749 -0.2647
 8648W        W27502   3.379  16.087  13.414  0.0654 -0.0641  0.3342
 8649W        W27503  12.856  10.093  14.442  0.1714  0.1423  0.0664
 8650W        W27504  11.587  16.606   1.876  0.1535  0.1178 -0.3872
 8651W        W27505  16.660   2.069   1.851  0.1485  0.0582 -0.2274
 8652W        W27506   1.504   4.503   3.100  0.2119 -0.1510  0.2912
 8653W        W27507  13.629   4.295  13.822  0.0521 -0.0875  0.2533
 8654W        W27508   4.939  15.012   3.883  0.2005  0.1267  0.0931
 8655W        W27509   4.452  17.240  11.200 -0.2702  0.0070  0.2147
 8656W        W27510   6.643  18.367   3.768  0.0783 -0.0602 -0.2075
 8657W        W27511  15.779   8.431  13.983 -0.1798 -0.0427  0.0729
 8658W        W27512   8.250  13.651   3.952  0.0439 -0.1512  0.0778
 8659W        W27513   3.924  15.866  12.734  0.0988 -0.1106  0.2530
 8660W        W27514  17.210   8.980   0.197  0.2042  0.1644 -0.1150
 8661W        W27515  17.407   3.214  14.216  0.0427  0.0888  0.0478
 8662W        W27516   7.160  17.151   1.075  0.1937 -0.0928  0.1903
 8663W        W27517   1.360   2.713  13.211  0.3050 -0.0200 -0.2844
 8664W        W27518  18.044   0.956   0.940  0.2670  0.1814  0.1002
 8665W        W27519   9.157  18.320   0.102 -0.1182  0.1395  0.0839
 8666W        W27520   1.291  14.349   2.479 -0.3779  0.1865 -0.1896
 8667W        W27521  10.580   3.779   4.456  0.2044 -0.0840 -0.0745
 8668W        W27522  11.525   8.547  11.138  0.1566  0.0090 -0.0814
 8669W        W27523  17.325   7.033  14.012  0.0928  0.1603  0.2210
 8670W        W27524   6.708   6.106  13.422  0.2542 -0.1397 -0.1732
 8671W        W27525  10.913  17.150  12.686 -0.0689  0.1709 -0.0002
 8672W        W27526   8.124  16.067  11.645 -0.2779  0.0433 -0.2127
 8673W        W27527  17.681   6.014   2.047 -0.4411 -0.0065 -0.0861
 8674W        W27528  17.939  11.435   9.420 -0.0990 -0.0513 -0.1249
 8675W        W27529  15.034  12.862   4.166 -0.2246 -0.0539 -0.2936
 8676W        W27530   2.268  12.432  13.031 -0.0422  0.1921 -0.1054
 8677W        W27531  12.723   8.662  11.447 -0.0057 -0.0566  0.0124
 8678W        W27532   8.076  16.629  14.310  0.1362  0.0557 -0.2139
 8679W        W27533   6.735   2.624   1.044 -0.1692  0.1897  0.2668
 8680W        W27534  12.566   2.447   3.477 -0.0533 -0.0512 -0.0133
 8681W        W27535  12.004   0.868  10.519  0.0824 -0.0692  0.0845
 8682W        W27536  11.361   5.755  10.757  0.2658 -0.0179  0.1029
 8683W        W27537  15.842  14.141   1.049 -0.0287 -0.2564  0.1582
 8684W        W27538  14.418   1.657  14.228  0.1061  0.2013 -0.0871
 8685W        W27539   9.667  10.202   1.941 -0.0659 -0.3167  0.0457
 8686W        W27540  15.624  13.922  13.130 -0.2499  0.0093 -0.2071
 8687W        W27541   5.094  11.627  10.913  0.0391  0.1313  0.0788
 8688W        W27542   3.263   1.585  12.943 -0.0769  0.1106 -0.1294
 8689W        W27543  12.591  14.180  10.091  0.2074 -0.1189 -0.5774
 8690W        W27544   7.502  17.300  12.201  0.1317  0.0390  0.1710
 8691W        W27545   5.546  15.846  13.087  0.1535  0.1865 -0.2300
 8692W        W27546  15.513  10.320  13.954 -0.1683  0.2305  0.0802
 8693W        W27547   5.597   9.134  13.536  0.1141 -0.0654  0.0449
 8694W        W27548  14.003  14.447   1.682 -0.3605 -0.0152 -0.1524
 8695W        W27549  10.526   3.343   2.992 -0.0657 -0.3418 -0.0014
 8696W        W27550   5.566  11.382  11.015 -0.1374 -0.2328  0.2455
 8697W        W27551   8.509   9.317  12.708  0.1298 -0.1695  0.2316
 8698W        W27552   0.343   3.242  10.840 -0.3616 -0.0360 -0.0557
 8699W        W27553   8.163   6.887   1.308 -0.0001 -0.0883 -0.2816
 8700W        W27554   4.161  18.186   3.770 -0.1235 -0.0287  0.0078
 8701W        W27555   0.476   5.149   0.805 -0.0301 -0.0760  0.1433
 8702W        W27556  15.539  16.435   3.146 -0.2042 -0.0695  0.0839
 8703W        W27557  18.360   7.503  14.008  0.1411  0.0580 -0.0099
 8704W        W27558  15.751  13.535  12.464  0.4577 -0.2783  0.4253
 8705W        W27559   4.824   2.190   3.517  0.0026 -0.1811  0.6666
 8706W        W27560  15.709   7.500   0.230 -0.1494  0.1455 -0.2789
 8707W        W27561   6.882   3.736  14.377 -0.3557  0.0369 -0.2625
 8708W        W27562   7.509  18.678  10.423 -0.0634  0.1847 -0.1608
 8709W        W27563   4.290   3.521  12.457  0.1303 -0.0761 -0.3349
 8710W        W27564   7.371   1.630   0.765 -0.2866  0.2341 -0.4190
 8711W        W27565  13.161   6.484   2.038  0.1347 -0.0588  0.0724
 8712W        W27566   7.027  10.280   1.895 -0.0466 -0.1931  0.0091
 8713W        W27567   1.691   7.885  11.507 -0.3030  0.0781  0.1235
 8714W        W27568   3.794   6.764  12.566  0.2457 -0.1010 -0.1190
 8715W        W27569  13.618  17.641  11.804  0.2075 -0.0701  0.0401
 8716W        W27570  18.019   2.204   3.757 -0.5255  0.0019 -0.3096
 8717W        W27571   5.581  17.536  12.327  0.1721  0.1284  0.0969
 8718W        W27572   8.651  18.203   2.034 -0.1696  0.1687  0.3515
 8719W        W27573  15.274   9.720   1.371 -0.3213  0.0048  0.2041
 8720W        W27574  10.636  10.514   3.838 -0.2499  0.2214  0.1295
 8721W        W27575   9.710  17.495  11.589  0.0287  0.0615  0.2994
 8722W        W27576   2.255  14.429  10.884 -0.0725 -0.2024 -0.0093
 8723W        W27577   3.807  12.681   0.446 -0.1080  0.1208 -0.1365
 8724W        W27578  16.827  12.358   4.334 -0.1270 -0.1624 -0.3139
 8725W        W27579   4.352   1.268   1.949 -0.0636  0.0756 -0.5060
 8726W        W27580   7.292  17.103  10.713 -0.0129 -0.4435 -0.0216
 8727W        W27581   3.554  14.831   3.505  0.2514 -0.0324  0.1751
 8728W        W27582   1.726  10.327   0.962 -0.0338  0.4296  0.0092
 8729W        W27583  17.732  12.346   3.319  0.4794 -0.0132  0.3237
 8730W        W27584   2.259   2.363  10.847  0.1241  0.0498  0.0580
 8731W        W27585   7.830  12.493  12.834  0.1662  0.1741  0.0741
 8732W        W27586   6.492   3.577   2.932 -0.0684  0.1111 -0.2530
 8733W        W27587   7.876   6.405   3.604  0.3858 -0.1403 -0.0068
 8734W        W27588   4.138  12.977  12.273 -0.0132  0.0919  0.0315
 8735W        W27589  17.044   3.853  12.477 -0.0576 -0.0601  0.0467
 8736W        W27590   4.354  16.474   1.393  0.0634  0.0693  0.0620
 8737W        W27591  10.242   4.568  13.533 -0.0450  0.1882  0.0567
 8738W        W27592  11.946   1.718   4.290 -0.0200  0.0924  0.2396
 8739W        W27593   4.105   1.826   1.309  0.0344 -0.2299  0.0829
 8740W        W27594  12.497  11.128  13.371  0.1523  0.1776  0.3148
 8741W        W27595  11.980   9.147  12.893  0.0073 -0.2475 -0.1967
 8742W        W27596   5.263   9.925  13.071 -0.3876 -0.1224  0.0911
 8743W        W27597   8.620   0.842  13.239  0.0224 -0.0759 -0.0145
 8744W        W27598  19.083  18.276   9.619 -0.1530 -0.1342  0.0430
 8745W        W27599   3.987  11.127  14.056 -0.2231 -0.4227 -0.2285
 8746W        W27600  15.069   9.389   3.900  0.1102 -0.0514  0.1179
 8747W        W27601  17.229  15.689   0.763 -0.3084 -0.0136 -0.0125
 8748W        W27602  14.657   0.969   0.067  0.1858 -0.1458 -0.1903
 8749W        W27603   7.339   4.816   4.379  0.0888  0.0106  0.0233
 8750W        W27604  18.727   5.800   0.454  0.0682  0.0968 -0.4634
 8751W        W27605  18.669   8.545  10.298  0.3099  0.2233 -0.2932
 8752W        W27606  13.433  14.410   1.598 -0.1272  0.0467 -0.0495
 8753W        W27607  13.446  18.932   3.397  0.0411  0.3146  0.0096
 8754W        W27608   6.486  18.457   4.249  0.2016 -0.1084  0.4102
 8755W        W27609  12.804   8.267  13.977  0.1085 -0.0601 -0.1742
 8756W        W27610  18.696  18.039   3.092 -0.1945 -0.0699 -0.2278
 8757W        W27611   5.989  12.231  13.988 -0.1444  0.0744 -0.0454
 8758W        W27612  18.056  14.783   0.221 -0.1388 -0.0752  0.5851
 8759W        W27613  16.238   3.790   2.527 -0.0720  0.1353  0.2077
 8760W        W27614  10.091  12.987   2.673 -0.0863  0.2655 -0.0814
 8761W        W27615  11.700  10.770   2.734  0.1268  0.2321 -0.1115
 8762W        W27616   6.648   5.815  10.964 -0.3022  0.0383 -0.3492
 8763W        W27617  12.323  15.828  11.766 -0.0098  0.3418  0.0654
 8764W        W27618  16.893   6.540   3.057 -0.1146 -0.0580 -0.3196
 8765W        W27619  13.745   3.017  13.756  0.0632  0.1159 -0.1570
 8766W        W27620   3.546   9.191   0.407 -0.0753  0.0902  0.3215
 8767W        W27621   4.344   7.961  10.919  0.0581  0.0500  0.2419
 8768W        W27622  10.320   7.971   3.089  0.1651  0.1855 -0.0848
 8769W        W27623   4.046  10.531  11.343 -0.2710  0.3118  0.1271
 8770W        W27624  14.292   0.767  13.621 -0.2671  0.0449  0.3168
 8771W        W27625  17.517  18.384   3.577  0.1418  0.2691  0.4321
 8772W        W27626   1.468  17.336  14.782  0.0086 -0.1957 -0.0744
 8773W        W27627   9.692  11.299  11.568  0.2859 -0.0532 -0.2144
 8774W        W27628   3.376  18.770  10.873  0.1930  0.1225  0.0381
 8775W        W27629  15.326   9.314   3.381  0.0336 -0.2623 -0.0688
 8776W        W27630   7.744  17.144  12.963 -0.2908 -0.0107 -0.2600
 8777W        W27631  11.419  15.886  12.028 -0.1519 -0.0653  0.1603
 8778W        W27632  14.484   7.747   0.471 -0.1443  0.0379  0.0943
 8779W        W27633  16.470   0.426   3.014 -0.2198 -0.1090 -0.1174
 8780W        W27634  12.307   0.436   4.629  0.2068 -0.0511 -0.1296
 8781W        W27635   6.397   8.060   3.305 -0.3531 -0.1885 -0.0840
 8782W        W27636   6.260  18.632  13.953 -0.0659 -0.0928 -0.1681
 8783W        W27637   2.554  13.063   1.473 -0.1462 -0.0995 -0.0625
 8784W        W27638  17.331  15.772  14.643  0.0730  0.1243 -0.1111
 8785W        W27639  11.841  19.152  10.090  0.3970  0.0945  0.1292
 8786W        W27640  14.775  10.528   3.644 -0.1776  0.1743 -0.2060
 8787W        W27641   4.990  10.778   3.979 -0.0220 -0.0632 -0.0611
 8788W        W27642   0.870  15.372  13.175 -0.0417 -0.1653 -0.3174
 8789W        W27643  12.333   6.166   2.466 -0.0173  0.2010 -0.2361
 8790W        W27644  13.169  18.809   1.247  0.0969 -0.0880 -0.4341
 8791W        W27645   1.652   3.536  12.648  0.3474  0.1091 -0.3453
 8792W        W27646   7.739  15.733  13.749  0.0272 -0.1213 -0.2271
 8793W        W27647  15.907   9.729   2.290  0.2342 -0.1870  0.0290
 8794W        W27648   1.772  17.612  12.101 -0.2027 -0.0504  0.0291
 8795W        W27649   3.715  13.850   1.281 -0.0767 -0.1514 -0.0137
 8796W        W27650  16.916   7.054   2.263 -0.1034  0.1690 -0.3483
 8797W        W27651   3.500   2.719   4.818 -0.0588 -0.1334  0.1047
 8798W        W27652  11.460   5.006   0.956  0.0873 -0.0372  0.0306
 8799W        W27653  11.912   4.579  13.298 -0.2322 -0.0069  0.1144
 8800W        W27654  16.657   9.505  11.324  0.3312 -0.0771  0.0792
 8801W        W27655  13.701   9.523  13.560  0.2314  0.0397  0.1876
 8802W        W27656   4.760  10.951   2.229 -0.0708  0.0674 -0.1234
 8803W        W27657  17.486   2.691  11.356  0.1053 -0.0321 -0.1796
 8804W        W27658   9.482   2.416  12.436  0.1167  0.3145  0.0273
 8805W        W27659   0.287   2.955  13.206 -0.0665 -0.0535 -0.2099
 8806W        W27660   3.662  10.233  11.555  0.0214  0.3503  0.0070
 8807W        W27661   1.739   2.859  14.688 -0.1395  0.2938 -0.1372
 8808W        W27662  10.826   9.579   3.998  0.0050 -0.2520 -0.1363
 8809W        W27663  10.776   8.398  13.007  0.1403 -0.3099  0.0914
 8810W        W27664   1.267   6.541  11.693 -0.2748  0.1889 -0.1492
 8811W        W27665   4.819  12.084   0.378 -0.0546 -0.0923  0.1453
 8812W        W27666  12.863  10.863  11.736  0.1576 -0.4930  0.3684
 8813W        W27667  10.428  18.903  11.181  0.0902  0.1150  0.1124
 8814W        W27668  13.948   8.673  12.075  0.2382 -0.1139 -0.2816
 8815W        W27669  11.794   6.265  10.573  0.3683  0.0921  0.0860
 8816W        W27670   4.846  12.771   4.281  0.2837 -0.2351  0.0711
 8817W        W27671   4.187   4.837  11.628 -0.1291  0.0317 -0.0470
 8818W        W27672   1.087  14.788  12.180  0.0087  0.1214 -0.1465
 8819W        W27673   8.926   5.591   1.943 -0.2735  0.0443 -0.1241
 8820W        W27674   4.408  15.356   1.628 -0.2556  0.0779  0.0721
 8821W        W27675   6.397  17.885   3.027  0.1929 -0.0883 -0.1442
 8822W        W27676   6.320   6.627   3.323  0.1193  0.2169 -0.0053
 8823W        W27677  17.777  10.883  10.980 -0.3939  0.2651  0.0134
 8824W        W27678   8.114  14.316   3.629  0.0134 -0.2608  0.1976
 8825W        W27679   3.798   8.772  12.309 -0.1776 -0.3484  0.1441
 8826W        W27680   3.050  11.337   1.329 -0.4627  0.1603  0.2107
 8827W        W27681   9.149   4.431   4.615 -0.1853  0.2307  0.2107
 8828W        W27682   2.779  16.782  10.521  0.2870 -0.1324  0.2076
 8829W        W27683   9.924  16.206   1.471 -0.4798 -0.2733  0.1401
 8830W        W27684   0.155  10.578   2.637 -0.0859 -0.1225  0.2553
 8831W        W27685  10.989   9.558  11.477  0.2924 -0.1880  0.2841
 8832W        W27686   0.858  10.874  10.855  0.1482 -0.0262  0.1155
 8833W        W27687  17.853  18.209   0.935 -0.0211 -0.1669 -0.1875
 8834W        W27688  11.822  13.657  10.094 -0.1540  0.0739 -0.0435
 8835W        W27689   1.638   0.978  10.991 -0.2198  0.2997  0.2148
 8836W        W27690  10.827  16.736   2.548  0.2199 -0.1134 -0.1652
 8837W        W27691   5.356  14.221   0.788  0.1846  0.1148 -0.2937
 8838W        W27692  17.666   7.087   4.138 -0.0478  0.0346 -0.1762
 8839W        W27693   8.473  12.237   1.720 -0.3429  0.1226  0.1086
 8840W        W27694  16.853  11.844  14.016 -0.1387  0.0449  0.2295
 8841W        W27695   3.899  11.895   2.012 -0.1633  0.0782  0.0458
 8842W        W27696   7.252  17.677   1.178  0.0646 -0.0667 -0.2399
 8843W        W27697   1.299   9.444   3.161 -0.1864 -0.1343 -0.4414
 8844W        W27698   1.552  11.938  11.911  0.0012  0.0674  0.0054
 8845W        W27699  12.633  12.786   1.861  0.3190 -0.1373  0.3777
 8846W        W27700  15.425   0.723  12.901 -0.0317  0.2019 -0.0448
 8847W        W27701   3.872  14.030   2.822 -0.3403 -0.0642 -0.0046
 8848W        W27702   4.631  14.186  11.972 -0.2449 -0.1582 -0.0846
 8849W        W27703  14.962   2.667   0.747 -0.2085  0.1422 -0.1412
 8850W        W27704   8.223   9.823   5.879  0.0970  0.1189 -0.6669
 8851W        W27705  12.130  17.336  11.340  0.0225  0.0616 -0.0108
 8852W        W27706  13.975  12.732   1.562 -0.0963 -0.2700 -0.0368
 8853W        W27707   0.797  13.607   1.490 -0.2622 -0.1426 -0.2258
 8854W        W27708   5.143   4.611   0.729  0.0296  0.2155  0.2228
 8855W        W27709  16.779   7.629   2.344 -0.1145  0.1183 -0.0896
 8856W        W27710   4.446  12.755  11.420  0.0782 -0.0702 -0.2444
 8857W        W27711   7.003   5.178   4.146  0.0754  0.0998  0.1788
 8858W        W27712  12.094  10.395   1.239 -0.1283 -0.0799 -0.1572
 8859W        W27713  14.905   3.476  10.974 -0.1147  0.0771  0.0406
 8860W        W27714   1.537  18.512   0.160 -0.1805  0.0280 -0.0510
 8861W        W27715   2.916   0.718  13.232  0.2019  0.2805 -0.0311
 8862W        W27716  15.670   8.977   2.944  0.0693 -0.0704 -0.2711
 8863W        W27717  12.142   9.162  11.659  0.0497 -0.0120  0.2479
 8864W        W27718   9.425  19.099   3.978  0.0575  0.1909  0.0524
 8865W        W27719   4.835  15.614   4.999  0.0680 -0.2404  0.0337
 8866W        W27720  16.301   7.066   0.432 -0.2891  0.1700 -0.2394
 8867W        W27721   3.440   0.256  10.163 -0.1932  0.0969  0.0908
 8868W        W27722  16.694   7.633  13.482  0.0361  0.0683 -0.4358
 8869W        W27723   1.633  15.561  11.475 -0.3123 -0.0282 -0.0025
 8870W        W27724  14.402   0.144  11.462  0.0128 -0.1544  0.0106
 8871W        W27725   6.885   9.756   1.108  0.0778 -0.0406 -0.2427
 8872W        W27726   3.509  17.218   1.033 -0.2003 -0.1156  0.1372
 8873W        W27727  17.224  17.655   2.462  0.0341 -0.1720  0.3067
 8874W        W27728  15.226  18.060  14.177  0.0836  0.0294 -0.1541
 8875W        W27729  15.953  15.582   2.241 -0.0284 -0.1127  0.2362
 8876W        W27730  18.307   7.553  12.539 -0.1841 -0.2254 -0.1280
 8877W        W27731  12.298  16.928  13.692  0.1658  0.1759 -0.2909
 8878W        W27732   6.403  14.333  14.562 -0.1994 -0.0040 -0.1599
 8879W        W27733  17.615   8.243   1.682 -0.2441 -0.3104 -0.0677
 8880W        W27734   7.696   1.435  10.212 -0.1544  0.0709  0.0655
 8881W        W27735  19.076   8.425  11.553  0.2020 -0.0063  0.3278
 8882W        W27736  18.720  12.672  11.353  0.0023  0.1619 -0.1344
 8883W        W27737  17.126   7.936   2.225  0.2193  0.0947  0.1122
 8884W        W27738   2.791  15.887  14.065 -0.2807 -0.2138  0.2678
 8885W        W27739  10.136   9.281  14.539  0.3774  0.1266  0.0549
 8886W        W27740  15.002  13.270  13.355  0.1428 -0.1456 -0.1698
 8887W        W27741   4.173   0.404   2.256  0.2694 -0.0369 -0.0514
 8888W        W27742   8.974  18.967  12.736  0.1843  0.2697 -0.0148
 8889W        W27743   4.774   2.035  11.767 -0.0005 -0.0614  0.2023
 8890W        W27744  18.328  16.665   0.370 -0.0756 -0.1211  0.0369
 8891W        W27745   7.328   5.096  11.001 -0.3365  0.0177 -0.1691
 8892W        W27746   9.399   4.211  14.772  0.1005  0.0154 -0.2586
 8893W        W27747   9.251  16.152   5.045 -0.1224 -0.1307  0.1887
 8894W        W27748  14.356  15.853   2.698 -0.1702  0.0674 -0.1227
 8895W        W27749   3.410   5.016   1.570 -0.2731 -0.1533  0.0172
 8896W        W27750   8.882  14.261   0.908  0.2459  0.1028  0.3161
 8897W        W27751  18.135  16.553   2.892  0.2835  0.0268 -0.2028
 8898W        W27752  19.012  12.214  10.967 -0.2246 -0.1105  0.1692
 8899W        W27753  17.366  18.988  14.662  0.1638  0.1728 -0.2923
 8900W        W27754  16.671  16.198   2.070  0.0301  0.1606 -0.0396
 8901W        W27755  11.292  14.740   3.565  0.0829  0.3480 -0.0494
 8902W        W27756  15.686   8.020   3.844  0.1743  0.0127  0.0611
 8903W        W27757  10.327  12.919  10.379 -0.0178  0.0506  0.3061
 8904W        W27758   1.259  18.139   1.745 -0.1048  0.1578 -0.1210
 8905W        W27759  12.064  13.307   1.081  0.0398  0.2825  0.1865
 8906W        W27760  11.662  10.471  11.366  0.0073  0.0936 -0.0733
 8907W        W27761   9.408  10.359  11.781  0.0370 -0.0880  0.1704
 8908W        W27762  12.998   1.785  14.241  0.1974  0.0261  0.0439
 8909W        W27763  15.558   5.643  10.718 -0.1498  0.1336  0.0142
 8910W        W27764  16.173   6.065  14.670 -0.3320 -0.1634 -0.0371
 8911W        W27765  11.277   8.604  10.629 -0.2156  0.0796  0.0270
 8912W        W27766   4.614   3.000  14.420 -0.0487  0.0234 -0.0806
 8913W        W27767   0.062   7.661   3.458 -0.3688  0.0361 -0.0707
 8914W        W27768   5.888   7.665  12.697 -0.0235 -0.1137  0.3074
 8915W        W27769   4.416  16.047   1.157  0.0392 -0.0485  0.0620
 8916W        W27770  15.064  11.802  14.219 -0.0355 -0.1736 -0.0730
 8917W        W27771  14.310   1.146   0.524 -0.3538  0.2645  0.0822
 8918W        W27772  12.854  18.407   3.640  0.1751 -0.1301 -0.2032
 8919W        W27773  15.443  15.795  14.453 -0.0168 -0.0100  0.3399
 8920W        W27774  16.414  13.995  10.315  0.2880  0.1953  0.0959
 8921W        W27775   7.174  18.912  13.957 -0.2492  0.0741  0.0350
 8922W        W27776  13.236  13.182   2.570 -0.4242 -0.3746 -0.0239
 8923W        W27777   7.232  13.674   1.802  0.0169  0.0321  0.1614
 8924W        W27778  18.608  10.038   2.357 -0.0971  0.1310 -0.4445
 8925W        W27779  14.390   7.044  14.669 -0.0264  0.2092  0.1474
 8926W        W27780   0.196   2.550   0.915 -0.1451 -0.1959  0.2275
 8927W        W27781   5.557  19.033  13.113  0.1465  0.0142  0.1956
 8928W        W27782   4.645  10.276   1.190 -0.2148  0.3040 -0.0921
 8929W        W27783  11.649   8.058  12.375  0.1054  0.3380  0.2667
 8930W        W27784  14.081  19.096  14.182  0.0715  0.1953 -0.0190
 8931W        W27785  18.024  18.288  10.574  0.3674 -0.4219  0.1963
 8932W        W27786   9.224  10.376   1.418  0.1700  0.1592 -0.0102
 8933W        W27787  14.552   2.111   2.109  0.1508 -0.1351  0.0383
 8934W        W27788   4.301   5.878   3.716 -0.1172  0.2312 -0.1463
 8935W        W27789   6.655  10.128   9.436  0.3534  0.0209  0.2988
 8936W        W27790  18.804   1.259   0.782  0.0492  0.0050  0.2564
 8937W        W27791  12.252   0.190   0.206  0.0074  0.1590  0.0679
 8938W        W27792   5.066  16.048   3.799 -0.2161  0.3292  0.1489
 8939W        W27793  16.507  13.672  11.459 -0.1674  0.1372 -0.1599
 8940W        W27794  12.993   3.031  11.816 -0.0774 -0.2424  0.1183
 8941W        W27795   0.966  10.821  14.221  0.0642 -0.2854 -0.0103
 8942W        W27796   7.923  10.304  13.047  0.1434 -0.2914  0.1157
 8943W        W27797   4.034   8.339  14.267  0.1148  0.0848 -0.1492
 8944W        W27798  11.218   2.758  12.264  0.0908  0.1962 -0.0843
 8945W        W27799   7.858   0.783   1.828  0.2712 -0.1040 -0.4376
 8946W        W27800  10.099   4.040   4.207 -0.0787  0.0076 -0.4137
 8947W        W27801  19.142   0.385  11.209 -0.1798 -0.1304  0.2706
 8948W        W27802   4.134   2.215  12.519 -0.0117  0.1643  0.1219
 8949W        W27803   6.146   3.784  10.884  0.1406 -0.1719 -0.1112
 8950W        W27804   3.412   6.781   0.981 -0.2869 -0.1148  0.3133
 8951W        W27805   9.938   8.932  10.342 -0.4258  0.1782  0.1136
 8952W        W27806  17.054   5.849  12.586  0.3045  0.2045  0.0898
 8953W        W27807  10.553  13.358  14.075 -0.0090 -0.1436 -0.0265
 8954W        W27808  16.735  12.410  13.537  0.3866  0.0072  0.1612
 8955W        W27809   1.448   4.038  11.311 -0.0157  0.2204  0.1195
 8956W        W27810   1.326  15.840   3.275 -0.1486 -0.0035 -0.2148
 8957W        W27811  10.853  11.048   3.065  0.0871  0.1532 -0.1186
 8958W        W27812  15.792   7.309  14.401  0.1121 -0.0785 -0.1058
 8959W        W27813  16.672   1.026  12.642  0.0087 -0.0285  0.2420
 8960W        W27814  13.781  18.877   2.540 -0.2090  0.1533 -0.1720
 8961W        W27815   0.691   8.215   3.138  0.1003  0.0933 -0.5597
 8962W        W27816   9.357  12.033   4.443 -0.0534  0.1240  0.0110
 8963W        W27817  17.299   4.600   4.212 -0.0988  0.1070 -0.1039
 8964W        W27818   1.240  11.662  14.244 -0.4659  0.0872  0.1791
 8965W        W27819  17.633  13.642  11.103 -0.2828 -0.0454  0.2177
 8966W        W27820  13.829  14.252   1.206  0.1803  0.2610 -0.2957
 8967W        W27821   9.500  14.353  13.367  0.2749  0.0187  0.1835
 8968W        W27822   6.842  15.753   0.665 -0.1132 -0.0536 -0.1726
 8969W        W27823  12.381  12.783  10.799  0.0540  0.0378 -0.0331
 8970W        W27824   4.384  14.745   1.730 -0.2614 -0.1009  0.0820
 8971W        W27825  18.647   6.596  12.682  0.0299 -0.1047  0.0885
 8972W        W27826   3.989   7.992   4.026  0.0952 -0.0351 -0.2602
 8973W        W27827   0.872  12.295   2.039 -0.0830 -0.3583 -0.0987
 8974W        W27828   9.808  16.313  11.163  0.1181 -0.1924 -0.4282
 8975W        W27829   5.509   4.456   1.968  0.2940  0.0056 -0.3707
 8976W        W27830  10.540   3.795   1.151 -0.1192 -0.2392  0.0792
 8977W        W27831   1.892  18.659   2.335  0.3039 -0.1417  0.2334
 8978W        W27832   4.921  18.496  11.447 -0.0803  0.0823 -0.3250
 8979W        W27833  10.452  17.376  14.091 -0.1990  0.0770  0.4236
 8980W        W27834  15.503  12.959  14.302  0.0092 -0.1275 -0.0543
 8981W        W27835  14.010  15.103   2.568 -0.1405  0.1877 -0.2052
 8982W        W27836   8.475  14.659   1.207 -0.2633 -0.1146 -0.1139
 8983W        W27837   3.118   7.740   2.607  0.1760 -0.0809  0.2042
 8984W        W27838  13.678   0.137  13.871 -0.0795  0.3492 -0.0734
 8985W        W27839  12.794   1.160   4.104  0.2639  0.1787 -0.1033
 8986W        W27840   2.443  19.126  12.829 -0.1139 -0.2026 -0.1744
 8987W        W27841  11.077  13.994   2.774  0.2945 -0.1823  0.1991
 8988W        W27842   3.894  14.410  11.486  0.0061 -0.0760 -0.1142
 8989W        W27843  13.224   6.429   2.683 -0.0109  0.1186  0.0786
 8990W        W27844  16.660   2.464  13.386 -0.0743  0.4408  0.1524
 8991W        W27845   0.573  15.490   3.599 -0.2377 -0.1645 -0.0374
 8992W        W27846   1.980   8.850   3.781 -0.0138  0.0087 -0.0902
 8993W        W27847  15.342   2.491  13.800 -0.0001  0.2155  0.1422
 8994W        W27848  18.634  15.433  10.987  0.0164  0.3152 -0.0779
 8995W        W27849   8.864   7.108  13.890  0.4510  0.0295  0.1847
 8996W        W27850  18.531   7.496   4.146 -0.1707  0.0953  0.2214
 8997W        W27851   4.875   3.256  12.519  0.1200  0.2281  0.0894
 8998W        W27852   1.595  12.249   0.891  0.0787 -0.0082 -0.0449
 8999W        W27853  11.928  12.534  12.691 -0.0802 -0.1969 -0.1369
 9000W        W27854   9.880  11.508   1.308  0.1487  0.1321 -0.0607
 9001W        W27855   7.672  11.778   3.077 -0.0819  0.3608  0.3787
 9002W        W27856  17.043  16.277   2.425  0.1792 -0.0052  0.1233
 9003W        W27857   5.705   1.588  11.276  0.0891  0.1577 -0.0635
 9004W        W27858  16.368  12.197   0.519  0.3925  0.0467  0.1583
 9005W        W27859   9.434   8.755   3.206  0.3338 -0.5353  0.1299
 9006W        W27860   0.218   6.474   1.423  0.1078  0.4160  0.0509
 9007W        W27861  12.019  11.712   0.893 -0.0658  0.1790 -0.1505
 9008W        W27862  14.140   1.852  11.809 -0.0861  0.2430  0.0876
 9009W        W27863   2.372   1.355   3.429 -0.3865 -0.2301 -0.0919
 9010W        W27864  15.970  10.110  11.509  0.0240 -0.0863 -0.3452
 9011W        W27865   7.732  16.851   0.513 -0.6036 -0.1579  0.4383
 9012W        W27866  14.576   3.188   3.470 -0.0177  0.0892 -0.0430
 9013W        W27867   6.611   8.427  12.668 -0.0879 -0.2430 -0.0452
 9014W        W27868  11.809   7.505   1.536  0.1190  0.1488  0.0492
 9015W        W27869   0.890   0.831  11.066  0.0288  0.1454 -0.1108
 9016W        W27870  11.909   9.235   3.358  0.1587  0.0154  0.0379
 9017W        W27871   3.934  18.530   0.525 -0.0015 -0.1856 -0.0388
 9018W        W27872   2.154  15.059  14.736 -0.2618  0.2519 -0.0775
 9019W        W27873   2.909   4.879  11.362  0.0385 -0.1280  0.0433
 9020W        W27874   9.672  11.289   0.291 -0.0923  0.2941  0.3511
 9021W        W27875  13.316  16.875  12.950 -0.1920  0.1657 -0.0377
 9022W        W27876   5.725  17.998   4.351  0.0199 -0.0815  0.2429
 9023W        W27877  12.739   5.599  11.739 -0.2377 -0.0203  0.1759
 9024W        W27878  10.285   4.037   3.588  0.2610  0.1006 -0.0627
 9025W        W27879  11.155   0.444  14.438  0.1243  0.0151 -0.1175
 9026W        W27880  17.237  15.224   2.545  0.0030  0.1916  0.2293
 9027W        W27881  16.981  12.965  10.649 -0.1541 -0.0635 -0.1510
 9028W        W27882   0.747   5.788  11.711 -0.0849 -0.0686 -0.1071
 9029W        W27883  11.594  15.814  13.703  0.0598  0.1498 -0.1136
 9030W        W27884   7.219   0.087  11.159  0.3075  0.0526 -0.2239
 9031W        W27885   3.080   6.727   0.497 -0.1535 -0.0558  0.2072
 9032W        W27886   6.069   9.809   3.732 -0.1579 -0.4887 -0.3298
 9033W        W27887  17.762  17.884  10.657 -0.0473 -0.3073  0.0484
 9034W        W27888   0.946  13.250   1.905  0.2779  0.2539  0.3330
 9035W        W27889  18.740   4.613  12.409 -0.2431 -0.1291 -0.0818
 9036W        W27890   9.353  18.169   3.722 -0.1790 -0.0707 -0.3648
 9037W        W27891  16.521   9.894   1.019 -0.0377  0.2964  0.2172
 9038W        W27892  11.104  17.670   2.268 -0.3596  0.1283  0.0268
 9039W        W27893  15.689   6.490  10.493  0.0317  0.4576 -0.1980
 9040W        W27894   4.953   6.274   3.213 -0.1155  0.0654 -0.1226
 9041W        W27895  16.709  13.046   1.100 -0.1282 -0.3156 -0.0217
 9042W        W27896  16.883   5.267  10.580  0.0637  0.2141  0.2543
 9043W        W27897  15.269  17.974   3.832  0.0155 -0.0037  0.0781
 9044W        W27898   4.533   7.084   2.900 -0.5148  0.2084 -0.2076
 9045W        W27899   2.554   4.245  10.129  0.2133 -0.1634 -0.0804
 9046W        W27900   8.114   6.950  13.474  0.1098 -0.0336 -0.0952
 9047W        W27901  11.099   9.390  12.697  0.0197 -0.1157 -0.0209
 9048W        W27902   0.665  13.065  11.927  0.2564 -0.0695  0.0261
 9049W        W27903   3.676  14.424  12.887 -0.1096  0.1403  0.1658
 9050W        W27904   0.975   7.276  11.935 -0.2090  0.4217 -0.2426
 9051W        W27905  11.675   6.595   1.929  0.0919 -0.2798 -0.5132
 9052W        W27906  13.793  10.334   0.583 -0.2740  0.2786 -0.0311
 9053W        W27907  15.249   9.775   3.483 -0.0364  0.1460 -0.2306
 9054W        W27908   9.474   6.739   0.295 -0.1758  0.0128 -0.2514
 9055W        W27909   1.287  14.529   4.109 -0.3023  0.0256  0.0565
 9056W        W27910   2.492  12.629   9.777 -0.1143  0.2790 -0.1721
 9057W        W27911  11.965  15.322  11.341  0.1204  0.0769 -0.1079
 9058W        W27912   0.220   6.250   4.389  0.3600 -0.0487 -0.3363
 9059W        W27913  13.557   8.987  11.168  0.2321  0.0548 -0.0824
 9060W        W27914   9.096   5.651  13.272  0.3190 -0.2080  0.1584
 9061W        W27915   9.888   8.391   4.732  0.0823  0.0065 -0.0646
 9062W        W27916   0.316  16.357   0.423 -0.2490  0.1168  0.2620
 9063W        W27917   2.950  10.836   2.580  0.0181  0.2930  0.3012
 9064W        W27918  14.626   6.466  14.073  0.3910  0.4730  0.0443
 9065W        W27919  17.498   8.750   1.410  0.2653  0.2661  0.2738
 9066W        W27920  17.332  14.523  11.543  0.1658  0.2975  0.1996
 9067W        W27921  17.101  10.851   2.327  0.2262  0.2988 -0.0238
 9068W        W27922  16.755   3.208  12.799  0.2563  0.0067 -0.1662
 9069W        W27923   7.568   9.454   3.327 -0.1262  0.0405  0.3214
 9070W        W27924  16.024  14.799   3.373  0.1317 -0.0493 -0.5551
 9071W        W27925  11.259   7.310   2.210 -0.0098  0.2884 -0.2407
 9072W        W27926   7.038  18.310  11.345  0.0696  0.0690  0.2391
 9073W        W27927   2.755   7.773  14.056  0.0777  0.0762 -0.0700
 9074W        W27928  10.103  19.103  13.204  0.2740  0.1736  0.0414
 9075W        W27929   6.792   8.970   2.289  0.1330 -0.1763 -0.1140
 9076W        W27930  17.147   9.327  11.597  0.3797 -0.0842  0.1593
 9077W        W27931  15.864  18.187   2.123  0.1389 -0.2132 -0.1200
 9078W        W27932   8.404   5.641   0.182  0.0879  0.0525  0.0668
 9079W        W27933   9.829   3.658   3.987  0.1250  0.3202  0.0456
 9080W        W27934   9.815   3.533  14.052  0.0049 -0.0732 -0.3479
 9081W        W27935  11.989   5.924   2.794 -0.0353  0.0601 -0.0802
 9082W        W27936  15.792  16.332  12.607 -0.1985  0.2408  0.1247
 9083W        W27937  18.188   0.306  14.392 -0.3880  0.0176  0.2823
 9084W        W27938  10.868  18.777   5.141 -0.0694 -0.0598  0.2848
 9085W        W27939   1.094  14.017  13.329 -0.1199 -0.5527  0.3953
 9086W        W27940   9.218  14.451  12.113 -0.1390 -0.2372 -0.1590
 9087W        W27941  16.332   8.785   4.189  0.3144 -0.1116  0.0494
 9088W        W27942   4.156   6.459   1.570 -0.1624 -0.3374  0.0316
 9089W        W27943  16.066   9.584  10.094  0.3483 -0.2840  0.1192
 9090W        W27944  13.396  14.445  13.820  0.0245  0.0549  0.0435
 9091W        W27945   6.556   3.807   3.912 -0.0280  0.0699  0.0673
 9092W        W27946   7.962  15.650  11.314  0.3480  0.0587  0.0760
 9093W        W27947  15.797  14.984   1.443 -0.5797  0.0522  0.0193
 9094W        W27948  18.086   6.991   1.953  0.2876  0.0405  0.0167
 9095W        W27949  10.585   7.452   2.959 -0.2450  0.1222 -0.2478
 9096W        W27950  17.883  10.336  13.986 -0.1208  0.1440 -0.1498
 9097W        W27951   9.073   9.309   4.661 -0.0113 -0.3336 -0.0940
 9098W        W27952   8.609  17.229  14.377 -0.3467 -0.1905 -0.0258
 9099W        W27953   7.953   5.452   0.068 -0.3410 -0.0552  0.2190
 9100W        W27954  14.854   8.632   0.869 -0.3007  0.1533  0.0358
 9101W        W27955   0.560   3.175   3.648  0.1213  0.2052 -0.0161
 9102W        W27956   1.617   6.839  11.480 -0.1916 -0.0784 -0.0216
 9103W        W27957   2.602   9.005   9.961 -0.1705  0.0534  0.0836
 9104W        W27958  12.903   7.129  10.692 -0.3535  0.0857  0.4025
 9105W        W27959  11.682  15.629  10.438 -0.1043 -0.2239  0.0105
 9106W        W27960  16.634   0.484  14.502  0.2828 -0.1964  0.0835
 9107W        W27961  15.818  14.835   3.852 -0.0288  0.1096  0.5634
 9108W        W27962  12.750   2.982  13.573  0.3222 -0.1212  0.2587
 9109W        W27963  17.944   5.841  14.230  0.0017  0.2222 -0.1761
 9110W        W27964   0.232  16.868   0.705 -0.0257 -0.0596 -0.2376
 9111W        W27965   1.277  11.478   0.462  0.0767 -0.2613  0.4517
 9112W        W27966   8.459   2.614   4.255  0.0368 -0.0770 -0.1692
 9113W        W27967  18.979  10.749  10.563  0.0864 -0.1902 -0.0422
 9114W        W27968   4.928  17.785  12.959 -0.2384  0.2293 -0.2019
 9115W        W27969  15.223   9.629   4.471 -0.2819 -0.1704  0.1767
 9116W        W27970  16.187   3.973   3.729 -0.0569 -0.0435 -0.1512
 9117W        W27971   3.905   1.233   3.325  0.0528  0.3629  0.0794
 9118W        W27972  15.145   7.226  14.035 -0.1508  0.1845  0.1185
 9119W        W27973   9.128  12.685   2.790 -0.0589  0.4998 -0.1466
 9120W        W27974   1.404   0.417   3.980  0.1054  0.0402 -0.0555
 9121W        W27975  16.332  14.217   1.296 -0.0345 -0.0682  0.0068
 9122W        W27976  15.587   6.624   0.973 -0.0194 -0.2643 -0.2657
 9123W        W27977   3.023  15.388   4.128  0.0887  0.1492  0.3080
 9124W        W27978  15.271   8.237  14.001 -0.1948  0.1682  0.4258
 9125W        W27979  18.379  14.708  11.461 -0.2429  0.0481  0.0781
 9126W        W27980   9.075   7.807   1.837 -0.3485 -0.1513 -0.1279
 9127W        W27981   8.779   9.994  13.280 -0.2341 -0.1602  0.3875
 9128W        W27982   9.459   6.927   4.395  0.0044 -0.1642 -0.0695
 9129W        W27983  15.093  11.489   2.780 -0.2385 -0.1065  0.0146
 9130W        W27984   2.129   4.836  13.622 -0.0053 -0.1187  0.2955
 9131W        W27985  14.890   7.348   2.442 -0.1181  0.0273  0.1291
 9132W        W27986  18.431   1.764  14.549 -0.0466 -0.2102  0.1165
 9133W        W27987   0.954   0.652   3.961  0.0959 -0.1352 -0.1000
 9134W        W27988  14.092   2.446   3.863  0.0110  0.0229  0.0069
 9135W        W27989   1.604   7.238   4.254 -0.1443 -0.0652 -0.1078
 9136W        W27990   9.774   1.750   3.911 -0.0804 -0.0890 -0.1529
 9137W        W27991   6.611   9.795  11.155 -0.0724 -0.0579  0.2173
 9138W        W27992   9.361   5.215   1.098  0.0983 -0.3803 -0.2699
 9139W        W27993   0.246   0.909  13.347 -0.1484  0.2000  0.1607
 9140W        W27994   4.012  15.478   3.667  0.1640 -0.2653 -0.5945
 9141W        W27995  12.012   2.928  10.665 -0.4829 -0.0633 -0.1146
 9142W        W27996   8.067   3.002  12.756  0.1849 -0.0755 -0.3204
 9143W        W27997   7.282   4.098  14.312 -0.0722  0.1990 -0.1727
 9144W        W27998  11.449  17.510  10.742  0.1170 -0.0965 -0.0448
 9145W        W27999   2.806   2.791   2.237  0.0865 -0.0103 -0.1585
 9146W        W28000   8.905  14.615  14.629 -0.0728  0.0312 -0.2240
 9147W        W28001   5.086   1.057  13.956  0.0755  0.0321  0.1765
 9148W        W28002   5.877   7.440   0.621 -0.0453 -0.0300 -0.0918
 9149W        W28003   8.967  17.479   4.273 -0.3461  0.2174  0.0559
 9150W        W28004   8.314   3.625  12.135 -0.0019  0.1116  0.0326
 9151W        W28005   3.078  17.632  13.962 -0.0547  0.1524 -0.2224
 9152W        W28006   5.254   2.921  12.899  0.3833 -0.1302  0.1811
 9153W        W28007  16.221  16.752   3.819 -0.1888 -0.1967  0.0619
 9154W        W28008  18.980  17.104   0.861 -0.2069  0.0344  0.0103
 9155W        W28009  10.506   3.334  10.831  0.0499 -0.1211  0.0117
 9156W        W28010   7.699  17.505   2.301  0.1661  0.0894 -0.1278
 9157W        W28011   5.510   5.640  13.939  0.2616  0.0897 -0.0222
 9158W        W28012  16.708  13.337  13.747 -0.1217 -0.2351 -0.3067
 9159W        W28013   1.483   8.525  12.889  0.0140 -0.0884 -0.2812
 9160W        W28014   6.740   6.117  14.414 -0.1517  0.0773 -0.4395
 9161W        W28015  18.759  15.195  12.736 -0.2061  0.0349 -0.1292
 9162W        W28016  15.053   3.126   3.335  0.1865  0.1388  0.2423
 9163W        W28017  17.145   4.283   1.546  0.2322  0.2091  0.0561
 9164W        W28018   8.092   5.077  11.743 -0.0669 -0.1902 -0.0268
 9165W        W28019   8.540  11.559  14.291 -0.1552  0.1450 -0.0514
 9166W        W28020  10.780   9.669  13.080  0.0071 -0.0771 -0.0348
 9167W        W28021   1.256  12.626  11.307 -0.2364 -0.2459 -0.1089
 9168W        W28022   5.139  18.261  12.008  0.0724 -0.0609 -0.0528
 9169W        W28023  15.003  17.617   4.095  0.0363  0.1568  0.3875
 9170W        W28024  15.649   2.876  13.658 -0.1507 -0.0485 -0.2338
 9171W        W28025  16.312  11.653   0.525 -0.2422 -0.0824 -0.0234
 9172W        W28026   9.617   3.119   0.332  0.2197 -0.1876 -0.0603
 9173W        W28027   7.048   9.192   0.313  0.0152  0.2206  0.1264
 9174W        W28028  15.544  18.749   1.030 -0.1533 -0.0222 -0.2360
 9175W        W28029  12.549   7.485   4.196  0.1707 -0.3256 -0.0121
 9176W        W28030   4.893  14.143   2.448  0.1468  0.1787 -0.0639
 9177W        W28031   6.114   1.484   0.221 -0.2223 -0.1367 -0.0666
 9178W        W28032  12.147   5.721  11.235 -0.3206  0.0720  0.0740
 9179W        W28033  18.258  11.647  11.644  0.1763  0.4657  0.1382
 9180W        W28034  13.534   4.014  12.631  0.2926  0.2061 -0.0042
 9181W        W28035   2.438  15.456   4.170  0.1215 -0.0073  0.0309
 9182W        W28036  13.465   2.907  11.936  0.0853  0.0342 -0.1117
 9183W        W28037  10.233   6.143  12.466 -0.0342  0.0752  0.1777
 9184W        W28038   7.110   2.105  12.174  0.2985 -0.1336 -0.2421
 9185W        W28039  13.489   7.316  10.555  0.2365  0.1198 -0.0325
 9186W        W28040   2.138  19.040   2.626  0.0940  0.2257 -0.3351
 9187W        W28041   8.337   3.186  11.803 -0.0558  0.0970  0.1741
 9188W        W28042  16.872  13.389   4.206  0.1258  0.0003 -0.0575
 9189W        W28043  11.737  15.701   4.240  0.0186 -0.1242 -0.1255
 9190W        W28044   1.014   4.353  11.186  0.0546  0.5594 -0.0638
 9191W        W28045  14.106  12.547  12.670 -0.3159 -0.3738  0.0966
 9192W        W28046   6.682   3.699  10.146 -0.4079  0.0262  0.0562
 9193W        W28047   1.254   7.413   1.213 -0.2377  0.2443  0.1534
 9194W        W28048  18.043  11.584  12.610 -0.0237  0.2841 -0.1258
 9195W        W28049  13.271  11.877   4.246 -0.0223  0.1714 -0.1152
 9196W        W28050   9.908  13.825  13.262 -0.0595 -0.0694 -0.1140
 9197W        W28051  17.262  10.680  11.808 -0.0988  0.0189 -0.0127
 9198W        W28052  14.628   2.361   2.784  0.0689  0.1799 -0.1691
 9199W        W28053   6.924  11.061  11.963  0.1923 -0.0764 -0.0265
 9200W        W28054  13.909  16.403   0.408 -0.4660  0.1165 -0.0176
 9201W        W28055  12.575   0.013   5.279 -0.0993 -0.1872  0.3930
 9202W        W28056   3.189  18.825   4.391  0.2378  0.1384 -0.0229
 9203W        W28057   2.399   7.066   3.411  0.0768  0.1354 -0.2528
 9204W        W28058  10.371   1.082   3.654 -0.3235 -0.0720  0.2864
 9205W        W28059   0.934   3.474   0.708  0.3245 -0.2592  0.3197
 9206W        W28060  12.614  13.847   0.800  0.0999  0.1134 -0.1608
 9207W        W28061  13.269  11.282  12.896  0.3182  0.0559  0.0329
 9208W        W28062  16.362  13.721   1.606  0.0517  0.1914  0.1866
 9209W        W28063   7.275  10.433  13.880 -0.3687  0.0723  0.2543
 9210W        W28064  12.926  15.735   1.434  0.3534  0.0822 -0.4091
 9211W        W28065  15.384   5.360  11.531  0.2213  0.4169 -0.1747
 9212W        W28066   2.732  13.763  13.857  0.0792 -0.1499  0.0069
 9213W        W28067   8.098  17.679  13.405 -0.0299  0.4845 -0.0164
 9214W        W28068  10.458  18.676  12.347 -0.1288  0.1257  0.3302
 9215W        W28069   1.532   3.080  12.449 -0.0306 -0.1843  0.1416
 9216W        W28070  17.842   3.604   1.023  0.3620  0.1583 -0.1129
 9217W        W28071  14.437  16.987  10.279  0.0083  0.3715  0.1870
 9218W        W28072   7.363  11.754  11.399  0.1242 -0.0116  0.1066
 9219W        W28073  17.381   9.930  11.155 -0.1989  0.5184  0.1377
 9220W        W28074   6.699   6.865   3.801 -0.5326 -0.0241 -0.0614
 9221W        W28075   0.746   1.408   1.483 -0.4566 -0.1537 -0.0144
 9222W        W28076   9.488   5.294  11.970 -0.1474 -0.1476  0.1323
 9223W        W28077  18.197   3.602   1.442 -0.2973 -0.0300 -0.2333
 9224W        W28078   5.709  12.630  11.468  0.0562 -0.0650  0.0727
 9225W        W28079   4.865  14.072   2.928 -0.2653 -0.2570  0.0372
 9226W        W28080   0.396  18.013   3.320  0.1888 -0.0836 -0.0653
 9227W        W28081  17.362  14.923  11.187 -0.1719  0.5309 -0.0999
 9228W        W28082   8.680  14.717   0.766  0.3378 -0.2787  0.1476
 9229W        W28083   3.261   8.318  14.622 -0.2878  0.3452  0.0010
 9230W        W28084  10.383   3.824   5.084  0.1762  0.1931  0.0111
 9231W        W28085   0.986   9.325   4.574  0.3672 -0.0046 -0.0462
 9232W        W28086   5.837   2.220   2.270  0.0277 -0.0883 -0.0105
 9233W        W28087   5.948   8.773  11.736 -0.0840 -0.2627 -0.3101
 9234W        W28088   7.590  18.758  13.789  0.0534  0.0935  0.2451
 9235W        W28089  12.351  14.417  11.912 -0.2422 -0.0607  0.0065
 9236W        W28090   6.343  14.816   3.042  0.0655  0.0124 -0.1069
 9237W        W28091  11.768   5.944   1.810 -0.0084  0.1706  0.1748
 9238W        W28092   8.674  17.338  13.880 -0.0316 -0.0867 -0.1765
 9239W        W28093   1.456   0.850  14.200  0.1405 -0.0010 -0.1124
 9240W        W28094  14.043  14.339  13.812 -0.1485 -0.0712 -0.0524
 9241W        W28095  14.508  10.193   3.913 -0.0189 -0.0249 -0.2447
 9242W        W28096   7.679   5.439   1.750 -0.1594 -0.0963  0.1470
 9243W        W28097  13.646  17.508  12.741 -0.0213 -0.1472  0.0617
 9244W        W28098   3.632   2.601   1.052 -0.3006 -0.2032 -0.0104
 9245W        W28099   8.576   2.280   4.619  0.1743 -0.2458 -0.0297
 9246W        W28100  11.006   3.720  13.094  0.4057  0.2897  0.2770
 9247W        W28101  10.779  10.937   2.075  0.0980 -0.1462  0.1203
 9248W        W28102  13.701  13.985  12.999 -0.0401  0.0270 -0.2481
 9249W        W28103  12.526   1.991  14.338  0.0170 -0.1055  0.2509
 9250W        W28104   1.353  14.475  11.905  0.0575 -0.3741 -0.0396
 9251W        W28105   7.211   2.295   0.282 -0.2165 -0.2823 -0.1103
 9252W        W28106  10.629  14.057   0.680 -0.2305  0.0345  0.2127
 9253W        W28107   7.780  18.008  14.733  0.4853  0.1117  0.2495
 9254W        W28108  19.016   1.878   1.513  0.1382 -0.0603  0.1070
 9255W        W28109  11.039  14.979  12.224  0.0738  0.3183 -0.2823
 9256W        W28110   4.541   5.651  13.358 -0.0302  0.3801 -0.3616
 9257W        W28111   4.171  11.950   2.839 -0.3248  0.1875 -0.0526
 9258W        W28112   8.749   9.914  11.969  0.2018  0.0758 -0.0366
 9259W        W28113   2.504   2.384   4.585 -0.2931  0.0128  0.3226
 9260W        W28114  10.204   1.562  11.973 -0.2545 -0.0089  0.1002
 9261W        W28115  12.618   7.110  13.201  0.5889  0.0184  0.0043
 9262W        W28116  14.846  15.563  12.887  0.0915  0.0942 -0.0984
 9263W        W28117  14.394   2.655  12.913 -0.1592 -0.2738 -0.0911
 9264W        W28118  16.566  18.636  13.004  0.1642  0.1179 -0.0654
 9265W        W28119   1.588   0.395   1.528 -0.1812  0.2421  0.0679
 9266W        W28120  15.262  11.951  14.747  0.2256  0.0453 -0.2572
 9267W        W28121  14.837  11.606   4.934  0.1990 -0.0494 -0.0181
 9268W        W28122  15.445  14.712  11.325 -0.1624 -0.3155  0.3559
 9269W        W28123   5.593   4.011  13.693 -0.0473  0.1984 -0.2306
 9270W        W28124  13.764  15.663   3.479  0.0710  0.3045  0.2779
 9271W        W28125  14.958  18.047   2.835 -0.0907 -0.0455 -0.1752
 9272W        W28126   0.219  19.077   2.542  0.0528  0.1795  0.2997
 9273W        W28127   4.464   0.437  10.026 -0.0586 -0.0499 -0.0177
 9274W        W28128  10.440   1.684  13.239  0.0903  0.1552  0.3874
 9275W        W28129  14.932  14.322  14.087 -0.1870  0.1138  0.4831
 9276W        W28130   9.210   1.490   4.983 -0.0256  0.2681  0.2897
 9277W        W28131  15.675   7.613  13.180 -0.0592  0.1152  0.2042
 9278W        W28132  13.519  12.663   3.972 -0.1069 -0.0445 -0.0963
 9279W        W28133  15.268  11.856   2.513  0.1279 -0.3449  0.0079
 9280W        W28134  10.823   0.402   4.147 -0.0971 -0.1614 -0.1076
 9281W        W28135  11.733  15.211  10.879  0.0572  0.3231 -0.4281
 9282W        W28136   6.800  18.200  14.594  0.0970 -0.0863 -0.0206
 9283W        W28137   6.011  18.033   0.133  0.0299 -0.0359 -0.1128
 9284W        W28138  10.332  18.142   2.289  0.3057 -0.0571  0.0764
 9285W        W28139  18.077   1.176   2.005 -0.3466  0.0043 -0.1669
 9286W        W28140   4.979   7.452  11.584  0.1081 -0.1919 -0.0896
 9287W        W28141   4.879  17.073   2.825 -0.3607  0.0739 -0.2204
 9288W        W28142   3.305  11.990  12.800 -0.1374  0.1024  0.2480
 9289W        W28143   8.305   1.541  12.633  0.2669 -0.2532 -0.0793
 9290W        W28144   5.745   1.412   3.795  0.0738 -0.1975  0.0776
 9291W        W28145   8.279   1.163  13.416 -0.0457 -0.0057 -0.0506
 9292W        W28146   3.944  16.839   2.794 -0.0039  0.1204  0.3359
 9293W        W28147  12.633   4.950  13.042 -0.0025 -0.0146  0.0883
 9294W        W28148   9.104  17.991   1.205 -0.1556 -0.1868 -0.0025
 9295W        W28149   2.710   6.310   0.891 -0.1143 -0.3224  0.2022
 9296W        W28150   8.549   9.965  10.753  0.0742 -0.3177 -0.1210
 9297W        W28151   2.531   2.920  14.225  0.2067  0.0253  0.1780
 9298W        W28152  13.508   2.051  14.765  0.0883  0.2047 -0.1462
 9299W        W28153  12.928  15.547   3.838  0.1609 -0.3426  0.0305
 9300W        W28154  14.633   8.966  11.901  0.0257  0.2138 -0.4450
 9301W        W28155  19.028   9.409   1.916 -0.3393 -0.0064  0.0663
 9302W        W28156   2.736   6.478  12.631  0.0452 -0.6127  0.0560
 9303W        W28157   0.269   3.132  10.193 -0.1745  0.0752 -0.1460
 9304W        W28158  13.414  16.601  13.418  0.0194 -0.2487  0.0081
 9305W        W28159   5.485  11.692  12.967 -0.3924 -0.1745  0.1170
 9306W        W28160   8.483  17.000  11.256  0.0155 -0.3632 -0.0998
 9307W        W28161   5.776   6.174  12.826  0.0637 -0.1117  0.0958
 9308W        W28162  12.631   4.210   0.752  0.0007  0.1253 -0.0178
 9309W        W28163  16.881   1.108   2.811  0.0001 -0.0433 -0.1421
 9310W        W28164   0.282  11.984   0.528  0.2375 -0.0058  0.0781
 9311W        W28165  12.761   4.653  12.494  0.3654 -0.1649 -0.1695
 9312W        W28166   1.966   5.869   0.609  0.0508 -0.1874  0.1042
 9313W        W28167   0.918  12.244  11.186 -0.0313 -0.1859 -0.0940
 9314W        W28168   9.016  11.848   3.621  0.3915  0.2574  0.2583
 9315W        W28169  15.348  10.899  10.677  0.2561  0.2827 -0.3521
 9316W        W28170  11.386   6.631   3.481  0.4098  0.1665  0.0247
 9317W        W28171   0.890   3.969   0.466 -0.0253  0.0047 -0.1580
 9318W        W28172  16.390  16.079  10.644  0.1290 -0.0159  0.0963
 9319W        W28173  18.517  17.399  12.840 -0.1193  0.2072 -0.1294
 9320W        W28174   6.919  16.309   2.736  0.0127 -0.0552  0.2541
 9321W        W28175   0.387  16.770   2.738 -0.1427  0.1508  0.5172
 9322W        W28176   5.205  12.626   3.052 -0.0590  0.1475 -0.0711
 9323W        W28177   0.505   1.776   1.019 -0.1427  0.1365 -0.2045
 9324W        W28178   9.209   8.967  11.403 -0.3354  0.2780 -0.2288
 9325W        W28179  11.427   4.076  11.760 -0.1864  0.0745  0.2914
 9326W        W28180   7.583   0.751   2.608 -0.1898  0.0912  0.0126
 9327W        W28181   0.108   0.570  11.940  0.2760  0.1251  0.0596
 9328W        W28182  10.651   7.427  12.164  0.1393  0.0917  0.0147
 9329W        W28183   0.079   7.957   1.677  0.0128  0.2201  0.4091
 9330W        W28184  10.839  12.929  14.614  0.2581 -0.0889  0.1601
 9331W        W28185  11.665  16.747  10.954  0.1829 -0.2388 -0.0159
 9332W        W28186   7.573  19.003   1.505 -0.0480  0.1626 -0.0834
 9333W        W28187   7.311  16.098  13.700 -0.1552 -0.4118 -0.2549
 9334W        W28188   2.665   7.449  14.432  0.0778 -0.0330 -0.3485
 9335W        W28189  10.612   0.468   1.851  0.0972 -0.2123 -0.2682
 9336W        W28190  12.375  16.521   1.414  0.0227 -0.0935 -0.3536
 9337W        W28191  18.066  18.671  14.382  0.0420  0.0905 -0.2538
 9338W        W28192   6.216   0.945  10.856  0.1905  0.0595 -0.4087
 9339W        W28193  19.125   0.515   3.749  0.0856  0.1329  0.0890
 9340W        W28194  11.232   2.623   1.423  0.3367 -0.0389 -0.0950
 9341W        W28195   3.244   4.963  14.209  0.2027  0.5453  0.0447
 9342W        W28196  15.384  15.302   1.410  0.1188 -0.1408  0.3243
 9343W        W28197   1.575   2.443   2.447  0.2321 -0.0814 -0.1154
 9344W        W28198  16.176  16.286   1.909 -0.0385 -0.0495 -0.1969
 9345W        W28199  13.034  10.317   1.838  0.2631 -0.3033 -0.0834
 9346W        W28200  14.899  17.523   3.613  0.1386  0.0086  0.1058
 9347W        W28201  13.805  14.868  11.646 -0.2714  0.1941  0.0179
 9348W        W28202   9.826  15.643   0.572  0.0314  0.0623  0.1385
 9349W        W28203  14.885  12.224   2.278  0.1427  0.0068  0.0570
 9350W        W28204   8.630  15.273  13.018  0.1649 -0.0594  0.1298
 9351W        W28205   9.510  15.015   3.934  0.0370  0.0303  0.0966
 9352W        W28206  13.021   7.291  14.578  0.0777  0.2479 -0.1135
 9353W        W28207  16.403  13.402   0.734  0.1122 -0.1576 -0.1595
 9354W        W28208  11.108  14.862   3.092  0.0058 -0.0696 -0.3445
 9355W        W28209   7.065  11.330   1.824  0.0607 -0.1614 -0.1468
 9356W        W28210   9.142   7.186  12.131  0.0860 -0.0057  0.0988
 9357W        W28211   2.399   0.560   5.437 -0.0247  0.1764  0.1148
 9358W        W28212  16.259  14.832  13.001  0.4675 -0.2604  0.1870
 9359W        W28213  14.942   0.737  13.695 -0.3169 -0.1008 -0.1547
 9360W        W28214   7.440  15.891   3.392  0.2149 -0.1223 -0.2020
 9361W        W28215  14.132   0.654   3.902  0.2499  0.1074 -0.1795
 9362W        W28216   9.108   8.573   4.072  0.1067 -0.2268  0.2959
 9363W        W28217   3.669  17.433  12.839 -0.3612 -0.2624 -0.0282
 9364W        W28218   1.946   5.988   0.134  0.0288 -0.3221 -0.1126
 9365W        W28219  17.265  18.429   3.010  0.1777 -0.0036 -0.0591
 9366W        W28220   1.611  10.501  11.636  0.0630  0.0146  0.1323
 9367W        W28221  17.751  11.310  12.267  0.0682 -0.2761 -0.2491
 9368W        W28222  12.777  16.697   9.369 -0.4348 -0.0541  0.0683
 9369W        W28223   1.556   0.511   2.127 -0.1553 -0.0242  0.0662
 9370W        W28224  10.504   6.673   3.485  0.1128 -0.0403 -0.1311
 9371W        W28225   1.099  14.294  11.383  0.0918 -0.0168  0.0129
 9372W        W28226   7.715  16.265  10.739 -0.3170 -0.0486 -0.0790
 9373W        W28227  14.424  17.531  11.226  0.0485 -0.0178  0.2961
 9374W        W28228   4.575   5.333   0.296 -0.0542  0.3506 -0.1793
 9375W        W28229  18.277  11.373   3.146  0.4116 -0.3516 -0.1972
 9376W        W28230  17.872  11.929   4.182 -0.1343  0.2427 -0.1614
 9377W        W28231   8.619   8.956  11.751  0.1172  0.2686  0.0984
 9378W        W28232   5.646   0.886   0.780 -0.1028  0.3250 -0.1989
 9379W        W28233  13.243  14.164   2.135  0.0111  0.1586 -0.3812
 9380W        W28234   6.316   2.623  11.611  0.2284  0.2193 -0.0547
 9381W        W28235   6.627   9.753   2.548 -0.2565 -0.2087  0.0509
 9382W        W28236   4.134  19.115  11.320  0.1121  0.2031 -0.1850
 9383W        W28237  16.935   9.292  10.750 -0.0782  0.1283  0.0779
 9384W        W28238   2.021  14.606  14.417 -0.3270  0.2168  0.0280
 9385W        W28239   5.982   6.163   1.719 -0.0169  0.0995 -0.0565
 9386W        W28240  17.608   8.665  10.479  0.4404 -0.0412  0.1592
 9387W        W28241   2.357  18.836   1.241  0.2339  0.0544  0.2202
 9388W        W28242   0.044  10.788   0.908 -0.2356  0.1322 -0.0405
 9389W        W28243  14.224  12.291   0.793  0.0655  0.0693  0.2621
 9390W        W28244  16.801  15.811  10.942  0.3881  0.5913 -0.0547
 9391W        W28245   0.960   8.594   3.773 -0.2316 -0.1778  0.1102
 9392W        W28246   3.219   8.035   4.263  0.1755  0.0704  0.1901
 9393W        W28247  17.695   0.647   1.433 -0.2082  0.3022  0.2015
 9394W        W28248   1.494  16.827   2.885  0.1475 -0.3310  0.0672
 9395W        W28249   8.491  11.644  11.093  0.0932 -0.1317 -0.0792
 9396W        W28250  17.339   8.433  13.920  0.3958  0.1504 -0.1851
 9397W        W28251   0.878   6.666   4.769 -0.0592 -0.1222  0.0933
 9398W        W28252   4.337  11.580   4.089 -0.1222  0.3030 -0.1198
 9399W        W28253   5.769  11.313  11.454 -0.1582 -0.0191 -0.0716
 9400W        W28254  14.660  19.145   2.967  0.2233 -0.1543  0.4647
 9401W        W28255  11.884  17.937  13.022 -0.1553  0.1483 -0.0721
 9402W        W28256  14.365  17.521   1.391  0.0820  0.0752 -0.1058
 9403W        W28257   1.721  18.304   3.011 -0.0549 -0.0786  0.0151
 9404W        W28258  12.620   2.337  11.969  0.0007  0.0831 -0.2353
 9405W        W28259   4.307   7.012  12.227 -0.0200  0.0467  0.1500
 9406W        W28260  11.623   2.457   4.402 -0.1175  0.1143  0.0306
 9407W        W28261   2.329  12.332   0.258  0.1753  0.0341  0.2018
 9408W        W28262  11.228   5.120  12.614 -0.1139  0.0092  0.1735
 9409W        W28263   3.587  14.670  10.760 -0.0915 -0.0595 -0.0583
 9410W        W28264   2.553  16.855   1.020  0.0453 -0.2355  0.1864
 9411W        W28265  11.797  17.698  13.634 -0.1001 -0.1346 -0.0793
 9412W        W28266   1.415   5.742  13.566  0.0225  0.3475  0.2382
 9413W        W28267   5.388  17.498  14.294 -0.0060 -0.2145 -0.3672
 9414W        W28268   2.129   6.404   1.662 -0.0518  0.1203  0.0360
 9415W        W28269  13.214  10.472  12.767 -0.0040  0.0640  0.2353
 9416W        W28270   9.693   3.304  13.167  0.2557  0.2404 -0.2804
 9417W        W28271   7.991   6.239   2.415 -0.1216 -0.0476 -0.2553
 9418W        W28272  12.640   7.831  13.757  0.2462 -0.1417  0.0590
 9419W        W28273   6.208  13.638   2.769 -0.1888 -0.1366  0.1223
 9420W        W28274  14.929   1.428  12.246  0.0602  0.2101 -0.1863
 9421W        W28275   0.201  14.524  12.076  0.0415  0.2747  0.2551
 9422W        W28276   4.262   2.136   2.150 -0.1533  0.0323  0.1508
 9423W        W28277  11.440  15.437   3.116  0.0306  0.0134  0.3063
 9424W        W28278   4.132   1.471  12.654  0.0871 -0.1076 -0.0116
 9425W        W28279   8.586   6.451  11.971  0.2786 -0.1119 -0.1286
 9426W        W28280   2.230   3.291   3.522 -0.2177  0.0389 -0.1479
 9427W        W28281  18.025  12.720   0.259 -0.1014  0.0194  0.3389
 9428W        W28282  15.874   9.733   1.434  0.3444 -0.0201 -0.3128
 9429W        W28283   9.454  13.690  12.143  0.0067  0.0929 -0.0646
 9430W        W28284   3.044  12.755   0.996 -0.0379 -0.0043 -0.1260
 9431W        W28285  16.623  15.878  12.815 -0.1654 -0.3089  0.3330
 9432W        W28286  18.218   9.416  14.230 -0.0288  0.0813 -0.1817
 9433W        W28287   5.367   3.200   0.403 -0.0822  0.0122  0.1844
 9434W        W28288  10.672  12.796   1.927  0.2193  0.0650 -0.0176
 9435W        W28289   5.197   5.764   1.923 -0.0600  0.1072  0.2678
 9436W        W28290  17.040  16.482  11.735  0.2060  0.1175  0.3841
 9437W        W28291   9.117   0.911   1.387 -0.0091  0.1993 -0.0481
 9438W        W28292  18.243  17.853  11.820 -0.0412 -0.0197  0.0035
 9439W        W28293  13.909  17.711   0.035  0.0482 -0.0193  0.2814
 9440W        W28294   8.774   1.925   2.701  0.2051 -0.0830  0.0083
 9441W        W28295   5.365   3.626   0.723  0.0587  0.3635  0.1681
 9442W        W28296   2.104   5.369  12.305  0.2970  0.0118 -0.0102
 9443W        W28297   7.925   2.190   1.046 -0.0048 -0.1636  0.1240
 9444W        W28298   4.912   3.373  11.500 -0.3667  0.2233  0.1760
 9445W        W28299   6.807  17.844   1.988  0.0813  0.1954  0.2880
 9446W        W28300  12.494  15.748   1.842 -0.0968  0.2802 -0.1354
 9447W        W28301   8.839   0.949   4.563 -0.0743  0.1370  0.1078
 9448W        W28302  13.473  17.314   1.153  0.1028  0.2218  0.3361
 9449W        W28303  17.307   2.678   2.998  0.3279  0.1019  0.2561
 9450W        W28304   6.113   8.837   3.948  0.2180  0.2121 -0.4791
 9451W        W28305   4.510  16.874   2.273 -0.0501  0.0618  0.1645
 9452W        W28306   3.948  17.225  14.709  0.1528 -0.2578 -0.2601
 9453W        W28307  16.737   3.895  14.104 -0.1928 -0.1125 -0.0721
 9454W        W28308   6.548  10.063  14.078  0.3357 -0.1172  0.1148
 9455W        W28309   0.154  19.009   0.413 -0.0317 -0.0185 -0.0906
 9456W        W28310   7.772  14.394  10.346 -0.1949 -0.1150 -0.1677
 9457W        W28311   9.778  14.244  14.480 -0.0277  0.2328  0.0568
 9458W        W28312  11.718   7.554   2.611  0.1001  0.0034  0.0385
 9459W        W28313   4.752   1.531   9.256  0.3032 -0.1300  0.1882
 9460W        W28314  12.808   8.359   4.294  0.3460 -0.0547  0.1945
 9461W        W28315   8.606   3.967  13.756  0.1373 -0.1715  0.1998
 9462W        W28316  18.870  17.042   0.319  0.1519 -0.1669  0.1203
 9463W        W28317  10.042  10.146   3.794  0.0688  0.1832 -0.3010
 9464W        W28318   1.760  14.586   3.187  0.3874  0.2748  0.0740
 9465W        W28319  11.101   6.758   1.106  0.2091 -0.0112 -0.1326
 9466W        W28320   9.018  18.896   3.697  0.1128 -0.4130 -0.1677
 9467W        W28321  13.149   1.901   3.048 -0.1308 -0.1102 -0.2099
 9468W        W28322  18.346  12.075   2.365 -0.0419  0.1828 -0.0581
 9469W        W28323   1.662  13.822  14.352 -0.0091 -0.2586  0.3171
 9470W        W28324   0.848   8.984  11.592  0.0943 -0.0240  0.2066
 9471W        W28325   1.774  15.407  12.335  0.2395 -0.0179  0.1945
 9472W        W28326   3.955   5.707  14.670 -0.0057 -0.3081 -0.0696
 9473W        W28327   1.679  11.392   2.161 -0.1019 -0.1292 -0.1142
 9474W        W28328   4.318   5.757   2.892 -0.1609  0.2473  0.1002
 9475W        W28329  18.317  18.134  14.187  0.1371 -0.1189 -0.1027
 9476W        W28330  10.062  17.715  10.624 -0.3817 -0.0530 -0.3478
 9477W        W28331   3.207   3.515   3.707 -0.0529  0.0047 -0.0472
 9478W        W28332   0.163   5.186   1.709 -0.0110 -0.0535  0.0548
 9479W        W28333   2.324   1.681  12.727  0.2969  0.1654  0.2044
 9480W        W28334  16.225  16.773   2.075  0.2423 -0.0698 -0.2763
 9481W        W28335   6.179  16.883  14.575  0.2796 -0.2132  0.1070
 9482W        W28336   7.380   1.938   3.415 -0.1025  0.0867 -0.0234
 9483W        W28337   2.104   0.357   2.635  0.1018 -0.1933 -0.0933
 9484W        W28338  10.404   9.886  11.392  0.0656  0.1014 -0.0040
 9485W        W28339  12.322   7.870   3.899  0.4515  0.4433  0.0510
 9486W        W28340  14.302   3.654  14.262  0.0195  0.0335 -0.1138
 9487W        W28341   7.094   8.089  11.373  0.1573  0.0627  0.0217
 9488W        W28342  17.937  15.221   2.697  0.2407  0.3200  0.0212
 9489W        W28343   4.869  13.709   0.317 -0.2393 -0.1928 -0.1803
 9490W        W28344   7.845  19.109   2.226  0.2352 -0.3550 -0.0649
 9491W        W28345   4.056   1.274  11.051 -0.1852  0.1041  0.1706
 9492W        W28346  12.896  11.743   2.217  0.1406  0.0496  0.1421
 9493W        W28347  10.750   4.278  13.540  0.2035 -0.0790 -0.1448
 9494W        W28348   4.752  18.945  10.667 -0.4454  0.5405 -0.0593
 9495W        W28349   4.127  12.673  11.878 -0.2544  0.0950  0.1750
 9496W        W28350  14.854   7.177   3.391  0.0213 -0.1294  0.1224
 9497W        W28351  10.760   2.570  14.550 -0.0044 -0.0862  0.0967
 9498W        W28352  18.334   7.665   1.659 -0.0868  0.1556 -0.1108
 9499W        W28353   1.599   3.907   5.238 -0.1370 -0.1066 -0.3314
 9500W        W28354  10.230   2.193   2.514 -0.2765  0.1132  0.0430
 9501W        W28355   7.279   7.793  10.933  0.0791 -0.2027 -0.0241
 9502W        W28356   6.495   3.154  11.158 -0.1242  0.0087 -0.1140
 9503W        W28357  11.184  13.374   3.482 -0.1826 -0.1601 -0.1820
 9504W        W28358  14.073  17.832  13.488  0.1512  0.3458  0.2398
 9505W        W28359  13.183  12.271   0.460 -0.4203 -0.0265  0.1440
 9506W        W28360  17.959  19.120   3.501 -0.1284 -0.0854  0.1209
 9507W        W28361  12.447   1.016  12.672  0.1446  0.0473 -0.0735
 9508W        W28362   6.151   0.067  11.914 -0.1909 -0.3268  0.0935
 9509W        W28363  15.095   3.746   2.401 -0.1082 -0.1667  0.2110
 9510W        W28364   5.537   8.194  13.459  0.1376 -0.0908 -0.2899
 9511W        W28365   1.774   2.987   0.388  0.6529  0.0276  0.0559
 9512W        W28366   3.150  15.099  14.729 -0.1162 -0.0451 -0.3817
 9513W        W28367   9.131   3.639  11.573  0.0064 -0.2151 -0.3159
 9514W        W28368   4.526   5.884   0.110  0.1618  0.1196  0.0513
 9515W        W28369  10.685   4.988  13.574  0.3497  0.2767  0.0781
 9516W        W28370   1.423  10.564  12.246 -0.1057 -0.3627  0.3787
 9517W        W28371  15.758  11.645   3.753 -0.3565 -0.2591  0.1780
 9518W        W28372  18.309  16.733  11.074  0.0939 -0.0571 -0.1263
 9519W        W28373   2.679  15.204  12.342  0.0228  0.1057 -0.1468
 9520W        W28374   4.888  15.854   0.928  0.1623  0.4064  0.1774
 9521W        W28375   4.775  12.944   1.047 -0.1578  0.2664  0.0362
 9522W        W28376   9.118   4.195  12.430 -0.0384 -0.1846 -0.1544
 9523W        W28377  10.271   0.085  13.730 -0.1608  0.2887  0.0638
 9524W        W28378   1.056   1.759   0.332  0.0997 -0.0727  0.1168
 9525W        W28379  11.962  14.414   2.209  0.0766  0.1598 -0.0570
 9526W        W28380   3.734  17.042  10.607 -0.0468 -0.0334 -0.1319
 9527W        W28381   1.818   9.942   1.731  0.0950 -0.1293 -0.0579
 9528W        W28382  15.032   5.892  13.567  0.1461  0.0234 -0.1381
 9529W        W28383   9.152   8.415  10.866 -0.1349  0.0904  0.1038
 9530W        W28384   8.582  14.018  11.828  0.0790 -0.2215 -0.2931
 9531W        W28385  17.008   0.998  14.007  0.0424  0.5707 -0.0179
 9532W        W28386  14.873   7.060   1.103  0.5484  0.0336  0.1542
 9533W        W28387   7.227   3.832  10.022  0.2349 -0.0089 -0.0692
 9534W        W28388   3.265   7.762   5.190  0.3623  0.0533  0.1178
 9535W        W28389   2.422   8.695   0.021  0.1921  0.1301 -0.0896
 9536W        W28390  10.729  18.423   3.433 -0.3389  0.1339 -0.0259
 9537W        W28391  15.019   4.221  13.706 -0.2584 -0.0441  0.1076
 9538W        W28392   7.396  11.031   2.170 -0.0643 -0.2945 -0.1678
 9539W        W28393  13.096   5.658  14.577  0.0273  0.1707  0.1809
 9540W        W28394  10.191   5.877   3.170 -0.0102 -0.2069  0.1828
 9541W        W28395  15.975  10.540   1.035 -0.0373 -0.0957  0.0750
 9542W        W28396   4.446   1.807   1.780  0.1115  0.1959  0.3107
 9543W        W28397  18.357  15.912  12.211  0.0734 -0.1386  0.0362
 9544W        W28398   9.390  15.438   1.349  0.2339 -0.5259  0.0745
 9545W        W28399  11.398   2.483  11.087 -0.0667 -0.1868  0.1963
 9546W        W28400  17.034  13.797   3.058  0.3578 -0.1010  0.0485
 9547W        W28401  14.968  14.747  12.286 -0.2372  0.1073 -0.0360
 9548W        W28402  17.250   5.165   1.079  0.0908  0.0874  0.1916
 9549W        W28403   0.573   7.747   1.711 -0.0088  0.1522 -0.2012
 9550W        W28404  14.210  11.180   0.980  0.2741 -0.1489 -0.0859
 9551W        W28405   7.234   8.171  14.450 -0.0620 -0.0249 -0.0190
 9552W        W28406  17.081  14.782  10.752 -0.2312 -0.0595  0.0942
 9553W        W28407   8.786  16.492  13.697  0.0019  0.1847  0.3665
 9554W        W28408  10.159  14.584   2.300 -0.0113  0.2828  0.5507
 9555W        W28409  14.564  17.241  13.932 -0.0001 -0.0754 -0.0625
 9556W        W28410   1.360  18.186   0.502  0.0120  0.2654  0.1096
 9557W        W28411   0.723   0.159  10.485  0.2398  0.0937 -0.0613
 9558W        W28412   0.617   5.587  13.129  0.1923 -0.1315 -0.1043
 9559W        W28413  13.862  18.526   1.036 -0.0484  0.4251  0.5875
 9560W        W28414   9.094  15.273  13.341 -0.1353  0.0628 -0.1679
 9561W        W28415   1.629  15.587  13.609  0.0048  0.0375  0.0966
 9562W        W28416  12.205  14.325  14.494 -0.1682 -0.1767  0.0972
 9563W        W28417  10.805  15.619  10.097 -0.2199 -0.1342 -0.3747
 9564W        W28418  18.988   4.769   5.355 -0.1637 -0.1090 -0.1026
 9565W        W28419  15.451   7.402   2.184  0.4139  0.1521  0.1215
 9566W        W28420  15.519  12.327  14.572  0.1812  0.2941 -0.0440
 9567W        W28421  12.709  17.589  13.292  0.2039 -0.3594  0.2569
 9568W        W28422   8.642   8.495   1.550  0.2890  0.0093 -0.4728
 9569W        W28423  17.583  16.186   0.183  0.0034 -0.1976 -0.0296
 9570W        W28424  18.103  16.798   3.388 -0.3036  0.1032 -0.2723
 9571W        W28425   2.309  13.657   2.355  0.1532  0.2314  0.1273
 9572W        W28426  18.347  11.457  14.734  0.2134  0.1686  0.0253
 9573W        W28427   8.874  12.679   2.113 -0.3336  0.0257  0.1916
 9574W        W28428   8.661   4.837  13.964  0.4053 -0.2483 -0.0452
 9575W        W28429  14.172  11.475  10.927  0.1972 -0.2256  0.1253
 9576W        W28430  17.277  12.049  11.283  0.1244  0.0565  0.0834
 9577W        W28431   7.487   0.218  13.539 -0.0137 -0.1454 -0.0981
 9578W        W28432  13.832   8.577   0.704 -0.1081  0.2386  0.2154
 9579W        W28433  11.102  17.723   3.851 -0.0229  0.2251 -0.0187
 9580W        W28434  15.492   5.795  11.240  0.0454  0.0022 -0.2094
 9581W        W28435   2.835  18.522   0.252 -0.4280  0.1826  0.0974
 9582W        W28436  10.718  12.786  12.825  0.0703 -0.2314  0.1538
 9583W        W28437  19.068  13.374   2.496 -0.0928 -0.1094  0.1630
 9584W        W28438  18.425  12.891  12.195 -0.0343 -0.0570  0.0349
 9585W        W28439  15.328   5.570   3.307 -0.1657  0.0660  0.2219
 9586W        W28440   9.336   4.522   4.112 -0.1396  0.0548  0.0011
 9587W        W28441   0.460   1.891  12.791 -0.0840 -0.0520  0.3492
 9588W        W28442  16.057   5.187  12.985  0.0921  0.1078  0.0429
 9589W        W28443  11.866   1.069   0.059 -0.4497  0.1609  0.3406
 9590W        W28444   1.464  11.971  13.429 -0.0342  0.0142  0.3507
 9591W        W28445   8.858   5.484  14.763  0.0593 -0.1590  0.0293
 9592W        W28446  18.471   8.175  13.831  0.0741  0.1485 -0.1038
 9593W        W28447   8.380   9.134   1.279  0.0176 -0.4978 -0.0656
 9594W        W28448  10.833  14.054   0.043  0.1544  0.1987  0.1268
 9595W        W28449  10.113  16.513  14.018 -0.2306 -0.2083  0.1756
 9596W        W28450   1.498  12.703   0.748 -0.2979  0.3237  0.0856
 9597W        W28451  16.475   3.658   0.963  0.2833 -0.0686 -0.3563
 9598W        W28452  17.178  11.186   1.924  0.2745 -0.1512  0.0152
 9599W        W28453  19.047   7.619  13.461  0.2102  0.0451  0.2049
 9600W        W28454  12.192   5.024   2.966  0.3197 -0.0480 -0.1176
 9601W        W28455  14.760  11.872  14.714 -0.2601  0.1124  0.1214
 9602W        W28456  17.474  15.447  13.794  0.3712 -0.2512 -0.1179
 9603W        W28457  12.842  18.625  13.873 -0.3522 -0.0848 -0.2687
 9604W        W28458   9.701   9.601  13.427 -0.0345  0.4178 -0.2445
 9605W        W28459  11.893  14.621  13.852  0.1607  0.4586 -0.0644
 9606W        W28460   0.815  18.244   4.355 -0.1585 -0.0679 -0.1849
 9607W        W28461  16.366   1.642   2.027  0.2407 -0.0319  0.3165
 9608W        W28462   0.492  16.465  10.526  0.0741  0.0318  0.0815
 9609W        W28463   0.071   8.176   0.535 -0.2200  0.2708  0.2664
 9610W        W28464  12.422  13.544   0.166 -0.2482  0.1647 -0.0308
 9611W        W28465  18.182   6.634  10.948 -0.2747  0.2282 -0.2247
 9612W        W28466  14.617  14.256  13.092 -0.4008  0.1537 -0.0043
 9613W        W28467  10.528  13.602   3.320  0.1410  0.0210  0.1239
 9614W        W28468  18.450  16.469   1.270 -0.2324 -0.0348 -0.0382
 9615W        W28469  11.414   0.261   0.646  0.1431 -0.1660 -0.4236
 9616W        W28470  10.930   0.803  11.444  0.0451  0.2682  0.1455
 9617W        W28471   7.819  10.664   4.407  0.1317 -0.1646 -0.3086
 9618W        W28472   1.659  11.859   0.403  0.1436 -0.1831  0.2423
 9619W        W28473  17.690   6.534  11.127  0.0462  0.0722  0.2694
 9620W        W28474  12.938  10.953  14.021 -0.0372  0.1952  0.2082
 9621W        W28475  15.079  16.100   1.045  0.1358 -0.0158 -0.0022
 9622W        W28476   7.948   9.064  13.665 -0.0970  0.0558  0.0161
 9623W        W28477   8.278   2.730  13.711  0.0741  0.1600 -0.2038
 9624W        W28478  10.833   8.189  11.368 -0.2328  0.1540 -0.0742
 9625W        W28479  10.250   8.273  12.242 -0.0017  0.1895  0.1949
 9626W        W28480  17.734  13.998   3.002 -0.1956  0.1377 -0.0392
 9627W        W28481   2.362  19.147   1.661  0.0602 -0.0134 -0.1444
 9628W        W28482  12.090   5.852   1.013  0.1364 -0.1041 -0.2571
 9629W        W28483  18.317   1.975   2.744 -0.3234 -0.0616 -0.1395
 9630W        W28484  18.954  15.752  14.092  0.0636  0.3431 -0.3117
 9631W        W28485   2.284   5.690  14.734 -0.0339 -0.1371 -0.0908
 9632W        W28486   9.398  13.916  13.153 -0.3788 -0.0144 -0.4038
 9633W        W28487  12.985  12.975   1.548 -0.2264 -0.3575 -0.2132
 9634W        W28488  11.385   0.705  11.252 -0.2663  0.0539 -0.2106
 9635W        W28489  12.526   7.156   1.998  0.1087 -0.2460  0.1423
 9636W        W28490  17.244   9.812  13.386  0.0415 -0.4219 -0.1363
 9637W        W28491   2.791   4.415   1.662  0.2860 -0.1672 -0.0279
 9638W        W28492   5.649   8.243   1.860 -0.1571  0.0812 -0.0767
 9639W        W28493  15.810   1.149   1.282  0.1117 -0.0373  0.1409
 9640W        W28494  10.790   3.249  13.112 -0.1227  0.0288 -0.2741
 9641W        W28495  16.422   5.995   0.721  0.1275  0.0362 -0.1277
 9642W        W28496  11.954   9.863  13.944 -0.2572 -0.0240 -0.0068
 9643W        W28497   8.026  11.595   1.082  0.2409  0.1139 -0.0272
 9644W        W28498  12.166  12.044   0.400  0.3104  0.2277  0.2949
 9645W        W28499  15.823   1.751  14.535  0.3508  0.0189 -0.2758
 9646W        W28500   5.236  18.213   0.704  0.1722 -0.2131  0.1684
 9647W        W28501   1.718  18.570   3.517 -0.0352  0.0856  0.3473
 9648W        W28502  18.990  11.461  13.896 -0.3906  0.1771  0.0775
 9649W        W28503  13.577   7.023   1.353  0.0955 -0.1103 -0.2659
 9650W        W28504   5.873  14.076  14.017 -0.0294  0.1068  0.2259
 9651W        W28505   8.513   7.767   3.045  0.2574  0.0483 -0.0270
 9652W        W28506   1.892  18.506  10.988 -0.1510 -0.0914 -0.0679
 9653W        W28507  15.517  14.435  14.556 -0.0344 -0.1439  0.0266
 9654W        W28508  15.311   2.833  14.166  0.1062  0.1324 -0.0449
 9655W        W28509   9.282  16.670   9.225 -0.0178 -0.0132  0.0550
 9656W        W28510   9.525   2.819  13.462 -0.1758  0.0860  0.1558
 9657W        W28511  10.643   4.638  12.147  0.2006 -0.2730 -0.0601
 9658W        W28512   5.571  12.354   0.174 -0.0483 -0.4588  0.0228
 9659W        W28513   0.536   7.901   3.517 -0.2659 -0.0814 -0.2731
 9660W        W28514   1.027  15.741  14.566  0.2098  0.3114 -0.0117
 9661W        W28515   4.929  19.025  12.588  0.0382 -0.2099  0.2052
 9662W        W28516  13.825  15.232   1.147 -0.1522 -0.0091 -0.1975
 9663W        W28517   7.347  17.534   1.712 -0.1317 -0.0239  0.1134
 9664W        W28518  17.594  15.284  14.754 -0.0311 -0.0169  0.1006
 9665W        W28519  16.617   3.875   2.182  0.2474 -0.0752  0.0612
 9666W        W28520  11.324  10.857   3.207 -0.0989  0.1885 -0.1012
 9667W        W28521   2.256  10.202   0.815  0.0094 -0.1228 -0.3055
 9668W        W28522  14.144   1.762   3.066 -0.0191  0.2551  0.0154
 9669W        W28523   6.318  15.018   3.824  0.2553  0.0916  0.0054
 9670W        W28524  11.349  10.772  12.976 -0.0856  0.0304  0.2711
 9671W        W28525   8.242   7.162  10.984  0.2903  0.3887 -0.2882
 9672W        W28526   2.287  10.985  11.804  0.0444 -0.0761  0.2597
 9673W        W28527  10.270  15.414   1.677  0.2433 -0.2676 -0.2139
 9674W        W28528  16.748   9.047  12.897 -0.3121  0.0047  0.3614
 9675W        W28529  18.677   6.320   1.817  0.0705 -0.2920 -0.0398
 9676W        W28530  19.106   2.917   1.022 -0.0176 -0.0790  0.0144
 9677W        W28531   2.168  12.872   1.801  0.3470  0.1204 -0.0847
 9678W        W28532  17.324   6.880   2.513 -0.0116  0.0533  0.1998
 9679W        W28533  11.326   6.241  10.753 -0.2002 -0.1389  0.1564
 9680W        W28534   4.224  12.507   2.847 -0.0652 -0.0589 -0.0887
 9681W        W28535   5.420  13.850   1.652 -0.0901 -0.1186  0.1540
 9682W        W28536   0.431   2.196   3.228  0.1702 -0.1115  0.0507
 9683W        W28537  15.088   0.546   3.148 -0.3121  0.1106 -0.0991
 9684W        W28538  12.650   4.143   1.901  0.0608  0.1645 -0.4146
 9685W        W28539  14.525   6.921   3.182 -0.0396  0.1078 -0.2506
 9686W        W28540   7.232  11.510   2.318  0.1634 -0.0117  0.2120
 9687W        W28541  18.514   4.045   4.298 -0.5814  0.1052 -0.0611
 9688W        W28542   3.665   5.852  10.635  0.0578  0.0042 -0.1155
 9689W        W28543  17.619   7.590   4.209 -0.0286  0.0231 -0.0100
 9690W        W28544  11.592  10.128  13.060  0.4562  0.2066  0.1408
 9691W        W28545   6.739   0.177   3.907 -0.1713  0.3571  0.1361
 9692W        W28546  15.719  13.024  10.624 -0.1006 -0.1623  0.2555
 9693W        W28547   7.415   0.868   2.086  0.3992 -0.1783 -0.0504
 9694W        W28548   6.344   9.161  10.952  0.0063 -0.0878  0.0082
 9695W        W28549   5.874  16.039  13.638  0.2287  0.1230 -0.0474
 9696W        W28550  16.691  13.474   3.293  0.0390 -0.0766  0.2406
 9697W        W28551   4.029  11.213   3.900 -0.1139 -0.0017 -0.0163
 9698W        W28552  17.305   6.512   1.649 -0.0433  0.1993  0.2475
 9699W        W28553   1.566  12.979   2.923 -0.3540  0.2546  0.2522
 9700W        W28554  16.508   0.539  10.204  0.0111  0.0941 -0.1032
 9701W        W28555  15.404  14.138  11.139 -0.2598  0.4387  0.0090
 9702W        W28556   3.738  10.309   2.242 -0.1402 -0.1888 -0.4605
 9703W        W28557   5.965  15.230   1.698  0.0038  0.0557 -0.0324
 9704W        W28558   5.095   0.250  10.697  0.2976 -0.0006  0.0832
 9705W        W28559   3.400   8.683   2.090 -0.2001 -0.0952  0.0241
 9706W        W28560   6.646  12.879  12.068  0.1784  0.0764  0.1216
 9707W        W28561   9.938   4.354   2.227 -0.1875  0.1243  0.1843
 9708W        W28562   9.608   4.068   2.468  0.0475  0.0226 -0.2222
 9709W        W28563   6.178   1.653   3.502 -0.2631 -0.1263 -0.0835
 9710W        W28564  19.080  15.961   3.130 -0.1222  0.0321 -0.1172
 9711W        W28565  11.646   4.283   2.878  0.3491 -0.1734 -0.1313
 9712W        W28566   0.869  11.868  14.500 -0.2234 -0.1654 -0.3943
 9713W        W28567   5.100   1.606   2.057  0.0330  0.4642  0.2328
 9714W        W28568  10.606   4.622  13.138 -0.0962  0.2704 -0.2198
 9715W        W28569   5.411  17.614  11.181 -0.3893 -0.0260  0.2373
 9716W        W28570   4.680   2.205   4.485 -0.1524  0.1056  0.2619
 9717W        W28571   8.115  13.421   2.946  0.1279  0.3262 -0.0041
 9718W        W28572  11.498  16.844  12.359  0.1750  0.0150 -0.1259
 9719W        W28573   8.753  12.227  13.618  0.1849 -0.2110 -0.0121
 9720W        W28574   8.048  12.520  11.173  0.1099 -0.2234  0.2182
 9721W        W28575   2.618   6.962  12.764 -0.0486 -0.0417  0.1895
 9722W        W28576   0.577   6.810   1.185  0.1838 -0.0340  0.0139
 9723W        W28577   7.299  13.530   4.058 -0.0360 -0.1996 -0.1788
 9724W        W28578  12.617   5.010   1.066  0.0046 -0.1410 -0.3409
 9725W        W28579   5.656   5.444   5.120 -0.4184 -0.2027 -0.1530
 9726W        W28580  15.111  15.765   1.441 -0.2622  0.3349 -0.2987
 9727W        W28581  19.090  18.257  10.655 -0.0635  0.1367 -0.0595
 9728W        W28582   6.614   3.681  11.087  0.0783 -0.0746 -0.2634
 9729W        W28583  17.742  10.048  12.536  0.1331  0.0979 -0.1822
 9730W        W28584  10.394   2.312  13.863  0.1721  0.1544  0.1100
 9731W        W28585   0.045   9.138   9.754  0.3264  0.0958  0.2133
 9732W        W28586   0.800   8.852   0.600 -0.3310  0.2084  0.0617
 9733W        W28587  14.617  19.017  13.479 -0.2380  0.4911 -0.3448
 9734W        W28588   1.461   0.513  10.735 -0.1828 -0.0242  0.0891
 9735W        W28589  17.629   0.626  12.350  0.0641 -0.0667 -0.0409
 9736W        W28590   9.377  17.794   4.134 -0.1416 -0.1105 -0.0582
 9737W        W28591   5.602   6.424  13.671  0.0364  0.0875 -0.1020
 9738W        W28592   4.800   4.135  12.071  0.0070 -0.1085  0.0326
 9739W        W28593   3.092   2.299   3.604 -0.0014  0.0250  0.0746
 9740W        W28594  18.516  16.328  13.465  0.2347  0.1166 -0.0623
 9741W        W28595  16.562  18.934  13.743  0.1336  0.3199  0.1480
 9742W        W28596  17.841  16.902   1.635  0.1175  0.0971 -0.0790
 9743W        W28597   9.384  11.347  13.005 -0.3383 -0.0877 -0.0396
 9744W        W28598  15.532  12.839   0.532 -0.1639 -0.0147 -0.0427
 9745W        W28599   2.306  18.409  11.445 -0.0588  0.3357 -0.1310
 9746W        W28600  18.428   4.953  12.070  0.0848  0.0482  0.0367
 9747W        W28601   6.586   7.316   3.781 -0.1794 -0.0137  0.0267
 9748W        W28602   7.522   1.005   0.157  0.0359 -0.0909 -0.0962
 9749W        W28603   2.018  14.925  11.746  0.1688  0.0086  0.4997
 9750W        W28604   2.495  14.522   0.550  0.0725  0.0606 -0.1657
 9751W        W28605   5.604   7.027   2.237  0.0168  0.0497 -0.2694
 9752W        W28606   3.929   4.370  12.298 -0.1109  0.2248  0.0493
 9753W        W28607   4.073   9.360  13.317 -0.0885  0.1278 -0.1560
 9754W        W28608  18.346  16.690  10.632  0.0539 -0.0388  0.0224
 9755W        W28609   0.578   2.790   2.406 -0.0770  0.0764 -0.0900
 9756W        W28610  16.520   5.133  10.951  0.1654  0.2978  0.0235
 9757W        W28611   3.219   7.902  13.709  0.0901 -0.1897 -0.1621
 9758W        W28612   4.688   2.675   4.200  0.1141 -0.0588  0.4261
 9759W        W28613  18.285  12.765  11.645 -0.0507 -0.1268 -0.0716
 9760W        W28614  11.838  15.332   4.589  0.0170  0.1410 -0.1790
 9761W        W28615   2.498   3.568   3.177  0.0585  0.0202 -0.2037
 9762W        W28616   8.382   2.366  14.144 -0.4821 -0.3813  0.0007
 9763W        W28617   5.567  16.889  10.845 -0.0171 -0.0255  0.1185
 9764W        W28618   1.745   3.632   0.645  0.2823  0.0668 -0.1238
 9765W        W28619   2.119   1.896   1.544  0.1312  0.0605 -0.0892
 9766W        W28620  10.359  10.060   1.965  0.2037  0.2029 -0.0467
 9767W        W28621  15.332  15.158   4.330 -0.1665 -0.1630 -0.0425
 9768W        W28622  18.650   4.777  14.182  0.0143 -0.0931  0.0701
 9769W        W28623  10.234   1.259  13.907  0.1410  0.4522 -0.1705
 9770W        W28624  10.854   7.209   0.170 -0.0943  0.0183  0.0700
 9771W        W28625   3.716   0.052   1.191  0.3088 -0.3596  0.0933
 9772W        W28626  12.195  13.517   4.209  0.1547 -0.0207 -0.1360
 9773W        W28627  11.218   2.712  14.743  0.2163  0.4350  0.2731
 9774W        W28628   2.751   5.902  12.383 -0.3824 -0.0372  0.0845
 9775W        W28629  16.228   2.548  10.691 -0.1874 -0.2170  0.1367
 9776W        W28630  18.035  12.304   4.525 -0.0661  0.2650  0.1720
 9777W        W28631   6.788   4.506  11.717  0.1767 -0.1133  0.0689
 9778W        W28632  14.651  13.371   4.169 -0.1144  0.1534 -0.0861
 9779W        W28633   4.850   1.095   0.201 -0.1220  0.0745 -0.0248
 9780W        W28634   7.459   5.305  10.479  0.1831  0.3258  0.1794
 9781W        W28635   1.790  10.755  14.309  0.3496  0.0500  0.1497
 9782W        W28636   2.337   7.099   2.920  0.1567  0.0017 -0.1343
 9783W        W28637  16.362  11.953  11.874 -0.1526  0.3269  0.1891
 9784W        W28638  14.181   5.577   2.357 -0.0949 -0.0518 -0.2403
 9785W        W28639   3.532   9.863  12.495  0.1987 -0.0776 -0.1920
 9786W        W28640   8.091  13.288   0.752 -0.0268 -0.2522  0.2005
 9787W        W28641   5.845  11.443  14.621  0.0692 -0.0679  0.4805
 9788W        W28642   0.219   2.214   1.584 -0.2167 -0.0552  0.3040
 9789W        W28643   9.725   0.025  13.503  0.1368  0.0388 -0.0832
 9790W        W28644  15.160   3.315  12.802  0.0894  0.2038  0.0067
 9791W        W28645  12.186  18.976  13.019  0.1531  0.2903 -0.1588
 9792W        W28646  12.340  13.900  11.996 -0.2419  0.0961  0.2188
 9793W        W28647   1.001   3.691  12.991  0.0661  0.0276 -0.1116
 9794W        W28648  11.110  15.032   3.937 -0.0287 -0.0429 -0.0953
 9795W        W28649  11.112   8.332  11.748 -0.1473  0.2177 -0.0348
 9796W        W28650   8.488   5.678   0.733  0.0502  0.2885  0.2512
 9797W        W28651   0.749  18.329   3.355 -0.2175 -0.1184  0.0067
 9798W        W28652   0.808  13.386  12.456 -0.0780 -0.0445 -0.1266
 9799W        W28653   7.572  12.582   2.723  0.0741 -0.0157 -0.1262
 9800W        W28654  10.941   9.723   2.532 -0.1712 -0.0859  0.0254
 9801W        W28655  18.328   3.900   0.369 -0.0087 -0.0653  0.1581
 9802W        W28656  15.434  16.062  12.233 -0.0865 -0.1740 -0.0187
 9803W        W28657  10.660   5.830  12.385 -0.1382  0.0683 -0.1970
 9804W        W28658   3.449   7.329   2.626  0.0538 -0.1055  0.0510
 9805W        W28659  15.361   6.532   3.665  0.1157  0.0796 -0.1387
 9806W        W28660   6.003  13.500  11.018 -0.0255  0.1159  0.0144
 9807W        W28661   9.505  18.700  12.785  0.5723 -0.1295  0.1933
 9808W        W28662   2.660  13.259   3.143 -0.1645 -0.0965 -0.2455
 9809W        W28663   5.768  14.372   0.228 -0.1096 -0.0899 -0.0063
 9810W        W28664  13.089  18.479  12.185  0.3388  0.0285  0.0312
 9811W        W28665   3.834   9.373   1.681  0.1815  0.1936 -0.2353
 9812W        W28666  15.553   0.646   1.256  0.2819  0.0450  0.2009
 9813W        W28667  13.811   5.849  13.617 -0.0238  0.2298 -0.2363
 9814W        W28668   6.938  17.314  11.458 -0.0992  0.2350  0.0832
 9815W        W28669  15.886   1.123   4.538  0.0151 -0.2152  0.3203
 9816W        W28670  17.999  13.567   2.001  0.2408 -0.1509 -0.2652
 9817W        W28671  12.031  17.807   0.065 -0.2397 -0.0548  0.0467
 9818W        W28672  18.835  18.272  10.030 -0.0293 -0.0248  0.0466
 9819W        W28673  17.434  18.874   3.688  0.1700  0.0426  0.1440
 9820W        W28674   7.045  16.882   9.361  0.2324  0.0167 -0.0279
 9821W        W28675   0.821   3.364  10.954  0.3718 -0.2894  0.0955
 9822W        W28676  14.191   0.598  11.780 -0.0795 -0.0009  0.0336
 9823W        W28677   1.370   1.104  12.195  0.1682 -0.0473  0.0691
 9824W        W28678  11.078   2.578   4.418 -0.1684  0.0939 -0.2170
 9825W        W28679  14.972  10.489  12.651  0.1314 -0.1430  0.0727
 9826W        W28680   2.364  15.524   1.949  0.1435 -0.4281 -0.0300
 9827W        W28681   8.339   0.790  11.409 -0.0075  0.1289  0.0027
 9828W        W28682  11.314  16.992  10.631 -0.0994 -0.1571  0.0844
 9829W        W28683   6.761   8.388   0.248 -0.2219 -0.2580  0.0349
 9830W        W28684   8.966   5.772  10.027 -0.1850  0.1160 -0.0748
 9831W        W28685  16.733   2.824  10.659  0.3696  0.1198 -0.0132
 9832W        W28686   6.253   1.734   3.993  0.2117 -0.1601 -0.0144
 9833W        W28687   9.701   2.379  10.405 -0.2150  0.0536  0.2439
 9834W        W28688  10.462  14.298  13.612  0.0464 -0.1011  0.0331
 9835W        W28689  18.815   9.787   2.760  0.4129 -0.2550  0.1264
 9836W        W28690   6.003  15.544   3.254  0.1417  0.0072 -0.0620
 9837W        W28691  10.933  16.573  13.931 -0.2784  0.1794  0.1066
 9838W        W28692   5.668   3.370  12.612  0.1331  0.0884 -0.0310
 9839W        W28693  11.751   3.722  11.605 -0.1482 -0.4058  0.0959
 9840W        W28694   8.391  13.931   3.139 -0.2257 -0.2009  0.3486
 9841W        W28695   4.086  15.488  14.762 -0.1482 -0.2021  0.2594
 9842W        W28696  18.237  15.500  11.910  0.0293 -0.1317  0.1121
 9843W        W28697   8.751  12.004  13.125 -0.1517 -0.0053  0.0003
 9844W        W28698   9.306  16.403  12.978  0.1985 -0.0260  0.2207
 9845W        W28699   3.819   4.840   0.762 -0.0381 -0.3125 -0.0467
 9846W        W28700  12.208  13.342   1.623  0.1000  0.2837  0.1420
 9847W        W28701   9.876  17.328  13.575  0.0346 -0.0659  0.0306
 9848W        W28702   0.353  12.679   3.826 -0.2490  0.3080  0.3374
 9849W        W28703  18.484   1.528   1.691 -0.3031  0.2319 -0.1084
 9850W        W28704  14.222   4.154   1.068 -0.0999  0.1899 -0.0356
 9851W        W28705   7.999  18.808  14.122 -0.1181  0.1621  0.1755
 9852W        W28706  15.008   4.381   0.426  0.0321  0.1934  0.1093
 9853W        W28707  12.439  18.626  11.362  0.0890  0.0280 -0.0403
 9854W        W28708   6.433  15.905  14.593 -0.0040  0.2302  0.2361
 9855W        W28709   0.886   6.688  10.798  0.0934 -0.0878 -0.1258
 9856W        W28710  13.663   9.525   0.859  0.1870 -0.1031  0.2306
 9857W        W28711   1.075  11.257  11.059  0.0471 -0.3771  0.3538
 9858W        W28712  11.238  16.747   3.485 -0.2425  0.1494 -0.2002
 9859W        W28713   7.431  14.682   1.410  0.0713 -0.1733  0.1927
 9860W        W28714  15.037   8.752   2.993 -0.2989 -0.2648 -0.0966
 9861W        W28715  11.450   7.248   3.503 -0.2774 -0.1831 -0.2445
 9862W        W28716  10.712   9.002  10.930 -0.0840 -0.0475 -0.2411
 9863W        W28717  16.924   2.987   1.032 -0.2766 -0.0709  0.0498
 9864W        W28718  10.894   1.771  14.420  0.0511 -0.0543  0.2137
 9865W        W28719  16.044   2.872   0.791  0.3404 -0.1866  0.0377
 9866W        W28720   6.846   4.323  11.257 -0.0080  0.1056 -0.0331
 9867W        W28721  18.891   4.700  11.373 -0.0787  0.0646 -0.1831
 9868W        W28722   8.069  10.781   5.378 -0.1363 -0.0662  0.0566
 9869W        W28723  13.875  16.943   2.525 -0.2549  0.3668  0.1421
 9870W        W28724   0.799   6.759  12.552 -0.0017  0.2296 -0.2087
 9871W        W28725   7.093   5.042  11.894 -0.0650 -0.0416  0.0988
 9872W        W28726  10.025  10.004   0.328 -0.1724 -0.1110  0.2208
 9873W        W28727  12.254   9.665   3.512  0.0023  0.3510  0.0582
 9874W        W28728  16.792   1.715   5.519  0.2131 -0.2058  0.2761
 9875W        W28729  16.495   6.331  12.287  0.2174  0.0416 -0.0522
 9876W        W28730   5.390  13.929   2.590  0.0989 -0.1015  0.0246
 9877W        W28731  12.878  17.674  12.016  0.0794  0.2614 -0.0211
 9878W        W28732  18.694   3.122   0.069 -0.2942  0.1672  0.2248
 9879W        W28733  18.397   8.415  14.306  0.0708  0.2806  0.3017
 9880W        W28734   8.792   2.372   2.490  0.0851  0.4319  0.0360
 9881W        W28735  14.303  10.376  13.462 -0.1597 -0.1442 -0.1157
 9882W        W28736  14.335   5.635   0.111 -0.0469 -0.2061 -0.0215
 9883W        W28737  14.635  13.033   3.820 -0.1510 -0.1635 -0.0350
 9884W        W28738  16.280   4.318  13.395  0.1601 -0.0945  0.0551
 9885W        W28739   0.392  16.797   4.202  0.1541  0.0841 -0.2033
 9886W        W28740  13.354   1.007  11.335  0.3056  0.2134  0.0261
 9887W        W28741   6.543   1.311   3.976 -0.1873  0.0455  0.0994
 9888W        W28742   1.563   1.911   3.305 -0.2793 -0.0080 -0.0866
 9889W        W28743  10.315  12.532   9.984  0.1308 -0.0750 -0.0129
 9890W        W28744   5.122   7.854  13.264  0.1104  0.2900 -0.1746
 9891W        W28745   9.290  13.342  10.447  0.2974 -0.1506 -0.0918
 9892W        W28746   5.883   2.567  14.553 -0.0220 -0.0567 -0.0676
 9893W        W28747   9.600   9.339  11.391 -0.0835 -0.1093 -0.0795
 9894W        W28748   8.626   2.789   3.353  0.1707 -0.1355 -0.0910
 9895W        W28749   8.799   2.108   1.070  0.2809  0.0258  0.2551
 9896W        W28750  18.639   1.384   2.855  0.0570 -0.2325 -0.2480
 9897W        W28751  15.244  13.691   4.377  0.2879 -0.1380 -0.3363
 9898W        W28752   3.606   0.032  13.203 -0.2300 -0.1633 -0.0227
 9899W        W28753  19.050  12.359   5.294  0.1513  0.0495  0.2072
 9900W        W28754   8.332   1.393   1.510  0.1598 -0.3338  0.1362
 9901W        W28755  12.256   8.726  13.296 -0.0815 -0.2568 -0.1136
 9902W        W28756  10.587   5.137   0.746 -0.1101 -0.0850 -0.0344
 9903W        W28757  18.153  14.281  13.773 -0.0869 -0.2043  0.0139
 9904W        W28758   7.531   6.331  11.719 -0.2790  0.2248  0.1039
 9905W        W28759   2.014   1.463   0.087  0.0835 -0.1216  0.5133
 9906W        W28760  18.386   0.802  13.767  0.0331 -0.0869 -0.0173
 9907W        W28761   8.943   5.717   1.439 -0.3093 -0.1468 -0.1306
 9908W        W28762   2.214   7.974  11.324  0.0457 -0.3928  0.2699
 9909W        W28763  12.628   6.919  14.141  0.4969 -0.0831  0.3557
 9910W        W28764  14.789   9.990   3.580 -0.1361  0.1124 -0.2758
 9911W        W28765   6.043   5.442  14.557  0.1578 -0.1006  0.0763
 9912W        W28766   5.986   5.217  11.165 -0.0918  0.3405  0.0127
 9913W        W28767   5.730  16.013  12.558  0.2187 -0.2950 -0.3157
 9914W        W28768  18.983   5.287  13.152 -0.2774  0.0252 -0.1463
 9915W        W28769   3.261  10.018  12.089 -0.0042 -0.2107  0.0057
 9916W        W28770  11.125  11.045   1.745  0.0554 -0.0000  0.1350
 9917W        W28771  18.674   4.311   2.007  0.0817  0.0178 -0.0214
 9918W        W28772   6.799  11.688   0.204 -0.1169 -0.0896 -0.0722
 9919W        W28773  18.416   5.651  14.342  0.2551  0.1299 -0.2523
 9920W        W28774   3.507   4.962  13.555  0.1901  0.0859  0.0159
 9921W        W28775   2.926  13.666  11.824  0.3620 -0.0352  0.1230
 9922W        W28776   9.518  11.937  10.479  0.5992 -0.2455  0.2592
 9923W        W28777   3.607   1.345   0.213 -0.5227 -0.3001  0.1731
 9924W        W28778   9.293   9.920  13.414  0.1598 -0.0561 -0.2973
 9925W        W28779   0.559  19.140   1.505  0.4156  0.3348 -0.1304
 9926W        W28780   1.879   1.439  11.150  0.0213 -0.3499  0.3005
 9927W        W28781  15.352   2.153   0.079  0.2287 -0.1705  0.0647
 9928W        W28782   6.391   2.036   4.904 -0.1510  0.1742  0.2386
 9929W        W28783  15.450   3.976   4.265 -0.1374 -0.2423  0.1323
 9930W        W28784   6.906   1.378  11.541 -0.0646  0.1007  0.1183
 9931W        W28785   6.671  14.991  10.843 -0.1304  0.0363 -0.1723
 9932W        W28786  15.151  13.664  14.773 -0.1802  0.1141  0.2257
 9933W        W28787   3.962   8.193   2.808 -0.1457 -0.0057 -0.3163
 9934W        W28788  13.296  18.853   1.802 -0.1662 -0.0350 -0.0195
 9935W        W28789  14.319  17.329  12.549  0.1741 -0.2292 -0.0442
 9936W        W28790   4.347  14.180  12.383 -0.0888  0.0165  0.0898
 9937W        W28791  11.769   2.936   2.151  0.0175  0.0133  0.4653
 9938W        W28792  11.496  11.846   4.248 -0.4399 -0.0986  0.0994
 9939W        W28793   3.218   1.104  12.532 -0.0351 -0.2973 -0.0219
 9940W        W28794   1.916  16.444   0.377  0.0922  0.1471 -0.0583
 9941W        W28795   0.180  17.909   3.771 -0.0397  0.0004 -0.4177
 9942W        W28796   3.329   2.577   2.227  0.2480  0.4026 -0.3848
 9943W        W28797   0.482   4.112   1.673  0.1340 -0.0897  0.1184
 9944W        W28798  16.585  18.059  12.108  0.0332  0.3661 -0.0117
 9945W        W28799   0.951   4.315  13.080  0.0687 -0.1843 -0.0699
 9946W        W28800  15.766  17.409   0.215  0.1498  0.0818  0.0487
 9947W        W28801   2.256   1.785  14.488  0.0069 -0.0651 -0.1626
 9948W        W28802  12.122   5.427  12.101 -0.2048  0.4673  0.1039
 9949W        W28803   4.322   1.239   2.614 -0.1289  0.0139 -0.2410
 9950W        W28804   9.070  18.510  12.541 -0.0713  0.2985 -0.3140
 9951W        W28805   7.864  15.728  13.163  0.4729 -0.0580 -0.0065
 9952W        W28806  12.453   3.959  14.559 -0.3124  0.0719 -0.2554
 9953W        W28807  10.219  12.243  10.371  0.0181 -0.1182 -0.1835
 9954W        W28808   5.601  18.173   0.348 -0.0820  0.1355  0.0934
 9955W        W28809   2.010   4.497   0.716  0.0999 -0.0098 -0.1004
 9956W        W28810  11.807   8.607   1.774 -0.1368 -0.0036 -0.2782
 9957W        W28811   3.546   9.515   4.603  0.1036  0.4079 -0.0582
 9958W        W28812  14.578  15.983  14.586 -0.2068 -0.3134 -0.1459
 9959W        W28813  16.145   7.071  13.635 -0.2907 -0.0990  0.1233
 9960W        W28814   5.729   0.690  14.763  0.2460  0.1370 -0.0246
 9961W        W28815   7.346   6.398   1.745 -0.1237 -0.0425  0.1506
 9962W        W28816  12.318  16.769  14.573  0.1313  0.2402 -0.0831
 9963W        W28817   8.383  12.915   0.742  0.0389 -0.0274  0.1091
 9964W        W28818   4.493  11.386  12.922 -0.0514 -0.2879  0.3651
 9965W        W28819  16.348   1.681  11.077 -0.0758 -0.3664 -0.3051
 9966W        W28820  18.357   2.821  11.576 -0.0475  0.3293  0.0891
 9967W        W28821   0.218   0.487  12.845  0.0193 -0.2192 -0.2184
 9968W        W28822  15.830   3.190  13.985  0.1770  0.1294  0.0361
 9969W        W28823   1.828  13.079  14.772  0.3336  0.5584 -0.0254
 9970W        W28824   8.165   1.787  10.738  0.2299 -0.0957  0.5693
 9971W        W28825  17.121   8.845  14.064  0.0993 -0.3320 -0.1166
 9972W        W28826   8.716   5.129  12.464 -0.1557 -0.0607  0.0392
 9973W        W28827  14.717  16.973  12.530  0.0680  0.1030  0.0052
 9974W        W28828  15.461   8.723   4.259 -0.0178  0.0848  0.0414
 9975W        W28829   9.517   6.353  14.744  0.1241  0.2361  0.0775
 9976W        W28830  10.871   2.076   3.004  0.1275 -0.1101  0.3385
 9977W        W28831  14.054  17.621   1.774 -0.2195  0.0992  0.1242
 9978W        W28832   3.912   5.993  11.973  0.1092 -0.0477 -0.2371
 9979W        W28833   3.229   1.799   1.335  0.3225  0.6063 -0.0891
 9980W        W28834   7.491   0.394   2.227 -0.1003  0.2445 -0.2070
 9981W        W28835  12.821   0.162   0.102  0.3480  0.1300  0.0707
 9982W        W28836  10.313   2.440   4.038 -0.0107  0.0807 -0.1078
 9983W        W28837  15.567   1.305   2.626  0.0984 -0.2938  0.3195
 9984W        W28838   7.944  14.741   1.133 -0.4842 -0.1173  0.0454
 9985W        W28839   9.307   4.341   2.050 -0.2120  0.1935 -0.1183
 9986W        W28840   5.051   6.313   3.937  0.0757  0.3600  0.1786
 9987W        W28841  12.101   1.821  13.550  0.1820 -0.0021 -0.1364
 9988W        W28842   5.237  11.889   3.579 -0.0375  0.3466  0.1267
 9989W        W28843  13.350   5.182   1.814  0.0051 -0.1193 -0.1254
 9990W        W28844   8.762  15.209   0.467 -0.1059  0.1190 -0.0183
 9991W        W28845   3.074   6.098  14.705 -0.0202  0.1001 -0.1026
 9992W        W28846   9.768   3.406  12.282 -0.1758 -0.1412 -0.2429
 9993W        W28847  17.931   2.519  12.368  0.1687  0.3009  0.1298
 9994W        W28848   7.546   3.914   4.081 -0.3176 -0.4088 -0.2054
 9995W        W28849   0.211   9.712  14.591  0.1700  0.1541  0.1546
 9996W        W28850   0.484  12.487  11.536  0.2781  0.4898 -0.0037
 9997W        W28851   5.205  18.231   1.326 -0.3766 -0.1741 -0.0634
 9998W        W28852  18.192   7.036  13.813 -0.1290  0.3740 -0.1984
 9999W        W28853  12.531   5.014   3.902  0.1325  0.1259 -0.1173
10000W        W28854  12.400  10.241   9.834 -0.1491  0.0278  0.1816
10001W        W28855  10.594  11.434  12.611 -0.1982 -0.1506  0.0149
10002W        W28856   4.857   0.753  12.591 -0.1891 -0.5389  0.0700
10003W        W28857  14.074  14.633  14.743 -0.1794 -0.2487  0.2463
10004W        W28858  18.374  17.181   0.238  0.0059  0.0956  0.4502
10005W        W28859  15.101  14.634   4.340 -0.0831  0.1644  0.0121
10006W        W28860  18.326  18.265   1.076  0.4276 -0.0081  0.0976
10007W        W28861   8.686  16.112  11.509  0.0179 -0.0108  0.1714
10008W        W28862  13.489  12.519  14.368  0.1411 -0.0681  0.0417
10009W        W28863   5.530   0.508   3.487 -0.1662 -0.0251 -0.1247
10010W        W28864   3.923  15.456  10.672  0.0725 -0.1540  0.1489
10011W        W28865  11.270   3.286   0.949 -0.2378 -0.2457 -0.1561
10012W        W28866   5.760  15.685  12.154 -0.3574 -0.0506  0.0271
10013W        W28867   1.706   2.188  11.558 -0.0881  0.1373 -0.0766
10014W        W28868   7.345  12.525   4.318 -0.2231  0.2506 -0.6148
10015W        W28869  13.962   8.110   3.963  0.1220  0.0907 -0.1121
10016W        W28870  14.579  12.680  10.944 -0.0741 -0.1165  0.3057
10017W        W28871  14.828   9.806   2.258  0.1630  0.0770  0.1907
10018W        W28872  18.134   4.075   2.282  0.2215  0.0733  0.0488
10019W        W28873   9.987  17.497  12.899  0.2562 -0.2602 -0.1361
10020W        W28874   4.723   0.892   3.340 -0.1666 -0.2110  0.0098
10021W        W28875   9.172  13.203  14.308 -0.0817 -0.1187  0.4284
10022W        W28876   5.323  10.777  13.373 -0.0384 -0.0461  0.0514
10023W        W28877  18.996   9.908   0.087 -0.1021  0.2598 -0.1004
10024W        W28878   4.443  13.364   3.679  0.0471 -0.0265 -0.0603
10025W        W28879  17.981  15.074   9.996 -0.1826  0.0042  0.1464
10026W        W28880  15.126   2.014  10.224 -0.1059 -0.0641 -0.2059
10027W        W28881   3.222  11.604  13.703  0.1748  0.3658 -0.0185
10028W        W28882  17.912  12.333  11.761  0.1564  0.1262  0.1601
10029W        W28883  17.216   9.997   3.126 -0.1281  0.0605 -0.0131
10030W        W28884  18.135   6.195  14.741  0.1461  0.2714  0.1085
10031W        W28885   1.600  17.909  13.510 -0.1551  0.1998  0.0943
10032W        W28886   2.829   8.460  12.940  0.1686 -0.0424  0.2207
10033W        W28887  17.485  13.350  14.490 -0.0670  0.0789 -0.0100
10034W        W28888  15.730  14.550  10.591 -0.1807 -0.2471  0.2850
10035W        W28889   2.526  10.258  10.895  0.1638 -0.2006  0.1051
10036W        W28890  14.804  10.525   1.320 -0.1385 -0.2348  0.0302
10037W        W28891   4.139  17.706  12.627  0.0834  0.1175 -0.0566
10038W        W28892  18.954   7.087  11.376  0.4244  0.4511 -0.0679
10039W        W28893  17.293  17.974   4.141 -0.2089  0.1812  0.0601
10040W        W28894  14.002   8.948   2.067  0.1042  0.2501  0.2365
10041W        W28895  13.857  14.748   1.256 -0.0887 -0.0641  0.0632
10042W        W28896  13.784  11.587   4.933  0.1802 -0.1658  0.0719
10043W        W28897   7.069  12.493   5.033 -0.4306  0.0973  0.1493
10044W        W28898   3.274   3.255  14.760 -0.0015 -0.0656  0.0493
10045W        W28899   9.076  10.034  10.789  0.4230  0.2251  0.1270
10046W        W28900   1.176   0.989  10.681  0.0620  0.0269 -0.0623
10047W        W28901   9.532  18.253   2.704  0.2577 -0.0416 -0.0163
10048W        W28902  18.157  15.187  14.760  0.0291  0.3866  0.0518
10049W        W28903  13.298   8.388  12.955 -0.4739  0.0545  0.2358
10050W        W28904   4.672  14.937  14.130  0.0431 -0.0542 -0.0058
10051W        W28905   0.644   6.421  13.286  0.1377  0.1204 -0.0273
10052W        W28906   0.331   1.712   1.589  0.0278 -0.1691 -0.2568
10053W        W28907   1.158  15.696  11.111 -0.0692  0.3276  0.0867
10054W        W28908  14.106   4.482  14.690  0.2018  0.2698 -0.1400
10055W        W28909   0.094   4.019   1.365 -0.1775 -0.2393 -0.0645
10056W        W28910  14.841   3.666  14.217 -0.0386  0.4245 -0.3633
10057W        W28911  15.063   3.106  10.219 -0.1255 -0.0795 -0.3839
10058W        W28912  17.696   6.164   4.545 -0.2686 -0.2127 -0.2220
10059W        W28913  18.628   1.179  14.195  0.1587 -0.0641  0.1238
10060W        W28914   9.694   9.341  12.908 -0.2126  0.1807  0.0553
10061W        W28915  17.024   6.139   4.159 -0.0687  0.2196 -0.2836
10062W        W28916  14.932   8.955  13.547  0.1969 -0.0137 -0.4693
10063W        W28917  10.646  15.051  12.503  0.1320  0.0591  0.1266
10064W        W28918   4.240   6.773  14.206 -0.0099 -0.1242 -0.1928
10065W        W28919   0.026  11.377  12.960 -0.1307  0.1238 -0.0170
10066W        W28920   7.346  14.755   9.156 -0.2677  0.2466  0.4073
10067W        W28921  13.884  15.352  11.730 -0.1075 -0.1714 -0.0396
10068W        W28922   6.628   9.774   4.617 -0.0811  0.1133  0.1731
10069W        W28923  17.691  11.845   1.534 -0.3084 -0.1022  0.0361
10070W        W28924  14.321   8.334  13.968  0.0348 -0.0235 -0.3613
10071W        W28925   7.033  10.514   4.124 -0.0036 -0.0738 -0.0921
10072W        W28926   1.232  15.265  13.913 -0.2330 -0.0846  0.1813
10073W        W28927  13.084  19.052  13.899 -0.2927 -0.5947 -0.2169
10074W        W28928  14.153  17.542   3.722 -0.2506  0.0750  0.0352
10075W        W28929  10.877  15.303   2.341  0.3187  0.1396  0.0373
10076W        W28930   8.510   7.127   3.958  0.1534  0.0765  0.1859
10077W        W28931  15.018  11.806   0.415 -0.0719  0.1092  0.0398
10078W        W28932  12.403  13.286  14.035  0.3446 -0.1748  0.1657
10079W        W28933  10.173   2.972   1.674  0.0311  0.1001  0.0929
10080W        W28934  11.482   8.131   0.862 -0.3047 -0.1518  0.0773
10081W        W28935  12.847   9.805  11.742 -0.0278  0.2910 -0.2958
10082W        W28936   9.332  16.847   1.119 -0.1958  0.1463  0.1736
10083W        W28937   6.793  18.435   0.319  0.0363  0.0064  0.0096
10084W        W28938  18.095  15.898  13.995 -0.2120 -0.0233 -0.1204
10085W        W28939   4.881   7.116   2.522  0.1129  0.1297 -0.1682
10086W        W28940  18.676  17.616   1.601  0.0278  0.0614  0.0681
10087W        W28941   2.400  10.613   2.724  0.1417  0.1906  0.3672
10088W        W28942   6.757  16.883   0.687  0.0200 -0.0784 -0.3025
10089W        W28943   1.072   6.374   2.669  0.2422 -0.3295  0.0532
10090W        W28944   5.561  16.791  11.706  0.2496 -0.2986 -0.1434
10091W        W28945   7.633  10.027  12.812 -0.3213  0.0101  0.3770
10092W        W28946   6.827   5.188  10.986 -0.2763  0.2696  0.2372
10093W        W28947   0.462  16.322  14.690  0.2135 -0.0534 -0.1401
10094W        W28948   8.511   9.025  14.545 -0.0584  0.2052  0.1834
10095W        W28949   8.668  10.782  13.247  0.0737 -0.2593 -0.1670
10096W        W28950  18.063  17.362  14.664 -0.2415 -0.1404 -0.1702
10097W        W28951   1.321   5.014  10.489  0.5202  0.0120  0.3777
10098W        W28952  11.159   6.086  14.759  0.0181 -0.1592 -0.3417
10099W        W28953   9.538  18.577  12.270  0.1569 -0.1025 -0.0600
10100W        W28954   6.533   2.431   1.426  0.5224 -0.2116 -0.1597
10101W        W28955  12.763   5.062  11.669 -0.1986 -0.0156  0.3794
10102W        W28956   4.707   9.791  13.541  0.2222 -0.0130 -0.0716
10103W        W28957  12.052   6.335   4.274  0.1607  0.0731  0.0388
10104W        W28958  12.217   7.088  11.170 -0.1858 -0.1414 -0.0479
10105W        W28959   1.749  12.346   0.432  0.0242  0.1986 -0.2214
10106W        W28960   8.978   7.413   2.139  0.2201  0.1128  0.1986
10107W        W28961  15.462  10.242   3.003  0.1296  0.0796  0.1040
10108W        W28962  11.572  14.758   0.059 -0.0017 -0.0881  0.0595
10109W        W28963   1.174  11.914   0.163 -0.2136  0.3050 -0.1126
10110W        W28964   3.019   0.022  12.886 -0.1300  0.2602  0.0404
10111W        W28965  11.108   2.952   0.502  0.0604 -0.0044  0.1373
10112W        W28966   0.091  11.806  13.389 -0.0015 -0.1433  0.2089
10113W        W28967   0.860  16.356   2.729  0.1267  0.1647  0.1441
10114W        W28968  13.696  10.513   1.955 -0.1621 -0.0931  0.0310
10115W        W28969  12.702   1.812   1.735  0.0150  0.2986  0.0177
10116W        W28970   0.776  12.328   3.534  0.2459  0.0948 -0.1069
10117W        W28971   0.502  11.124  11.896  0.1964  0.5344 -0.0030
10118W        W28972   0.899  12.951  11.187  0.1268  0.3243  0.3680
10119W        W28973  18.681   8.746  11.580 -0.1530 -0.0512  0.1762
10120W        W28974   2.116   1.234   1.707  0.0972 -0.1736  0.0141
10121W        W28975   7.376   4.098   1.536  0.1985 -0.1971  0.3429
10122W        W28976  18.504   2.299   0.492 -0.0353  0.1786 -0.1027
10123W        W28977  12.937  19.058   2.157 -0.2523 -0.0444  0.2410
10124W        W28978   3.628  13.280  11.278  0.0227  0.1173  0.0161
10125W        W28979  18.530   6.987   3.812 -0.0196 -0.0250  0.0027
10126W        W28980   4.044  14.525  11.019  0.0922  0.0151 -0.0250
10127W        W28981   4.237   4.603   1.967  0.0678  0.0453  0.1179
10128W        W28982   7.977   8.544   3.152 -0.0287 -0.0344 -0.3207
10129W        W28983  14.505   4.150  12.920 -0.1235 -0.0343 -0.0843
10130W        W28984   6.393  19.030  12.349  0.1539 -0.0033  0.0262
10131W        W28985   3.160   4.962   3.264  0.3410  0.0313  0.0941
10132W        W28986   5.568   7.947   3.183  0.4143 -0.1353 -0.0064
10133W        W28987   1.776   8.628  10.938  0.1881 -0.3134  0.0911
10134W        W28988   0.417   1.306   0.213 -0.2609 -0.1376 -0.1166
10135W        W28989  15.935   8.586   3.174  0.1473 -0.0766  0.0089
10136W        W28990   2.060   0.829   2.981 -0.2090  0.0620  0.0923
10137W        W28991   2.819  18.414   3.533  0.0291  0.0855 -0.0102
10138W        W28992  14.331   3.134   1.965  0.1771  0.1856 -0.1307
10139W        W28993   1.926   3.538   2.678  0.1722 -0.0125  0.0780
10140W        W28994  11.230  19.133   3.405  0.1789 -0.0295  0.0305
10141W        W28995  16.196   7.219  12.348  0.1340 -0.5827  0.1638
10142W        W28996   3.109   2.723  10.887  0.0987  0.0236  0.1037
10143W        W28997  12.919   1.691   3.961  0.1767 -0.0619 -0.0818
10144W        W28998   1.434  14.974  11.787 -0.3151  0.0610 -0.2721
10145W        W28999   0.735  11.404  13.559  0.0287  0.4232 -0.1789
10146W        W29000  16.811   9.128   0.650 -0.1381 -0.0363 -0.0406
10147W        W29001  19.073  17.813   3.379  0.1891 -0.1010 -0.4740
10148W        W29002  14.724  16.017  13.816  0.1613  0.0275  0.0433
10149W        W29003  18.404   1.087   0.427  0.0050  0.3427 -0.0324
10150W        W29004   3.395  12.304  14.502  0.1667 -0.0377  0.0590
10151W        W29005  12.312  18.667  11.882  0.1785 -0.0881 -0.2136
10152W        W29006   6.365  11.920  13.291 -0.1722  0.3599 -0.2797
10153W        W29007  17.733  13.286   2.478 -0.0044 -0.0368  0.0080
10154W        W29008  12.608  15.149  14.729 -0.0066  0.1515  0.2660
10155W        W29009   7.520  14.715   3.036  0.1604  0.1112  0.0281
10156W        W29010  11.233  17.277  13.338  0.2574  0.1475 -0.0027
10157W        W29011   7.931  10.477   3.971  0.1028  0.1266 -0.0914
10158W        W29012  18.121   0.238  11.519 -0.0290 -0.0604  0.0192
10159W        W29013   6.934  13.848   3.968  0.1599  0.2292 -0.2345
10160W        W29014  17.739  15.875  13.616  0.1811  0.3107 -0.0793
10161W        W29015   8.580   5.892   1.120  0.1304 -0.2036 -0.0260
10162W        W29016  12.659  14.034  11.621 -0.2657 -0.1454 -0.1074
10163W        W29017  11.647   1.752  12.686 -0.1083 -0.0020  0.0949
10164W        W29018  12.495  15.513   3.478  0.3986 -0.2027  0.1069
10165W        W29019   6.893   4.891   2.554 -0.0997  0.0750 -0.0834
10166W        W29020  10.051   1.361  10.800 -0.0916 -0.2632  0.1548
10167W        W29021   5.341  16.850  10.355  0.2883  0.0337  0.1091
10168W        W29022  11.193  15.878  14.103 -0.0923 -0.0580 -0.1371
10169W        W29023  13.656  15.878   4.857  0.0305 -0.0860  0.0177
10170W        W29024   9.064  10.054  12.362  0.1414 -0.2367 -0.1104
10171W        W29025  10.603   9.335  14.160  0.0350 -0.0354 -0.0185
10172W        W29026  12.631  11.447  10.946 -0.0286  0.1164  0.1747
10173W        W29027   1.813  13.133   2.059 -0.0999 -0.1015 -0.3791
10174W        W29028  18.277   4.838   0.148  0.1107 -0.0946  0.5627
10175W        W29029  15.508   0.186  13.077 -0.2347  0.0244 -0.3074
10176W        W29030   7.604   2.038   0.560 -0.0975 -0.1418  0.0094
10177W        W29031   3.606   3.206  13.116  0.0492 -0.1305  0.0158
10178W        W29032   4.543   5.058  14.327 -0.0013  0.1280 -0.0986
10179W        W29033  16.831  14.588  11.614 -0.2291 -0.1686 -0.3147
10180W        W29034  18.756   8.082  14.659 -0.0332  0.1266 -0.1324
10181W        W29035  16.066  15.486  12.048 -0.0816  0.0107  0.0614
10182W        W29036  15.301   5.341  12.472  0.0532  0.1225 -0.0533
10183W        W29037  15.644   3.191   0.475  0.1376 -0.4235 -0.2004
10184W        W29038   1.764   9.829   2.279  0.0988  0.1239 -0.0933
10185W        W29039   4.392   0.512  10.886  0.0033 -0.0763  0.1805
10186W        W29040  13.883  10.002   3.302 -0.2650 -0.0002  0.1647
10187W        W29041  18.616   1.221   1.337 -0.3407  0.3299 -0.1647
10188W        W29042   8.766  18.580  11.228  0.2773 -0.0605 -0.1006
10189W        W29043  10.170  15.584   0.914 -0.4014  0.0667  0.2280
10190W        W29044   5.211  12.524   4.555 -0.2471  0.0879  0.0465
10191W        W29045  15.570   7.935   0.527 -0.2608  0.6693  0.0020
10192W        W29046   5.324  17.701  11.730  0.0845 -0.1391  0.2429
10193W        W29047   1.041  14.684   3.679 -0.1907 -0.2234  0.3075
10194W        W29048   7.184  18.126  11.730 -0.1638  0.4968 -0.1847
10195W        W29049   4.094  13.853  13.332  0.0467  0.1162 -0.0262
10196W        W29050  17.770   2.174   3.311 -0.1602  0.2175 -0.1383
10197W        W29051   9.053   5.228   1.610  0.0168 -0.2442 -0.2379
10198W        W29052  15.862   2.216   3.182 -0.0167 -0.0038 -0.1419
10199W        W29053   3.837   0.391   1.775 -0.1022  0.0479 -0.1452
10200W        W29054  10.062  10.162   2.378  0.1209 -0.2119 -0.4889
10201W        W29055  10.266   2.565   1.438 -0.1509  0.1892 -0.0288
10202W        W29056   5.386   3.666   0.171 -0.1079 -0.0664  0.0124
10203W        W29057  10.630  13.335  11.082 -0.0994 -0.1043  0.4121
10204W        W29058   5.233   2.483   1.925  0.2724  0.0105  0.2363
10205W        W29059  18.192  15.439   4.084 -0.2646 -0.0838  0.1759
10206W        W29060   2.823  17.239   0.460  0.3542 -0.1998  0.1203
10207W        W29061  16.038   5.631  13.853 -0.0243  0.3198 -0.1447
10208W        W29062  17.994   3.903   4.556  0.1102 -0.0036 -0.1503
10209W        W29063   9.763  10.959   2.038 -0.2138 -0.2534  0.0019
10210W        W29064  16.303   3.453  11.054  0.0268  0.4775 -0.0983
10211W        W29065   8.022   7.283  13.834 -0.0627  0.2553  0.0340
10212W        W29066   3.915  11.803   4.181 -0.0201 -0.1607 -0.2013
10213W        W29067   4.685  18.010   1.390 -0.0737  0.1542 -0.3605
10214W        W29068   7.256  12.179   3.955 -0.0881 -0.0941 -0.2568
10215W        W29069   5.269  13.639   0.011 -0.0218 -0.1512  0.2654
10216W        W29070  12.574   5.782   2.236  0.0651 -0.1543  0.1470
10217W        W29071  17.026   1.842  12.375 -0.1660  0.0421 -0.1387
10218W        W29072   8.779   3.032  13.454  0.0715 -0.3137  0.2351
10219W        W29073   9.384   2.831  14.521  0.0610  0.0822 -0.1956
10220W        W29074   6.196  12.707   1.502  0.0969 -0.4596  0.1104
10221W        W29075   0.471  13.384   2.536  0.0866  0.1809 -0.2797
10222W        W29076   3.260  17.591  10.910 -0.2070  0.2172 -0.1296
10223W        W29077  15.010  12.768   3.116 -0.1468 -0.0605 -0.2054
10224W        W29078  17.062   6.077   2.068 -0.2157 -0.0930  0.2877
10225W        W29079   3.550   5.176   1.125  0.0802 -0.0621  0.1525
10226W        W29080  12.632  15.730   0.488 -0.3493  0.2497 -0.0031
10227W        W29081   3.474  17.100   0.004  0.0354  0.1178 -0.2788
10228W        W29082   9.949  18.446   3.097  0.0246  0.2192 -0.1124
10229W        W29083  18.479   5.469  12.033 -0.3259  0.0865  0.0202
10230W        W29084  18.488  12.654  13.208 -0.0820 -0.0818  0.0785
10231W        W29085   5.957   2.616  13.414 -0.1351  0.0901  0.2205
10232W        W29086   0.720  14.930   2.431 -0.0262 -0.2685  0.1340
10233W        W29087   6.740   2.130   9.712 -0.1242 -0.2789 -0.0756
10234W        W29088   4.714   1.407   2.317 -0.1969  0.2430  0.0920
10235W        W29089   3.721   1.949  11.776 -0.3055 -0.3813  0.0796
10236W        W29090   8.539   3.487   2.621 -0.1634  0.0394 -0.0728
10237W        W29091  16.255  18.927  10.425  0.1557 -0.1292 -0.2767
10238W        W29092  15.533  10.931  14.061 -0.1696 -0.0936  0.3922
10239W        W29093  17.408  10.568  11.321 -0.1090 -0.1427 -0.1943
10240W        W29094   8.653  16.199  11.024 -0.0812 -0.4468 -0.1851
10241W        W29095   4.671  18.143   0.467  0.0658 -0.1713 -0.0160
10242W        W29096   3.781  15.405  12.779 -0.0614 -0.0169  0.0255
10243W        W29097   2.721   4.019  13.766  0.0146 -0.0159 -0.3347
10244W        W29098  18.516  11.379   3.660  0.1891 -0.0033 -0.1840
10245W        W29099  10.104  16.004   3.646  0.3373 -0.1406 -0.2726
10246W        W29100   1.395   4.906   2.859 -0.2284  0.1468  0.2710
10247W        W29101  11.399   7.077  14.544 -0.1717  0.1525  0.2037
10248W        W29102   3.848  15.172   0.279 -0.1768  0.0773  0.2025
10249W        W29103   9.152  18.766   2.502 -0.1238 -0.0461 -0.1067
10250W        W29104   3.639  10.487   4.106  0.1266  0.0338 -0.0629
10251W        W29105  15.038  11.923  11.776 -0.1006  0.2819 -0.2786
10252W        W29106  13.254   9.066   3.167  0.0422  0.0458 -0.1244
10253W        W29107   0.150  10.252  14.449 -0.3401 -0.3530  0.1489
10254W        W29108  17.713   9.714   3.530 -0.0507  0.3268 -0.0317
10255W        W29109   1.265   7.799   2.518 -0.1614  0.3551  0.0274
10256W        W29110  16.059  18.294   9.952 -0.2522  0.0930 -0.1131
10257W        W29111   1.401   8.327  10.793  0.0400 -0.0578 -0.0898
10258W        W29112   3.939  19.105  11.814 -0.1291  0.0191  0.0051
10259W        W29113   5.719  13.033  11.118 -0.3074  0.1012 -0.0261
10260W        W29114   0.524  10.989   3.805  0.3124  0.1298 -0.0802
10261W        W29115  16.294   3.981  10.341 -0.1856  0.2318 -0.1956
10262W        W29116  12.845  15.758   2.343 -0.0228  0.5221 -0.0353
10263W        W29117  14.721  17.850   9.541  0.2719  0.5879  0.1804
10264W        W29118   8.548   1.527  13.623  0.0832  0.0544  0.2607
10265W        W29119   0.150   3.030  12.147 -0.2296 -0.0705  0.4076
10266W        W29120  16.093  18.157   1.700 -0.1280  0.0173  0.2371
10267W        W29121   3.190   2.805  12.942 -0.0565 -0.1017  0.1853
10268W        W29122  11.118  10.031   1.626 -0.0286  0.0942 -0.0805
10269W        W29123  14.560   4.457   3.682 -0.0234 -0.0382  0.0003
10270W        W29124  17.035  16.434  14.030  0.2945 -0.0537 -0.0659
10271W        W29125  18.825  13.980  11.476  0.0821 -0.1901  0.1729
10272W        W29126   9.504   1.581   3.377 -0.4048 -0.0297 -0.0760
10273W        W29127  18.253   8.613  11.230  0.3171  0.0280 -0.3813
10274W        W29128  12.260  12.400   3.088 -0.0697 -0.3413 -0.0894
10275W        W29129   2.864  15.420  11.496 -0.2454 -0.2221 -0.0887
10276W        W29130  18.507  16.389   3.226  0.0509 -0.3094  0.1927
10277W        W29131  16.922   3.885   3.644  0.1688 -0.1620  0.0249
10278W        W29132  11.373  12.397   4.170  0.0025 -0.0071  0.0731
10279W        W29133  12.427  17.959   0.336 -0.0995 -0.0783 -0.0152
10280W        W29134   2.784  10.878  13.674 -0.0117  0.1471  0.0182
10281W        W29135   1.381   1.786  11.685 -0.0245  0.0919  0.2707
10282W        W29136  18.271   8.032  10.605 -0.2070 -0.1087  0.0154
10283W        W29137   7.355   2.052  14.279 -0.0915  0.0468  0.0756
10284W        W29138   3.976  17.688  11.502 -0.3399  0.2873 -0.2119
10285W        W29139  15.216   9.644   3.000 -0.0546 -0.0467 -0.2266
10286W        W29140  15.976  17.933   0.014  0.0687  0.2681 -0.0655
10287W        W29141  14.150   6.836  13.234  0.0264  0.0414 -0.1748
10288W        W29142  12.639  18.219  14.006  0.0053  0.1874  0.0521
10289W        W29143  18.758  14.705  12.836 -0.0693  0.1587  0.1770
10290W        W29144  14.635   2.056  14.080  0.0865 -0.3750 -0.0015
10291W        W29145   8.672  11.715  10.606  0.3477  0.2429 -0.1217
10292W        W29146   2.533  17.722   0.618  0.1951 -0.1075  0.0135
10293W        W29147  15.074   6.222  14.096  0.0230 -0.0058  0.5211
10294W        W29148  11.146  14.092   0.529  0.2902 -0.0620 -0.0354
10295W        W29149   0.528   4.665  11.131 -0.1590  0.0388 -0.0388
10296W        W29150   8.139  15.941   3.091 -0.1254 -0.2890 -0.2173
10297W        W29151   6.756  14.289   0.906  0.0016  0.0657 -0.1158
10298W        W29152  19.097   9.029   0.821 -0.1479 -0.1324  0.0354
10299W        W29153   8.768   8.753  12.796  0.3631  0.2171  0.0495
10300W        W29154   7.911   9.471   3.735 -0.3529 -0.2488 -0.0753
10301W        W29155  16.818   8.286   0.890  0.0808 -0.1299 -0.3486
10302W        W29156  14.461   7.110   2.620  0.2699  0.0028  0.0315
10303W        W29157   1.520   0.167   0.521 -0.0630 -0.1022 -0.2671
10304W        W29158  10.836   8.806  11.553 -0.0809 -0.2867  0.2371
10305W        W29159  12.496   6.263   3.351  0.0315  0.1188  0.1895
10306W        W29160  12.777  12.500  12.189  0.1619 -0.1255  0.1062
10307W        W29161   2.326  15.776   2.996 -0.0256 -0.2511  0.1932
10308W        W29162   1.730   9.342   0.442 -0.0244  0.1259 -0.1409
10309W        W29163  11.547   3.615   1.380  0.1422  0.0708 -0.1565
10310W        W29164   6.262   7.121   2.426 -0.0406 -0.2702  0.1204
10311W        W29165  10.142   6.039  11.552 -0.0495 -0.2689  0.1964
10312W        W29166   8.551  16.328   2.828  0.3168  0.0379  0.2264
10313W        W29167   8.250  18.229   0.130  0.1223  0.1408 -0.2018
10314W        W29168   2.009   2.818  13.367  0.1310 -0.1449  0.1946
10315W        W29169   0.875   1.486   3.696 -0.0872  0.3003 -0.0152
10316W        W29170  15.386   3.224  13.312 -0.0328 -0.1579  0.0116
10317W        W29171   5.262   0.887  14.645  0.2440  0.1266  0.0156
10318W        W29172   1.245  17.557  12.043 -0.0085  0.1109 -0.0681
10319W        W29173   8.929   8.599   3.196  0.1623  0.0190  0.1523
10320W        W29174   0.571   3.101  14.069 -0.3021  0.0236  0.1610
10321W        W29175  19.016   9.358   0.408 -0.1641 -0.0354 -0.1474
10322W        W29176   3.320  10.736   9.860 -0.0049 -0.1292 -0.1404
10323W        W29177   9.822  17.923   1.280 -0.2239  0.1356 -0.1711
10324W        W29178   1.519   2.203   0.801 -0.3980  0.0510 -0.0849
10325W        W29179  11.461  18.959  12.258 -0.2738  0.0850 -0.2030
10326W        W29180  11.989   8.868   2.923  0.2987 -0.2908  0.2303
10327W        W29181  14.783   7.801   2.435 -0.1175  0.1503  0.2387
10328W        W29182   8.310   5.683   3.097 -0.0970 -0.4889  0.3428
10329W        W29183  13.250   0.565  12.161  0.0105 -0.1317 -0.1995
10330W        W29184   6.085   4.795   2.742 -0.0675  0.0840  0.2352
10331W        W29185  16.125   9.065   3.785 -0.2600 -0.0033 -0.1518
10332W        W29186  17.414   4.043  12.809  0.0584  0.0670  0.2810
10333W        W29187   6.812  19.035  12.689 -0.0443 -0.0210 -0.1686
10334W        W29188  10.516   3.884   2.422 -0.2064  0.3555 -0.0511
10335W        W29189  13.627   7.921   3.658 -0.2514 -0.3171 -0.1014
10336W        W29190   1.868  12.411  12.145 -0.0565  0.1164  0.0502
10337W        W29191  14.671   2.220   3.700 -0.0618  0.4143  0.2533
10338W        W29192  13.703  18.015   0.440 -0.0185  0.2216  0.0682
10339W        W29193  15.423  16.316  13.168  0.0125  0.2551  0.2900
10340W        W29194   5.676  12.413  13.405  0.0030  0.0245 -0.1372
10341W        W29195  14.634  11.596   1.701 -0.2532 -0.0690  0.0238
10342W        W29196  16.181  16.657   0.241  0.1532  0.0029  0.0694
10343W        W29197  11.513   7.329   1.129 -0.1257 -0.2852 -0.0433
10344W        W29198  15.167  19.061   2.420 -0.0527  0.2327  0.1135
10345W        W29199   8.318  16.968  10.423  0.3174  0.2375 -0.0910
10346W        W29200  18.293   2.105   3.318 -0.1333 -0.0619  0.0986
10347W        W29201  11.915   3.355  12.456  0.0797 -0.1495 -0.2103
10348W        W29202   0.705   4.424  12.253  0.0969  0.3518 -0.1871
10349W        W29203  15.443   2.884   0.774 -0.0141  0.2298  0.0262
10350W        W29204   3.806  15.615   2.155  0.1236 -0.1221 -0.4059
10351W        W29205  10.206  12.275   1.934  0.2096  0.1400 -0.2218
10352W        W29206  12.201  12.173   2.127  0.2301  0.0288 -0.0148
10353W        W29207   5.747   1.831   2.005 -0.5613  0.2969  0.0999
10354W        W29208  16.115   5.771  10.061 -0.1807 -0.3766 -0.0593
10355W        W29209  11.551   3.045   1.346  0.2628 -0.0892 -0.0805
10356W        W29210   5.643   7.757   2.725  0.0777 -0.1281  0.3716
10357W        W29211   3.545   1.454   2.053 -0.0992  0.0953  0.0900
10358W        W29212   0.977  17.563  10.677  0.2491  0.3122 -0.0337
10359W        W29213  17.691   5.479  12.732 -0.2860 -0.2178 -0.0708
10360W        W29214   2.506  16.283  12.202 -0.0742  0.0996 -0.1904
10361W        W29215  11.044   8.365   2.673  0.1670  0.0867  0.1234
10362W        W29216  10.035  12.421  11.583 -0.0271  0.2695  0.0521
10363W        W29217   0.020   0.169   0.731  0.1144 -0.0118 -0.0831
10364W        W29218   4.519   2.883  13.360  0.2370 -0.1357  0.0393
10365W        W29219  14.240  10.045  12.497 -0.4071 -0.3117  0.0466
10366W        W29220  18.786  18.463  12.248  0.1389  0.3258  0.2602
10367W        W29221   1.518   0.008  14.756  0.0499  0.2557 -0.2720
10368W        W29222  18.003  17.605  13.092  0.3113 -0.2393 -0.0477
10369W        W29223   3.153   9.425  12.625  0.1384 -0.2051 -0.3282
10370W        W29224   4.923  14.261   0.514  0.0629 -0.0960  0.3033
10371W        W29225  14.224  13.894   3.684 -0.0651 -0.0419  0.1651
10372W        W29226   4.338   4.306  11.758  0.0054  0.0752  0.0373
10373W        W29227  17.773  17.834   4.375 -0.3275  0.0394  0.5311
10374W        W29228  16.902  16.043  12.375 -0.1641 -0.0502 -0.0326
10375W        W29229  11.651   7.191  12.389  0.1092 -0.1799  0.2773
10376W        W29230   9.291   7.466  13.210  0.0419  0.0207 -0.3497
10377W        W29231  12.259  10.288  12.432 -0.1736 -0.0163 -0.0475
10378W        W29232  13.096  16.758   0.495  0.2398  0.3055 -0.3248
10379W        W29233   3.650   2.710   2.728 -0.0000 -0.2882  0.2697
10380W        W29234  12.793  12.184  11.647  0.0298  0.1530 -0.0087
10381W        W29235   4.847  13.912  12.358  0.0610  0.1436 -0.2530
10382W        W29236  11.692   9.911  13.493  0.0779 -0.0143  0.0655
10383W        W29237  15.715  10.538  12.071  0.1499 -0.3612  0.0627
10384W        W29238   5.477  16.283  11.745 -0.1707 -0.1579 -0.0517
10385W        W29239   8.758   1.829  12.927  0.1647  0.1557  0.0717
10386W        W29240  12.650   9.903   3.270  0.0992  0.1167  0.0430
10387W        W29241   1.797  18.132   1.498  0.3881 -0.0144  0.2289
10388W        W29242  15.338   7.184   2.661 -0.1186 -0.0549 -0.0003
10389W        W29243  19.098   1.736   5.318 -0.0609  0.1818 -0.0070
10390W        W29244   0.149  10.372  11.651  0.0289 -0.0853 -0.2853
10391W        W29245   8.263  16.103   0.928 -0.1392 -0.1831  0.1811
10392W        W29246  14.243   8.281   0.810 -0.0991  0.0626 -0.1040
10393W        W29247  15.139  15.108   3.300  0.0671 -0.0184  0.0998
10394W        W29248   3.446  10.033   2.690  0.2646 -0.2049  0.0236
10395W        W29249   6.919   7.856  13.460  0.0368  0.0258 -0.1993
10396W        W29250  17.256   9.115   3.370  0.1358  0.0096  0.1400
10397W        W29251   9.992   0.664  12.623  0.0033 -0.1780 -0.1345
10398W        W29252   8.482   5.605  10.832 -0.1580  0.0811 -0.4167
10399W        W29253  16.653   2.304  11.632  0.0153  0.0518  0.0180
10400W        W29254   6.471   3.025   3.511  0.0983 -0.3423 -0.0557
10401W        W29255  18.937   2.557  12.306  0.0639 -0.2269  0.0970
10402W        W29256  10.353   5.557  11.645  0.1187  0.0167  0.1136
10403W        W29257   9.527   3.770  13.502  0.2457  0.1645  0.2942
10404W        W29258   5.287   7.604  12.035  0.2424  0.1165 -0.1187
10405W        W29259   0.265  15.276  14.607 -0.2571 -0.1098 -0.3662
10406W        W29260   4.257  14.916   2.791 -0.1067 -0.0831 -0.0821
10407W        W29261  18.393   0.766  14.273  0.2393 -0.0255  0.0668
10408W        W29262  17.692  17.051  12.044  0.1037 -0.1835 -0.1100
10409W        W29263  14.800  13.053  11.174 -0.0488 -0.2024  0.1752
10410W        W29264   2.785   2.421  12.940 -0.3556  0.0838 -0.0920
10411W        W29265   4.084   4.461  10.805 -0.1349  0.2127  0.1299
10412W        W29266  16.133   1.569   1.165 -0.0646 -0.0158 -0.0542
10413W        W29267   7.611  13.589   2.659  0.0275  0.2192  0.0282
10414W        W29268   6.857  13.981  12.097  0.4100 -0.0232 -0.0257
10415W        W29269   5.140  17.842   2.905 -0.1660  0.1394 -0.0815
10416W        W29270  11.033  18.370   2.892  0.1221 -0.0284 -0.0969
10417W        W29271   1.724  10.451   1.471  0.1660  0.0201  0.0408
10418W        W29272   4.927   0.671   0.970  0.0490 -0.2190 -0.1566
10419W        W29273  18.840  13.057  14.311  0.0386  0.2182  0.1467
10420W        W29274   0.877   3.923   5.529  0.3494  0.2124 -0.1341
10421W        W29275  17.911  14.636   1.257 -0.1650  0.2817  0.0801
10422W        W29276  11.616   0.622   2.787 -0.0485 -0.2213  0.2488
10423W        W29277   1.179   6.813  13.225 -0.1275 -0.0828  0.1796
10424W        W29278  13.290   7.389   0.154  0.0470 -0.0086 -0.1279
10425W        W29279  12.873  11.894  14.622 -0.0372  0.0692 -0.0322
10426W        W29280   5.317   5.344  12.770  0.0608 -0.2940  0.1313
10427W        W29281   5.407   0.502   1.468 -0.0958 -0.1265 -0.0117
10428W        W29282   6.099   4.358  11.008  0.0544 -0.2229 -0.1902
10429W        W29283   7.031  17.924   1.537  0.0797  0.0473  0.1052
10430W        W29284   4.349   1.733  13.388 -0.1976 -0.1644  0.0586
10431W        W29285  14.830  17.244   1.425  0.1382 -0.0142 -0.3047
10432W        W29286   8.751  10.317  12.693 -0.3194 -0.2702 -0.0723
10433W        W29287   8.123  15.006   0.324 -0.0465  0.2147 -0.0699
10434W        W29288   9.866   5.141   3.482  0.2481  0.2410  0.3656
10435W        W29289   4.495  17.890  12.137 -0.1412 -0.1141  0.0059
10436W        W29290   6.597   0.290  14.048  0.1512  0.0130 -0.1334
10437W        W29291   7.499  16.590   0.167  0.1551 -0.1131 -0.1935
10438W        W29292  13.117   6.403  14.022  0.1514 -0.0653  0.0838
10439W        W29293   5.744  16.600  11.250  0.0131  0.1143 -0.3308
10440W        W29294   9.930   4.094   3.191  0.1244  0.2501  0.3434
10441W        W29295   7.809   7.884   3.680 -0.1128  0.2790  0.3412
10442W        W29296   6.217  13.387  13.446 -0.1524  0.0218 -0.1602
10443W        W29297   6.168   5.137  14.142 -0.0716  0.1078 -0.3462
10444W        W29298  15.896   6.034   2.083  0.3195  0.0468 -0.0206
10445W        W29299   5.277  16.151  12.637 -0.1608 -0.1712  0.0782
10446W        W29300   7.374   9.438  14.155  0.0897 -0.0243  0.1169
10447W        W29301  13.866  10.702  11.009  0.2385  0.0013 -0.2585
10448W        W29302   6.841  16.715  12.007  0.1556 -0.2552  0.0400
10449W        W29303   6.238   2.806   1.170 -0.0171  0.2376  0.2240
10450W        W29304  10.673   5.800  14.221  0.0901  0.1638  0.2460
10451W        W29305   5.719   0.178  14.754 -0.0528 -0.1057 -0.1029
10452W        W29306  17.604   2.064  13.409 -0.2336  0.2651  0.2395
10453W        W29307   2.136  18.031   3.390  0.2781  0.1044 -0.0506
10454W        W29308   6.147  12.548  11.337  0.0262  0.3077 -0.2078
10455W        W29309   2.498  18.890   9.588  0.1095  0.2627  0.5667
10456W        W29310  17.146   1.496  14.007 -0.2892  0.1975  0.4392
10457W        W29311   7.876   7.536  10.947  0.1489 -0.0441  0.2284
10458W        W29312  15.273   8.896  12.692 -0.1695  0.2481  0.0330
10459W        W29313   4.041   2.604   0.299 -0.1485  0.1557 -0.2060
10460W        W29314  11.106   7.601  11.823  0.2244 -0.1422 -0.3130
10461W        W29315   2.941   2.189  11.173 -0.1736 -0.0619 -0.0265
10462W        W29316  18.930  13.263   1.865  0.2825  0.2159 -0.0048
10463W        W29317   9.230  17.862  12.663 -0.5396 -0.4331 -0.0920
10464W        W29318  16.080   3.485   0.692 -0.0759 -0.1733 -0.0546
10465W        W29319   2.979  16.094   0.777 -0.1694  0.0647  0.2246
10466W        W29320  10.857  17.312  14.414 -0.2418  0.0682 -0.0379
10467W        W29321   5.755   6.921   3.774 -0.1903 -0.2202  0.2383
10468W        W29322   8.832  17.822   3.888  0.0991 -0.3220  0.0776
10469W        W29323   1.078  15.762  11.691 -0.3354 -0.0190  0.1248
10470W        W29324   4.186  14.850   4.749 -0.0670  0.1162 -0.0383
10471W        W29325   8.103   8.558  13.503  0.0177 -0.1272 -0.1362
10472W        W29326   7.972   3.593  10.703 -0.4160 -0.2979 -0.1435
10473W        W29327  12.921  12.785  14.540 -0.0707  0.0113  0.1331
10474W        W29328  18.674   6.871   2.187 -0.0727  0.1230 -0.1325
10475W        W29329   2.170  13.709  12.779  0.2183 -0.1519 -0.0409
10476W        W29330   2.523   3.144   1.103 -0.1091 -0.1424  0.1202
10477W        W29331   3.271  12.045   4.459 -0.0407 -0.0056  0.2935
10478W        W29332   8.767   8.488  12.263 -0.0891 -0.0676  0.0580
10479W        W29333   0.782  17.678  14.631 -0.0047  0.0643  0.0984
10480W        W29334   0.548   1.428  10.615 -0.0386  0.0400 -0.0578
10481W        W29335   0.810  10.995   1.007  0.0095  0.0712  0.1549
10482W        W29336  12.769   6.472  14.430 -0.3729 -0.0618  0.1528
10483W        W29337  17.887   5.450  11.333  0.0615  0.0650 -0.0687
10484W        W29338   9.144   1.993   5.111  0.1277 -0.0682  0.2903
10485W        W29339  14.687   3.959  13.419 -0.4075  0.0458  0.1391
10486W        W29340   4.919  15.481   3.507  0.1917 -0.0494 -0.0372
10487W        W29341  11.101  14.296  12.881 -0.2561 -0.0884 -0.1077
10488W        W29342   5.034   8.364  13.528 -0.0896  0.1919 -0.0159
10489W        W29343  11.782   4.986   3.334  0.0952 -0.3496  0.2411
10490W        W29344   1.040   2.438   2.453 -0.1917 -0.0090 -0.1461
10491W        W29345  14.526   0.890   9.370  0.0849  0.4661  0.0596
10492W        W29346  16.153   4.814   2.309  0.2052 -0.1523 -0.0113
10493W        W29347  18.220  14.612   0.736  0.0404  0.3259 -0.0966
10494W        W29348  10.251  14.344  12.244 -0.2969  0.1511  0.1331
10495W        W29349   7.401   5.966  13.645 -0.1969  0.1590 -0.1897
10496W        W29350   1.578   1.058  13.084 -0.0183  0.3111  0.0642
10497W        W29351  15.087   2.940   2.404 -0.0176 -0.1606 -0.1132
10498W        W29352  16.957   4.951   3.989 -0.1036 -0.1808 -0.2139
10499W        W29353  18.898  10.946  12.881  0.1018 -0.1256  0.3930
10500W        W29354  17.953  10.864   2.955  0.1380 -0.0543 -0.1163
10501W        W29355   5.544   7.973   3.745  0.0608  0.0022 -0.0863
10502W        W29356   7.383   8.466  12.804 -0.0339 -0.1943  0.0114
10503W        W29357  13.065   3.015   2.060 -0.0840 -0.0036  0.3052
10504W        W29358  10.222  18.858   2.870 -0.0004  0.0268  0.1551
10505W        W29359   4.805  13.111  11.091  0.2425 -0.0654 -0.4539
10506W        W29360   8.411  18.470  14.416  0.1365  0.0286  0.1101
10507W        W29361  16.733   3.193  10.287  0.2269  0.5479 -0.0387
10508W        W29362   6.372  15.951  11.896 -0.0085 -0.0355  0.2769
10509W        W29363  12.126  17.877  11.369  0.3143  0.1629  0.0355
10510W        W29364   9.364  11.796   1.749 -0.1104  0.0280  0.1389
10511W        W29365  19.148  14.352  12.896  0.1705  0.2018 -0.5921
10512W        W29366   1.437  14.330   3.538 -0.1572 -0.0180  0.3596
10513W        W29367  11.232  13.851  12.522 -0.3663  0.0243  0.1177
10514W        W29368   2.296  12.316  10.487 -0.0233  0.4391  0.4251
10515W        W29369  18.294  11.680   1.239  0.0507  0.0456  0.4080
10516W        W29370   7.761  10.853   1.593  0.2259  0.1216  0.1347
10517W        W29371   2.302   4.413  12.211 -0.0300  0.0163  0.1556
10518W        W29372   3.266  11.923  13.311 -0.0852  0.0524  0.2766
10519W        W29373   7.349  11.518   9.936 -0.2424 -0.0812  0.0137
10520W        W29374   6.675  13.366  13.802  0.1406  0.2330  0.4111
10521W        W29375   9.330  19.092  13.122 -0.1595 -0.0126  0.1333
10522W        W29376   8.877   5.791   3.596  0.0005  0.0101 -0.0087
10523W        W29377  11.475  16.449   0.459  0.1101  0.2027  0.1386
10524W        W29378   6.509   3.608   2.439 -0.2338  0.5272  0.1478
10525W        W29379   5.623  15.725   0.341 -0.2228 -0.4067 -0.2390
10526W        W29380   5.927  18.298  14.198 -0.0859 -0.1139 -0.3581
10527W        W29381   2.137   3.830  11.463  0.0920 -0.0412 -0.0065
10528W        W29382   1.327  17.533  12.535 -0.1410  0.0512 -0.0407
10529W        W29383  10.068   8.678  14.572 -0.2100  0.1390  0.0908
10530W        W29384   8.375   7.433  13.424  0.1282 -0.1026  0.0807
10531W        W29385  11.419  11.494   3.462 -0.0832 -0.2484  0.2309
10532W        W29386  10.692   6.155   3.182 -0.0565  0.2383 -0.2081
10533W        W29387   3.736  12.870   1.645 -0.2129  0.0999 -0.1939
10534W        W29388   3.446   3.319   4.110  0.0618 -0.0352  0.4166
10535W        W29389  17.481  17.987   2.744 -0.3249  0.1550 -0.0635
10536W        W29390   5.459   3.016   4.614 -0.0028  0.1587  0.0413
10537W        W29391   9.601  18.284  13.790  0.0559  0.0125 -0.0189
10538W        W29392  15.341  17.364  13.295  0.2261  0.1063 -0.2436
10539W        W29393   4.072  16.958  11.039 -0.0702  0.1427  0.0984
10540W        W29394  15.608   6.766  13.552  0.1326  0.0699  0.2777
10541W        W29395   7.197  11.598  13.603 -0.1742  0.1241  0.1073
10542W        W29396   1.139   5.539   1.845 -0.2180  0.1179 -0.4075
10543W        W29397   0.131  11.541   1.413 -0.2387 -0.0699  0.3870
10544W        W29398  13.524  18.523   1.375  0.3643  0.0210 -0.0343
10545W        W29399   2.914   6.777  12.288 -0.1801 -0.2124 -0.1189
10546W        W29400   6.092   3.021   2.157 -0.0363  0.0724 -0.2617
10547W        W29401   6.431  12.742   2.408  0.0416  0.2144 -0.0032
10548W        W29402   8.279  15.378  12.538 -0.1550 -0.0541 -0.3893
10549W        W29403   5.047  15.872   3.118 -0.0084 -0.0170  0.0702
10550W        W29404   3.323   9.643   2.964 -0.1329  0.2745  0.0228
10551W        W29405   2.873   5.111   2.758 -0.0732  0.3887 -0.2955
10552W        W29406   5.378   8.200   2.306 -0.0741  0.1941  0.0179
10553W        W29407  14.197   1.132  11.230 -0.1777  0.0365  0.1739
10554W        W29408  10.197   0.264  12.743 -0.0477  0.2265 -0.3774
10555W        W29409  12.086   4.851  14.014 -0.1051  0.0164  0.0976
10556W        W29410  11.021   3.811   2.272  0.2162 -0.0286  0.0491
10557W        W29411   8.782   7.384  12.380 -0.0104  0.0681 -0.0730
10558W        W29412  12.322   3.757   1.138 -0.2715 -0.1583 -0.0905
10559W        W29413  18.966   1.355   1.783 -0.1365 -0.0982 -0.1012
10560W        W29414   2.842  16.923   4.327 -0.3532 -0.1005 -0.1218
10561W        W29415   9.778  12.384  10.642  0.3421  0.2327  0.0457
10562W        W29416   7.128   2.861   2.047 -0.3376 -0.0401  0.2200
10563W        W29417   9.062   8.773  11.889 -0.1374  0.0374 -0.3863
10564W        W29418   1.509   3.642   3.408 -0.0097  0.1873  0.2111
10565W        W29419   2.761   0.876  12.401 -0.0705 -0.2017  0.2832
10566W        W29420  13.783   8.266  14.124  0.0888 -0.0262 -0.1104
10567W        W29421   9.866  18.922   3.701  0.0187 -0.1109  0.1094
10568W        W29422   8.886   0.950   2.158  0.0821 -0.0005 -0.0290
10569W        W29423   6.025  17.608  12.034 -0.0028  0.1625 -0.2540
10570W        W29424  10.241   9.451  10.956 -0.1557 -0.3542 -0.1622
10571W        W29425  17.577  18.876  13.138  0.0342  0.1612  0.1323
10572W        W29426  13.317  12.872  11.409  0.1165 -0.1111 -0.0371
10573W        W29427  11.450   2.277  14.038  0.3369 -0.1720 -0.0731
10574W        W29428   1.917   4.311   2.710 -0.1510 -0.0006  0.2896
10575W        W29429  11.777   7.303  14.245  0.1977 -0.1803  0.0645
10576W        W29430   1.360  12.354   4.302 -0.2557 -0.0442  0.0459
10577W        W29431   9.604  14.012  10.733 -0.1679 -0.1525  0.0557
10578W        W29432   3.309  12.523   1.842 -0.1674 -0.2185 -0.2111
10579W        W29433  16.905  16.899  13.315 -0.1573 -0.3077 -0.3142
10580W        W29434   1.909   7.139   3.380  0.5635 -0.3161  0.0226
10581W        W29435   0.866   6.293   1.209 -0.0857  0.0572  0.0967
10582W        W29436   8.856  15.165  11.143  0.1093  0.0996  0.0140
10583W        W29437   1.453  15.574  11.947  0.1383  0.3357 -0.0833
10584W        W29438   2.478   8.259  12.637 -0.0347  0.0758 -0.2971
10585W        W29439  17.503   1.918  11.870  0.0231 -0.2073  0.3295
10586W        W29440  17.890   2.352   1.255  0.1723  0.1671 -0.1917
10587W        W29441  13.665  13.723   1.310  0.0699  0.1096 -0.0417
10588W        W29442   7.364  15.449   3.724  0.0141 -0.0295  0.3064
10589W        W29443   6.776   4.201   4.924 -0.1015 -0.1487 -0.2419
10590W        W29444   4.266  14.286  13.509  0.0141 -0.2434 -0.1413
10591W        W29445  14.910   9.202   3.000 -0.1505 -0.1808 -0.2044
10592W        W29446   0.136   9.662   4.070 -0.1606  0.1237  0.1389
10593W        W29447  10.853  16.414   3.153 -0.3538 -0.3214 -0.0481
10594W        W29448  16.755  11.789   2.555  0.2526  0.0922 -0.0231
10595W        W29449  10.519   5.614   0.866 -0.0478  0.0675 -0.3634
10596W        W29450   6.461   6.321   1.428 -0.1947  0.1551  0.2536
10597W        W29451   6.470   9.496   3.509 -0.0944 -0.2800  0.0272
10598W        W29452  12.717  11.322  10.452 -0.0490  0.1937 -0.1410
10599W        W29453   8.692   9.235  10.710 -0.1436 -0.0507 -0.1235
10600W        W29454   5.092   0.403   2.790  0.1220  0.0482  0.2203
10601W        W29455   9.670   2.320   9.858  0.1778 -0.3271 -0.0794
10602W        W29456  17.299   9.730  12.643 -0.0285  0.0985 -0.1951
10603W        W29457   7.819  15.813  10.476 -0.3409  0.4088  0.1719
10604W        W29458   8.487  19.131   1.247 -0.3549  0.0350 -0.0753
10605W        W29459   3.418   9.569  12.126  0.3565  0.3697  0.1102
10606W        W29460  15.915  17.584  12.633  0.0008 -0.0426  0.2785
10607W        W29461   2.993   7.334  14.059  0.4083 -0.1907  0.2687
10608W        W29462  11.417  13.356   3.948 -0.3424  0.1290  0.0170
10609W        W29463   3.211  13.761   4.798 -0.0469  0.1473 -0.0425
10610W        W29464   1.242   4.581  14.027  0.0980  0.3463  0.3162
10611W        W29465   7.617  10.894   4.765 -0.0945  0.2846  0.0533
10612W        W29466   0.297  14.550   5.163 -0.3068 -0.2190 -0.0700
10613W        W29467   9.082  11.827  12.549  0.1517  0.1433  0.0218
10614W        W29468   7.369  18.162  10.355  0.0593 -0.0288 -0.2696
10615W        W29469  14.034   8.032  13.574  0.0524 -0.1213  0.1045
10616W        W29470  14.006  12.310  13.520  0.4744 -0.0874  0.0891
10617W        W29471  10.224   6.646  12.265 -0.0823 -0.0139 -0.0272
10618W        W29472  10.349   8.914   2.886  0.0960 -0.3050  0.1214
10619W        W29473  18.634   8.980  11.064  0.3174  0.0213  0.1132
10620W        W29474   6.189  13.462   4.271 -0.1189 -0.1450  0.3087
10621W        W29475   2.849   3.062   0.170 -0.1556  0.0090 -0.0181
10622W        W29476  10.055   4.925   1.499  0.1426  0.0984  0.1953
10623W        W29477  15.787   0.064  13.990  0.2177 -0.1580 -0.0865
10624W        W29478   6.143  15.075  12.548 -0.1435 -0.0302  0.0295
10625W        W29479   5.661   6.835   4.857 -0.0266  0.3046  0.0243
10626W        W29480  15.986  12.618   5.530 -0.2751 -0.0190 -0.1377
10627W        W29481  13.675   1.353   1.207 -0.0382  0.1217 -0.2557
10628W        W29482   9.571   8.363  11.100  0.0321 -0.3908 -0.0284
10629W        W29483  12.271   2.197   2.738  0.0921 -0.2016 -0.0818
10630W        W29484   0.882   7.199  14.668  0.1753  0.3283 -0.0282
10631W        W29485   9.959  15.279   3.595 -0.1586 -0.1124  0.0847
10632W        W29486   5.308   8.678  14.248  0.0544 -0.1093  0.1736
10633W        W29487  12.383  10.696  11.428  0.0305  0.1955  0.0324
10634W        W29488   0.945   8.456   0.862 -0.1377 -0.3118 -0.0745
10635W        W29489  11.497  12.242  11.073  0.0633 -0.1211  0.0250
10636W        W29490   1.047  16.979   0.263 -0.5131  0.2255 -0.0252
10637W        W29491   5.037   1.872   2.572  0.0313 -0.0208 -0.0041
10638W        W29492  14.993   9.440   1.078 -0.1552  0.0805  0.3087
10639W        W29493   1.701   9.799  14.046  0.0335 -0.1382 -0.0080
10640W        W29494   5.013  10.606  11.040  0.1593 -0.1291 -0.0679
10641W        W29495   1.484   5.064  13.189 -0.1425 -0.1638  0.3546
10642W        W29496   1.783  11.762  10.822 -0.0822  0.0498  0.0055
10643W        W29497   0.209   2.095   0.081  0.1308  0.3622  0.2935
10644W        W29498  15.175   8.152  11.955 -0.3892  0.2168  0.1552
10645W        W29499   6.459  10.304  14.605  0.0872  0.0332  0.0666
10646W        W29500  12.364   3.223  12.132 -0.0640 -0.0889  0.0377
10647W        W29501  17.029   2.530   0.886  0.0053  0.1158 -0.2382
10648W        W29502  17.004   2.425   0.388 -0.2311  0.1234  0.0201
10649W        W29503   3.093  14.544  10.450 -0.0169  0.2331 -0.2208
10650W        W29504   7.787   5.893   3.711 -0.2151  0.0805  0.0124
10651W        W29505  17.444  17.519  12.165  0.0414  0.0483  0.2338
10652W        W29506   5.390  13.052  11.466 -0.0643 -0.2221 -0.2213
10653W        W29507  19.093   8.156   1.234 -0.0031  0.1189 -0.0903
10654W        W29508  13.471   5.548  13.045 -0.0254  0.2723 -0.1636
10655W        W29509   3.701   4.784  12.699  0.1662  0.0060  0.0929
10656W        W29510   7.269  15.714  10.648 -0.0104  0.1167  0.1257
10657W        W29511  17.779  17.489   0.310 -0.0646 -0.1187 -0.3345
10658W        W29512  10.432   9.077   0.603 -0.0234  0.1173  0.0697
10659W        W29513   7.939   8.504   1.792  0.0507 -0.0886 -0.1624
10660W        W29514   9.860  14.341   1.141  0.1021 -0.2441 -0.1369
10661W        W29515   7.161   2.012  10.815 -0.0753  0.1553 -0.1664
10662W        W29516  14.526  13.003  13.606  0.0704  0.1281 -0.2089
10663W        W29517   2.373  11.432   4.630  0.0842  0.0899  0.0088
10664W        W29518  10.289   1.834  11.504  0.2302  0.1380  0.2995
10665W        W29519   4.804   4.182  11.472  0.1033  0.3073  0.0536
10666W        W29520   2.344   1.885   1.992  0.0934  0.2674  0.0516
10667W        W29521  15.965  19.088  12.210 -0.1238 -0.3094  0.1607
10668W        W29522   4.403  10.517   2.043  0.1923 -0.0914 -0.0423
10669W        W29523  13.146  15.024  10.634 -0.2077 -0.1371 -0.0751
10670W        W29524   6.144  15.042  14.049  0.1056  0.0871  0.0138
10671W        W29525  13.745   7.418   3.392  0.5778 -0.2394 -0.1512
10672W        W29526   5.713  11.910   3.421 -0.1937 -0.1063  0.1618
10673W        W29527   0.411   1.920  13.406  0.0598 -0.1958 -0.1366
10674W        W29528  15.119  14.785  14.235  0.1963  0.0722  0.2041
10675W        W29529  13.981   2.164  12.207  0.2624 -0.0081  0.0625
10676W        W29530   9.521  12.935   2.837 -0.0787  0.3306 -0.1046
10677W        W29531   9.240  10.171   4.194  0.1028  0.1320  0.2551
10678W        W29532  17.990   6.505   3.202 -0.0855  0.2383  0.0750
10679W        W29533  17.688   8.064  14.445  0.1810  0.1289  0.0240
10680W        W29534  17.628  18.937   1.199 -0.0149 -0.0434 -0.3012
10681W        W29535  11.431   6.598  13.360 -0.1000  0.1506 -0.2723
10682W        W29536  14.205   3.031  11.192 -0.0338  0.0511 -0.2202
10683W        W29537  19.112  16.056  12.909 -0.1374  0.0970  0.0132
10684W        W29538   9.674   2.390  14.737 -0.0174  0.2548  0.1569
10685W        W29539   6.873   3.487  11.583 -0.3108  0.0133  0.2980
10686W        W29540  18.711   8.978   4.106  0.0686 -0.0547  0.1585
10687W        W29541   9.766   0.875   2.111 -0.1905 -0.2089  0.2349
10688W        W29542   7.767  12.780  10.697 -0.1919  0.1305 -0.1153
10689W        W29543  12.592   7.945   2.872 -0.0317  0.1953 -0.0044
10690W        W29544  16.839   6.530   3.616  0.1205  0.1927 -0.0991
10691W        W29545  13.377   1.551  13.808  0.0494 -0.0335 -0.0191
10692W        W29546   4.371   1.447  12.148 -0.2720 -0.0367  0.2149
10693W        W29547  18.590   9.665   2.027 -0.2687  0.2155 -0.0865
10694W        W29548  10.966   4.434   0.781 -0.2240  0.0461  0.1515
10695W        W29549   2.974  12.521   4.234 -0.1647 -0.0762 -0.0002
10696W        W29550   6.678  16.715   2.025 -0.2766 -0.1168 -0.2297
10697W        W29551  11.632   6.292   1.419 -0.0957  0.1253 -0.1160
10698W        W29552   2.553   3.524  13.752  0.1049  0.3302  0.0470
10699W        W29553  14.573   3.790   1.192 -0.0480 -0.1519 -0.0749
10700W        W29554   1.097   8.128   2.831  0.1557 -0.0698  0.3017
10701W        W29555   5.745  10.824  11.770  0.0718  0.0986 -0.0861
10702W        W29556   8.835  15.722   3.639  0.0121  0.1960  0.2002
10703W        W29557   2.662   7.065   2.509  0.0183  0.2896 -0.1434
10704W        W29558  18.217  18.618  13.082 -0.0079 -0.1198  0.0775
10705W        W29559  12.585  11.075  11.251 -0.4128 -0.3341  0.0881
10706W        W29560   7.404  16.935  13.189 -0.0454  0.2439  0.4874
10707W        W29561   2.804  18.641   4.005  0.2006  0.0581  0.0192
10708W        W29562   0.220   0.234  13.301 -0.2569 -0.2540 -0.1503
10709W        W29563   3.744   4.508   1.923  0.0392 -0.1209  0.2005
10710W        W29564  16.116   0.435  13.100  0.3370  0.0857  0.0718
10711W        W29565   6.632  18.580  10.797 -0.2077 -0.0216 -0.1717
10712W        W29566   3.344   2.123   2.003  0.1691 -0.0401  0.1609
10713W        W29567  13.199   4.686  13.658 -0.1080 -0.1801  0.0821
10714W        W29568   4.600   5.879   3.250  0.0982 -0.3565 -0.0392
10715W        W29569  17.635   0.167  10.634  0.0079  0.0091 -0.2139
10716W        W29570  11.050   9.134  11.278  0.0681  0.1266  0.1881
10717W        W29571  14.592   5.319   3.757 -0.1878 -0.3686 -0.2532
10718W        W29572  14.415  15.263  10.971 -0.0754 -0.1236  0.0635
10719W        W29573  11.545  14.232  14.029  0.1369  0.2916 -0.0539
10720W        W29574   8.433  18.256   2.482 -0.1685  0.5411 -0.0413
10721W        W29575  16.084  10.379   3.699  0.1038 -0.2682  0.3063
10722W        W29576  15.722  12.933  11.907  0.1115 -0.1688  0.0183
10723W        W29577  18.790  18.991   0.016  0.1314  0.0484  0.1107
10724W        W29578  11.934   0.685   4.225  0.0601 -0.1965 -0.1529
10725W        W29579  13.204  15.103   1.797 -0.2595  0.2337  0.1504
10726W        W29580  18.740  11.978  13.881  0.0022  0.1996 -0.2299
10727W        W29581  12.321   0.600  14.205 -0.0884  0.0523  0.4169
10728W        W29582  17.429   8.229   0.800 -0.2864 -0.1731  0.1486
10729W        W29583  14.353   8.015   2.125 -0.1120  0.3083  0.1018
10730W        W29584  16.193  13.331  12.947  0.1394  0.1463  0.5840
10731W        W29585   6.482   2.151   3.814  0.0705 -0.0744  0.1708
10732W        W29586   4.566  17.793   2.045 -0.3281  0.1841 -0.0271
10733W        W29587  12.380  18.526  10.029  0.2202 -0.0452  0.0264
10734W        W29588  18.229   1.764  12.138  0.1407 -0.0542 -0.1191
10735W        W29589   2.004  17.571  11.631 -0.2132 -0.0602  0.0445
10736W        W29590  17.867  10.277  11.179  0.4007  0.2657  0.0842
10737W        W29591   7.243  14.843  14.468  0.0556 -0.0721  0.3317
10738W        W29592   0.972   7.932  13.882 -0.1858 -0.0765 -0.1529
10739W        W29593   6.370   0.325  10.638  0.1137  0.4672 -0.1793
10740W        W29594   7.673   8.266   3.980 -0.2986 -0.0970 -0.3195
10741W        W29595   8.529  12.746   3.596  0.1163  0.0977 -0.2038
10742W        W29596   5.410  19.083   2.782 -0.1265  0.1556 -0.1063
10743W        W29597   1.308   0.338  12.474 -0.2073 -0.3769  0.0342
10744W        W29598  13.615  11.281   1.621 -0.0637  0.0588  0.0267
10745W        W29599  17.800   8.180  14.000 -0.1983 -0.0473  0.3313
10746W        W29600   6.954   6.986   5.449 -0.0541 -0.1465 -0.4041
10747W        W29601  16.696   1.291  10.667 -0.0719  0.2753 -0.2782
10748W        W29602  11.523   1.265   0.368  0.0008 -0.4794  0.1820
10749W        W29603  10.514  16.367   0.583 -0.0749 -0.1819 -0.0104
10750W        W29604   4.880   7.918  14.260  0.1899 -0.0149 -0.2026
10751W        W29605  18.703   0.976  14.676  0.1905 -0.0539 -0.0154
10752W        W29606   3.954   4.945  14.537  0.3171 -0.4099  0.0960
10753W        W29607   6.287  14.149   2.872 -0.1118 -0.2649  0.1563
10754W        W29608  12.710  10.281   2.928 -0.3404 -0.2263  0.1430
10755W        W29609  11.108  16.367  11.464  0.2452 -0.0016 -0.1366
10756W        W29610  18.883   8.256   2.904 -0.2879  0.0485 -0.4918
10757W        W29611   4.637   2.507   3.048 -0.1884  0.3655 -0.0952
10758W        W29612   0.584   2.339   4.653  0.1992 -0.0013  0.0349
10759W        W29613   2.340   5.693   2.289 -0.3352 -0.1391  0.1850
10760W        W29614   9.712  19.080  11.332  0.1420  0.0039 -0.1349
10761W        W29615   5.195  12.704   4.992 -0.2659  0.1185  0.1087
10762W        W29616  12.578   7.501  10.723  0.1361 -0.2122  0.0667
10763W        W29617  13.280  12.558  10.949  0.0486  0.0948 -0.0243
10764W        W29618   6.151   5.144  10.425  0.1233 -0.0873  0.1631
10765W        W29619  13.530   1.537  13.330 -0.1058 -0.1747  0.0186
10766W        W29620  15.996  17.930   3.065  0.0108 -0.3224  0.1817
10767W        W29621  17.181  12.201  12.287  0.2354 -0.1976  0.0364
10768W        W29622  15.542   0.769   3.259 -0.1163 -0.0949 -0.0562
10769W        W29623   0.824  17.193   1.225 -0.1167  0.1079 -0.0957
10770W        W29624  16.715   1.668   1.086  0.2005 -0.3660 -0.0000
10771W        W29625   4.123   4.440  13.677 -0.2150  0.0204 -0.2859
10772W        W29626   8.869  18.393  12.035  0.0550  0.2994  0.2609
10773W        W29627  11.832   7.504  13.743  0.1948 -0.0155 -0.2800
10774W        W29628  12.391   1.494   3.821 -0.1575  0.2040  0.2344
10775W        W29629  10.529  14.727  13.819  0.0223 -0.2176  0.1966
10776W        W29630  16.619  15.099   4.576  0.0413  0.6201 -0.2437
10777W        W29631   5.977   3.398  14.532 -0.0396 -0.2038  0.2017
10778W        W29632   2.072   7.443  13.007 -0.1805  0.1108 -0.0271
10779W        W29633  10.634  15.580   3.065 -0.2784 -0.1524 -0.2848
10780W        W29634  16.969  17.198   1.463  0.1075  0.3138  0.3764
10781W        W29635  10.571  17.054  12.342 -0.1514  0.1035 -0.1486
10782W        W29636   0.169   6.184  14.037 -0.0451  0.1598 -0.0164
10783W        W29637   2.311   4.303   1.507 -0.2942 -0.1634  0.0874
10784W        W29638  15.746   8.805   2.049 -0.1381 -0.0195 -0.0863
10785W        W29639  17.288  11.245  12.547 -0.0617 -0.0062  0.0454
10786W        W29640   3.356   2.972  12.249 -0.4638  0.0175 -0.0186
10787W        W29641  10.084  18.275  13.440  0.1598  0.1913 -0.1047
10788W        W29642   8.825  11.106   3.057 -0.1474  0.0867 -0.0081
10789W        W29643  12.472  17.639  11.616 -0.0764  0.2662  0.2911
10790W        W29644  15.389   3.654  14.243  0.0860  0.0095 -0.2965
10791W        W29645   9.597  18.349   1.168 -0.1467 -0.1752  0.1372
10792W        W29646  10.861   3.673   2.775  0.2005 -0.3670  0.1355
10793W        W29647  16.993   5.399   3.521  0.0816  0.0410  0.0068
10794W        W29648  18.714   3.303  10.194 -0.0056 -0.0910 -0.1018
10795W        W29649  13.568  16.865   3.048  0.0760 -0.0554 -0.1230
10796W        W29650   1.551  10.198   3.710 -0.1273 -0.2430 -0.0258
10797W        W29651   5.497  15.464  14.326 -0.2674  0.1213 -0.0243
10798W        W29652  14.011  14.412   0.783 -0.1351 -0.2873 -0.0924
10799W        W29653   0.839  13.771  10.692  0.1130  0.0382  0.2773
10800W        W29654   3.552   3.666   3.296 -0.1207  0.0115  0.2700
10801W        W29655  13.486   3.345   1.813 -0.1970 -0.2571 -0.1608
10802W        W29656  15.782   7.905  13.574 -0.0147  0.0119 -0.0897
10803W        W29657  18.335   4.013   0.949  0.2108 -0.1828  0.0306
10804W        W29658  12.027  12.527  13.794 -0.0503  0.2390 -0.1215
10805W        W29659   8.685   6.560   1.667  0.2707 -0.2593 -0.1644
10806W        W29660   0.852  12.355   4.042  0.3486 -0.3061  0.0885
10807W        W29661  14.595   2.813  13.411 -0.3532 -0.1426  0.1369
10808W        W29662   1.843  13.083  13.679 -0.2290 -0.0510  0.1354
10809W        W29663   8.550  11.562   1.314 -0.0615 -0.1321 -0.1007
10810W        W29664  11.305   8.335   3.155 -0.2007  0.0231  0.0255
10811W        W29665  15.591  17.729  11.234  0.0084 -0.1934  0.2519
10812W        W29666  14.124  12.342   4.402  0.0876  0.1404  0.0146
10813W        W29667   6.763  14.224   0.213  0.0741  0.0354  0.3006
10814W        W29668  13.983  17.266  11.417 -0.1147 -0.1247 -0.0767
10815W        W29669   3.747  10.798   2.557 -0.1015 -0.0391  0.0377
10816W        W29670  12.570   7.124   2.516  0.0955 -0.1823  0.1384
10817W        W29671  12.683  17.485   0.416  0.1824  0.1266 -0.1937
10818W        W29672   8.413  15.459   3.216 -0.3682 -0.1164  0.0349
10819W        W29673  17.204  14.308  13.678  0.4850  0.1752  0.0381
10820W        W29674  18.990  10.618  12.408  0.0933 -0.2947 -0.1335
10821W        W29675  18.527  12.777  10.264 -0.0246 -0.0618 -0.1849
10822W        W29676   3.274  18.695   3.372  0.0157 -0.3521  0.0417
10823W        W29677  18.689  17.457   4.394  0.3172  0.0385 -0.1143
10824W        W29678   2.435   6.798   0.466 -0.0187  0.2333  0.0570
10825W        W29679   7.566  18.491  13.413 -0.1157  0.2588  0.1321
10826W        W29680   9.839   3.210  11.498  0.1585  0.1709 -0.1695
10827W        W29681  18.603  13.052   2.402 -0.1563  0.2245 -0.0864
10828W        W29682   6.959  10.115   4.409 -0.0528  0.1135  0.1075
10829W        W29683  18.509  11.755   3.996 -0.1456 -0.3664 -0.0103
10830W        W29684  12.551  16.601   2.997  0.0570 -0.2994 -0.1415
10831W        W29685   6.522  10.859  11.296 -0.1794 -0.0770 -0.0443
10832W        W29686   8.728  15.505   4.047  0.1820  0.1250  0.0615
10833W        W29687  10.239   9.121  12.696  0.0837 -0.0381  0.2700
10834W        W29688  11.860   0.985  11.077 -0.0380  0.1230  0.1642
10835W        W29689   0.655  10.080  13.719 -0.1138 -0.1667  0.3239
10836W        W29690   3.767  16.089  12.222  0.1677  0.4014 -0.0007
10837W        W29691  11.583   8.526   2.753  0.1402 -0.0186 -0.2077
10838W        W29692   0.234  12.433  10.669 -0.2970 -0.3606  0.1194
10839W        W29693  14.693   8.583   3.725 -0.2048  0.0353 -0.2356
10840W        W29694   1.737   9.746   4.095 -0.2044  0.2351  0.1207
10841W        W29695   3.783   7.278  12.605  0.3634  0.3787 -0.1308
10842W        W29696   4.038  18.073  14.167 -0.0525 -0.1326 -0.1702
10843W        W29697   1.185  13.063   1.506 -0.2616  0.1635  0.2727
10844W        W29698   3.548  13.290  10.308 -0.1045 -0.2237  0.1705
10845W        W29699   3.202   8.154  13.308  0.2197  0.1408 -0.0434
10846W        W29700  17.018  18.261   0.702  0.1547 -0.0083  0.1395
10847W        W29701   2.850   0.479  10.680  0.1708 -0.2525  0.0364
10848W        W29702   4.111   8.502  13.214  0.3841  0.0694 -0.0232
10849W        W29703   4.572   7.608   0.283 -0.0869 -0.2980 -0.1649
10850W        W29704   9.355  13.193  13.056  0.0338 -0.1100 -0.0725
10851W        W29705  13.450   2.456  14.439 -0.1201  0.2197 -0.2586
10852W        W29706   2.936   2.146   2.941 -0.0817  0.1432 -0.0239
10853W        W29707   2.314  13.110  12.156 -0.1868  0.0105  0.1659
10854W        W29708  11.203   7.860   3.326 -0.0179  0.2330 -0.1440
10855W        W29709  13.818  10.441  11.986  0.0126 -0.1192  0.0203
10856W        W29710   2.671  18.890  13.196 -0.2063 -0.1089 -0.0676
10857W        W29711   8.603  16.610   2.432  0.1343  0.0613 -0.2154
10858W        W29712  14.864   6.239  11.833  0.0055  0.0895  0.4109
10859W        W29713   7.541  13.230  12.480 -0.0322 -0.1078 -0.1154
10860W        W29714   2.937   1.853  13.798  0.4766 -0.3982  0.0844
10861W        W29715   3.354  18.722   1.687  0.0631 -0.0048  0.0025
10862W        W29716  19.059   7.205   2.042 -0.1112  0.0896  0.2121
10863W        W29717   7.513   2.243   3.746  0.0051 -0.0696  0.0643
10864W        W29718   1.570   0.554   3.099  0.1191 -0.0566 -0.0341
10865W        W29719   5.672  15.734   2.960 -0.1581  0.0257  0.4392
10866W        W29720  15.952   2.848   2.919  0.0068 -0.2586  0.4516
10867W        W29721   2.128   4.032   0.846  0.0802 -0.1907 -0.1491
10868W        W29722  13.729  10.865  13.599  0.0603 -0.1171 -0.0418
10869W        W29723  14.721  19.090  13.983  0.0422  0.0673 -0.2778
10870W        W29724   8.058   8.915  11.705 -0.0453  0.0140  0.1919
10871W        W29725   0.521   5.590  13.792 -0.0852  0.0868  0.0199
10872W        W29726  13.700  17.517   2.345  0.0561 -0.0807  0.0087
10873W        W29727  14.592  10.143  12.859  0.2708 -0.1475 -0.2608
10874W        W29728   1.416  16.285  11.982 -0.0906 -0.0624  0.1222
10875W        W29729   8.280   4.244   2.010  0.0715  0.3023 -0.0153
10876W        W29730  14.751   7.530   4.243  0.0731  0.1111 -0.1473
10877W        W29731   5.323  12.344  11.974 -0.2269 -0.0737 -0.0999
10878W        W29732   6.996   4.479  12.656  0.1979 -0.1614 -0.0567
10879W        W29733   3.073  18.513  14.224 -0.2122 -0.1432 -0.0188
10880W        W29734  17.810   4.754  14.169 -0.0018  0.3212 -0.0525
10881W        W29735  18.553   2.043   4.013  0.0620  0.0655 -0.0239
10882W        W29736  13.505  17.972   1.112  0.2916 -0.1895 -0.1022
10883W        W29737   1.067  17.382  14.051  0.0438 -0.0452  0.1506
10884W        W29738  12.074  13.816   1.738  0.1111  0.3660 -0.0111
10885W        W29739  11.470  14.590   1.010 -0.0968 -0.2254  0.0284
10886W        W29740   2.792  18.855   3.149  0.0773 -0.1433 -0.0688
10887W        W29741  12.081  15.635   2.081 -0.0742 -0.2581  0.4557
10888W        W29742   0.799   2.005  11.474  0.0975 -0.0236  0.2652
10889W        W29743  17.140   2.745  11.019  0.0366 -0.2266 -0.2595
10890W        W29744  15.205   8.562   2.187  0.3169  0.1701 -0.2939
10891W        W29745  18.400   8.683  10.704  0.0519 -0.0183 -0.0172
10892W        W29746  10.998  15.942  14.578  0.2172  0.0320 -0.1471
10893W        W29747  12.803   9.411   3.297 -0.1385 -0.5200 -0.1592
10894W        W29748   8.616   8.288   3.630  0.0097 -0.1237 -0.0007
10895W        W29749  16.638  10.986   1.174 -0.3307 -0.0371  0.0726
10896W        W29750   3.824   7.011   0.765 -0.1881 -0.1732  0.1758
10897W        W29751  17.939   1.708   3.512  0.2118 -0.0254 -0.0007
10898W        W29752   1.433   2.376  10.517 -0.0916  0.1516 -0.2823
10899W        W29753  15.578   3.801   3.317  0.1528  0.0841 -0.0313
10900W        W29754   4.987  17.910   9.398 -0.1345  0.2150 -0.0438
10901W        W29755  16.070   7.603   3.925 -0.0550 -0.0366  0.2580
10902W        W29756   8.037  10.977   2.001  0.0867 -0.1480  0.0779
10903W        W29757   0.108   6.688  11.125  0.0311 -0.1849 -0.1710
10904W        W29758   5.321   6.268  13.058 -0.0136  0.1049 -0.1301
10905W        W29759  17.042  17.878   1.007 -0.0823  0.0642  0.1045
10906W        W29760  14.524   2.869   0.949 -0.2962  0.0888 -0.0497
10907W        W29761  15.847   3.339   2.861 -0.3521 -0.2671  0.1514
10908W        W29762  15.370   8.800  13.184  0.2572 -0.1922 -0.0824
10909W        W29763  17.242   8.961   3.862 -0.1148  0.0390 -0.3194
10910W        W29764   1.271  17.194  10.409  0.1453  0.3102  0.0827
10911W        W29765   2.565  12.740   3.204 -0.0686  0.0438  0.1243
10912W        W29766   3.874  14.087   2.187 -0.0278  0.0564 -0.2425
10913W        W29767   9.332  13.699   2.195 -0.2081 -0.0874  0.1899
10914W        W29768   0.688  11.354   3.095 -0.1052 -0.2047 -0.2210
10915W        W29769   9.029   6.297  14.590 -0.1649  0.2751 -0.0315
10916W        W29770   9.846  14.123   2.988 -0.2651 -0.0278  0.2966
10917W        W29771   3.634   1.339   3.746  0.3768  0.0656  0.2321
10918W        W29772   4.547   1.466  13.002 -0.2029  0.0195  0.3012
10919W        W29773  18.111   1.017  11.116  0.0501 -0.3841 -0.0112
10920W        W29774  18.739   3.739   1.423  0.1504 -0.1528  0.0190
10921W        W29775   6.345  10.863   0.644  0.2083  0.0056  0.0637
10922W        W29776  17.424   5.647   2.294  0.0237  0.0288  0.2487
10923W        W29777   9.666  16.092  12.135  0.1026 -0.0594  0.0699
10924W        W29778  16.893  12.374   0.548  0.1581 -0.0183  0.1416
10925W        W29779  19.092  14.190   3.112 -0.0452 -0.0482 -0.1991
10926W        W29780   7.952   0.250   4.435 -0.0924 -0.1454 -0.0436
10927W        W29781   5.721  14.663  13.211 -0.3156  0.2082  0.0658
10928W        W29782  10.829   5.169   9.616 -0.0025  0.0790  0.1133
10929W        W29783   5.467   7.693  13.676 -0.0711 -0.0278 -0.2914
10930W        W29784   2.420   3.060  13.371  0.0760  0.3248  0.0781
10931W        W29785   2.003   4.616   1.798 -0.0158  0.0633  0.0571
10932W        W29786  14.326   2.517   1.506  0.1823  0.1689 -0.1205
10933W        W29787  10.494   2.098   1.618 -0.1085 -0.0040  0.1115
10934W        W29788   2.170  10.293   1.587  0.0743  0.1527  0.0197
10935W        W29789  16.219  14.757  10.957  0.0039 -0.1398 -0.1450
10936W        W29790   9.126   2.441  10.620  0.1728  0.1088  0.0147
10937W        W29791  11.022  15.408  14.393 -0.2170  0.2264 -0.0133
10938W        W29792   9.848  14.626  13.085 -0.1701 -0.1338 -0.1607
10939W        W29793  15.802  15.011  11.236 -0.0425  0.0848 -0.2173
10940W        W29794  12.848   6.624  12.131  0.0285  0.1144  0.2506
10941W        W29795   2.106   7.247   4.267  0.0117 -0.1665  0.3992
10942W        W29796   1.190   3.921  14.685  0.0515 -0.3158 -0.2174
10943W        W29797  19.018   0.921  10.880 -0.2747  0.0134  0.2236
10944W        W29798   8.190   8.410   1.370  0.0148 -0.0555  0.0492
10945W        W29799  14.432   0.892   1.748  0.2297  0.1969 -0.0655
10946W        W29800  13.770  13.997   3.796  0.1343  0.2602 -0.1523
10947W        W29801   6.047  16.231   4.838  0.2264 -0.1252 -0.0685
10948W        W29802   1.103  12.561  12.557 -0.0616  0.1391 -0.4663
10949W        W29803   7.119   6.750   2.117  0.0421 -0.1007  0.2234
10950W        W29804   2.443   0.337   3.396 -0.1745 -0.4252 -0.1028
10951W        W29805   8.432  17.413   2.804 -0.2611  0.0134  0.1196
10952W        W29806   9.683  10.272  11.389  0.1337  0.2844  0.2796
10953W        W29807  17.609  11.372   3.578 -0.2264 -0.1536 -0.0520
10954W        W29808   0.167  14.684  14.300  0.3360 -0.2873 -0.3234
10955W        W29809   1.503  16.396   2.418  0.3441 -0.3031  0.2518
10956W        W29810  13.810   6.222  14.582  0.1119  0.0798  0.0373
10957W        W29811  15.503   7.558   3.604 -0.1675 -0.0751 -0.3565
10958W        W29812   5.784   5.693   1.323  0.0871  0.2031  0.0438
10959W        W29813   3.489  17.947  12.105 -0.0338 -0.0248 -0.1719
10960W        W29814   7.500   8.572   3.483 -0.1936  0.0503 -0.0302
10961W        W29815  18.301  17.254   1.586  0.0599 -0.2066 -0.3036
10962W        W29816  11.549  15.981  14.524 -0.1956 -0.0646  0.3493
10963W        W29817  16.614   4.483   0.847 -0.2983  0.2880 -0.1433
10964W        W29818   1.692  15.905   2.568 -0.1590  0.0080 -0.1606
10965W        W29819  13.478   2.526  10.895 -0.2348 -0.0776  0.2561
10966W        W29820   4.696   9.826  11.408  0.0417 -0.1520 -0.4719
10967W        W29821  10.547  13.941  12.095 -0.2379  0.2515 -0.0637
10968W        W29822   8.338   7.576   4.328 -0.4810 -0.0670  0.1294
10969W        W29823   3.634   8.194   4.414  0.1861  0.0506 -0.0887
10970W        W29824  10.588  10.828  13.474 -0.1863 -0.3094  0.2446
10971W        W29825  15.735  17.056   0.884 -0.0198  0.1280  0.1203
10972W        W29826  14.384   6.967   0.918 -0.1632 -0.0928 -0.0920
10973W        W29827  17.167  17.681  13.728  0.2523  0.0349  0.2283
10974W        W29828   7.578   6.227  12.473  0.1411 -0.1137 -0.2264
10975W        W29829  15.703  15.072   0.892  0.2679  0.2845 -0.2244
10976W        W29830  10.455   6.030   0.083 -0.0339 -0.0545  0.1229
10977W        W29831   5.661  10.110  12.880 -0.4385  0.3251  0.1544
10978W        W29832  11.815  16.113  11.839  0.1401  0.1706 -0.0613
10979W        W29833  18.646  14.234  13.755 -0.1285  0.1845 -0.0267
10980W        W29834  10.418   9.966  10.810 -0.2955 -0.4395 -0.1769
10981W        W29835  14.294  11.849   1.937 -0.0119 -0.0616  0.1133
10982W        W29836  14.224   8.566   3.016 -0.0298 -0.1092 -0.0241
10983W        W29837   2.666   6.079   2.784 -0.0231  0.2683  0.0279
10984W        W29838  16.617   2.816  11.726  0.5996  0.0536 -0.0992
10985W        W29839  11.885   2.241   0.170 -0.4419  0.1185 -0.0407
10986W        W29840   3.072   3.848  11.818 -0.0012  0.1422 -0.0493
10987W        W29841  17.067   4.103  12.042  0.2789 -0.0055  0.0490
10988W        W29842  18.911  15.534  14.538 -0.1515 -0.0230 -0.3212
10989W        W29843   3.037   9.474  11.457 -0.3773  0.2878 -0.1103
10990W        W29844  13.958  13.122  13.548  0.1610  0.1213  0.2884
10991W        W29845  15.925   8.608  11.858  0.0331  0.2011 -0.0985
10992W        W29846  16.335  16.130   0.531  0.0959  0.0127 -0.0617
10993W        W29847  16.936   8.682  14.641  0.3277 -0.3010 -0.1537
10994W        W29848  14.077  11.559   3.700 -0.0307 -0.2407 -0.1145
10995W        W29849  17.103  18.235   4.533 -0.0627  0.1837  0.0058
10996W        W29850   2.137  13.331   0.521 -0.1274 -0.2352  0.1700
10997W        W29851   0.221   5.967  14.498 -0.2824  0.2073  0.0916
10998W        W29852   1.186   4.768  14.501  0.2238 -0.0872 -0.1418
10999W        W29853  18.841   5.778   1.617  0.1567  0.0207 -0.2481
11000W        W29854   3.641   0.205  11.153  0.2768  0.0538  0.0439
11001W        W29855   3.269   6.936   3.604 -0.1221 -0.0396 -0.0470
11002W        W29856   4.413  13.342   0.280 -0.3382  0.1357 -0.2416
11003W        W29857   7.818   3.808   0.249  0.0601 -0.0482  0.1137
11004W        W29858  16.880  10.135  12.512 -0.0816 -0.0465  0.0151
11005W        W29859  13.479  10.568   3.762 -0.1108  0.0682 -0.0365
11006W        W29860  11.732  13.402   1.830 -0.1561 -0.0093  0.0958
11007W        W29861   0.699   6.841  13.062  0.1503 -0.2391  0.2387
11008W        W29862   5.513   1.053   4.094  0.3010 -0.2085 -0.0328
11009W        W29863  10.267  11.024  12.712  0.0196  0.0114 -0.2861
11010W        W29864   9.023   0.434   1.072 -0.0843  0.0659 -0.0716
11011W        W29865  15.293  12.779  11.496  0.1665  0.2143  0.2027
11012W        W29866   9.896  10.155   0.805 -0.1507  0.0395 -0.0292
11013W        W29867   3.226  13.843  10.358 -0.0480  0.1969  0.1051
11014W        W29868  11.985   6.956  12.599 -0.0797  0.0280 -0.0212
11015W        W29869  14.121   5.662  10.507  0.0480 -0.1888  0.1700
11016W        W29870   9.813  17.918   3.115 -0.1996  0.1109  0.0465
11017W        W29871  18.241  10.636   2.078  0.0921  0.0911 -0.2959
11018W        W29872   0.804   5.136  14.511  0.0258  0.0033  0.3238
11019W        W29873   6.607   8.192  10.568 -0.0451  0.0761  0.3282
11020W        W29874  16.269   2.468  14.081 -0.1892 -0.1073 -0.4156
11021W        W29875  12.357   8.189   5.182 -0.1841 -0.1814  0.1376
11022W        W29876  12.754  10.924   3.327  0.0581  0.0740 -0.0821
11023W        W29877  15.100  14.671   3.060 -0.6968  0.0750  0.1986
11024W        W29878  12.843   8.301   1.603  0.0896  0.4073  0.0279
11025W        W29879   2.899   6.817  11.320  0.0023  0.0413 -0.5088
11026W        W29880  15.871  15.397   0.064 -0.0720 -0.0798  0.3236
11027W        W29881  17.806   6.077  13.344  0.0427  0.1329 -0.0531
11028W        W29882  18.909   4.236  11.773  0.1559 -0.0624  0.2445
11029W        W29883   7.696  13.416  13.405  0.1933  0.1720  0.0799
11030W        W29884   0.590   4.162   1.167 -0.1974 -0.0947  0.0540
11031W        W29885  14.647   1.470   2.943  0.3639 -0.0953 -0.0188
11032W        W29886   6.711  13.653   0.089 -0.3216  0.0200  0.0245
11033W        W29887   0.052   1.994  13.054 -0.0846 -0.1049 -0.1630
11034W        W29888   8.309  18.937  13.643  0.0895  0.2527  0.0985
11035W        W29889   1.135  15.553   4.145 -0.4050 -0.1195  0.0837
11036W        W29890   0.711  16.507   0.719 -0.0509 -0.2728  0.1801
11037W        W29891   4.501   1.141  13.998  0.1719 -0.0579  0.0173
11038W        W29892  14.046   3.959  12.207  0.1171 -0.0180 -0.3473
11039W        W29893   9.297  12.017  13.717  0.0278 -0.2583  0.1845
11040W        W29894   5.309   6.082  13.976  0.0690 -0.2278 -0.1911
11041W        W29895   1.691   5.716   3.591  0.1439 -0.1597 -0.4357
11042W        W29896  17.956   1.167  10.640 -0.3127 -0.0136 -0.1425
11043W        W29897   2.254   5.078   2.124  0.4254  0.0537 -0.1099
11044W        W29898   5.781   4.221   3.497  0.0267  0.0376  0.0983
11045W        W29899   0.279  16.425  11.420  0.0799  0.1313 -0.0590
11046W        W29900  10.117   3.625   4.721 -0.1017  0.0380  0.1131
11047W        W29901   9.880  14.261  12.716 -0.1185  0.1393  0.2652
11048W        W29902   8.720   8.811  13.436 -0.0187  0.2152 -0.1029
11049W        W29903  17.282  13.254  12.707 -0.0042  0.1258 -0.1270
11050W        W29904   9.629  10.870  13.948  0.0088 -0.2273  0.1648
11051W        W29905   9.371   9.522   0.129 -0.0593 -0.1122 -0.0295
11052W        W29906   6.616  11.175  13.042 -0.4295 -0.0527  0.0925
11053W        W29907   0.914  16.369   3.338  0.1972  0.0226  0.0034
11054W        W29908  14.400  14.721   2.019 -0.0324  0.0092 -0.0835
11055W        W29909   8.200  10.169  12.578  0.0396  0.0517 -0.0294
11056W        W29910  15.962  13.677   0.092 -0.1382  0.0185  0.0028
11057W        W29911  17.231   9.681   1.796  0.0424  0.0804 -0.2207
11058W        W29912   6.722   4.673  12.237 -0.2761  0.1068 -0.0516
11059W        W29913  11.895   2.534  13.015  0.2585  0.0291 -0.0453
11060W        W29914   9.327   3.420   4.087  0.0122  0.4360  0.1180
11061W        W29915  16.566   1.167   2.447 -0.0253 -0.1151 -0.2440
11062W        W29916  13.404  15.787   2.534 -0.2062  0.0159 -0.0856
11063W        W29917   6.187   4.004   3.177  0.2105 -0.0415  0.4309
11064W        W29918  17.766  18.257  14.212 -0.0818  0.1276  0.1242
11065W        W29919   7.204  10.899   0.676 -0.0725  0.1278 -0.1908
11066W        W29920  14.213   4.100   2.000  0.1640 -0.2726  0.1556
11067W        W29921  12.552  16.187   2.755  0.1096  0.0605 -0.1676
11068W        W29922  12.860   3.479  12.070  0.1254 -0.2938 -0.0540
11069W        W29923   8.178  14.441   1.572  0.2080  0.0438  0.0542
11070W        W29924  13.729   5.156   4.529 -0.1506  0.1535 -0.1689
11071W        W29925  16.365  16.502   2.482  0.0866 -0.1816  0.4069
11072W        W29926  13.177   5.519  10.836 -0.0750 -0.2851 -0.2075
11073W        W29927  12.062   0.705   2.193  0.0982 -0.0779  0.2527
11074W        W29928  15.849   7.390   2.574  0.2704  0.3923  0.1125
11075W        W29929   4.935   9.843   2.325  0.2364 -0.2573  0.0580
11076W        W29930   6.134   6.973   0.426 -0.0208 -0.0568  0.1963
11077W        W29931   8.254  18.840  11.432  0.0271  0.0655 -0.2885
11078W        W29932  10.520  13.211   3.617  0.0367  0.0319  0.0475
11079W        W29933   0.175   6.423   3.487 -0.1635  0.0922 -0.2529
11080W        W29934  13.393   7.883   0.306 -0.2701  0.0778  0.1463
11081W        W29935   9.228  12.086  11.538  0.3221  0.3022  0.4624
11082W        W29936  11.992  19.078  11.988 -0.2314  0.1108  0.0621
11083W        W29937   5.970   4.430  13.962  0.1191  0.0555 -0.0235
11084W        W29938   9.247   0.271  11.410 -0.1956 -0.3278 -0.2272
11085W        W29939  15.493  18.864  13.715  0.1298  0.0159 -0.3289
11086W        W29940   9.808   9.639  14.731 -0.3455  0.0189  0.0744
11087W        W29941  13.722   7.091   2.600 -0.0541  0.3005  0.1300
11088W        W29942   1.832   6.086   3.184  0.0543  0.0149 -0.2053
11089W        W29943  16.520  18.115   3.651 -0.0140 -0.0052  0.1568
11090W        W29944   5.389  17.799  12.791  0.0842 -0.1335  0.1301
11091W        W29945   5.196  18.116  13.465 -0.0004  0.0637  0.2524
11092W        W29946   1.386   9.699  12.234 -0.1400  0.2966  0.0912
11093W        W29947  15.604   3.324   0.965 -0.1419 -0.2155 -0.0236
11094W        W29948   2.014  13.975   3.931  0.2054 -0.0697 -0.1003
11095W        W29949  10.879  16.830  10.911  0.1768 -0.2029 -0.1581
11096W        W29950   1.465  10.291   5.396 -0.3023  0.0534  0.2218
11097W        W29951  13.894   5.919   3.169  0.0042 -0.1920 -0.0390
11098W        W29952   1.693   4.165  10.520 -0.2290  0.0340  0.2939
11099W        W29953   3.889   2.459   2.222  0.2186 -0.0007  0.0593
11100W        W29954  16.824   7.250  11.699  0.1456  0.1475  0.2386
11101W        W29955   4.354   6.793  12.700  0.0366 -0.2158 -0.2760
11102W        W29956  18.290  14.697  14.569  0.2264  0.2374  0.1288
11103W        W29957   7.156  10.529   1.463  0.1465  0.0273 -0.3366
11104W        W29958   4.466  17.742  11.134 -0.0409 -0.0803 -0.1241
11105W        W29959  13.608  11.059   2.081  0.0053  0.0797  0.0444
11106W        W29960   7.866  10.486   1.975 -0.0556  0.1366  0.0629
11107W        W29961   9.393   5.481   2.940 -0.3129  0.1005  0.0320
11108W        W29962   4.345  12.962   0.700 -0.0686  0.3161  0.0522
11109W        W29963  13.495  18.618  11.387  0.4909  0.1162 -0.4650
11110W        W29964   3.707  17.655   1.091  0.4242  0.2180  0.4507
11111W        W29965  10.022   3.028  12.562  0.2218 -0.2062 -0.0873
11112W        W29966   6.223  12.441   0.653 -0.1682 -0.0672 -0.1367
11113W        W29967  17.778   8.610   2.585  0.1799  0.1858  0.1966
11114W        W29968  18.988  18.529   1.746  0.1065 -0.1303  0.0277
11115W        W29969   9.876   5.236   2.495  0.2606  0.1469  0.1932
11116W        W29970   1.634  13.058  13.230  0.0364 -0.2308 -0.1108
11117W        W29971   5.786   7.194  12.991 -0.1412  0.0212  0.0558
11118W        W29972   8.643   8.188   0.467  0.2034 -0.1325 -0.1151
11119W        W29973  15.540  16.377  14.617  0.0782 -0.0713  0.1634
11120W        W29974  14.911   3.875  11.268  0.0130 -0.0713 -0.3241
11121W        W29975   6.736   1.875   3.466  0.1352  0.0683  0.0942
11122W        W29976  13.619  13.866  11.485 -0.2814  0.1387 -0.0684
11123W        W29977   2.870   7.140   3.256  0.0697  0.3344 -0.1889
11124W        W29978  13.472  10.706  14.051 -0.0346 -0.0363  0.0086
11125W        W29979   4.565  11.522  11.143 -0.0581  0.1900 -0.0990
11126W        W29980  16.121   8.787  10.420 -0.0769 -0.0694  0.0827
11127W        W29981  14.918   4.955  14.419 -0.2026  0.1980  0.0169
11128W        W29982  18.367   6.817   1.265 -0.0887 -0.0453  0.1695
11129W        W29983   6.590  13.670   2.487 -0.1557  0.2597 -0.0365
11130W        W29984   8.470   7.330  11.527  0.0451  0.2038  0.3025
11131W        W29985  17.727   5.694  13.782  0.2399 -0.0716  0.0250
11132W        W29986  11.949   5.168  13.584 -0.1922 -0.0417 -0.1694
11133W        W29987   9.233  10.881   1.929 -0.1492  0.3100  0.0234
11134W        W29988  18.258  17.692   0.181 -0.0546  0.1347 -0.4225
11135W        W29989   7.012   3.291   2.837 -0.0875  0.3540  0.3266
11136W        W29990  10.665  18.371  11.067  0.0812 -0.0228 -0.1228
11137W        W29991  10.649  14.399  13.074  0.0587 -0.0436  0.1010
11138W        W29992  17.311  10.728   4.272  0.1841 -0.0424  0.0174
11139W        W29993  13.991  19.115   5.088  0.1400  0.1716 -0.4208
11140W        W29994   1.303   1.500   1.301  0.4106  0.0563  0.0533
11141W        W29995   1.241  17.618   3.421  0.1461 -0.1417 -0.1185
11142W        W29996  14.406   5.810  14.347  0.1541  0.2497  0.0189
11143W        W29997   4.816   5.931   4.112  0.2192  0.2226 -0.2215
11144W        W29998  13.133  10.700   1.280  0.2119  0.0992 -0.3144
11145W        W29999  11.561  10.513  13.393 -0.2794  0.0110 -0.0290
11146W        W30000  16.218  18.977  13.089 -0.2923 -0.2389  0.1475
11147W        W30001   8.581   7.799  11.512  0.1297  0.2458  0.1528
11148W        W30002   7.625  16.041  11.505  0.1135 -0.0789  0.1036
11149W        W30003  17.500  17.251  13.795  0.2550 -0.0832  0.1241
11150W        W30004   8.518  15.161   1.639 -0.1707  0.2110 -0.0297
11151W        W30005   3.379   8.882  14.753  0.1355 -0.2309 -0.2569
11152W        W30006   1.564  18.106   3.479 -0.0137  0.0030 -0.3896
11153W        W30007  12.176   3.909   3.680 -0.0267 -0.0635  0.4189
11154W        W30008   1.321  19.044  14.237  0.2462 -0.4421 -0.1636
11155W        W30009   8.389   3.127  12.366 -0.0629 -0.0387 -0.4149
11156W        W30010  13.676  15.002   2.978  0.2350  0.1705  0.0001
11157W        W30011  18.223  16.119   1.605 -0.1884  0.0359  0.1453
11158W        W30012  18.757   0.602  11.677  0.1269  0.0105  0.1266
11159W        W30013   2.642   0.856  14.213 -0.0676 -0.1156 -0.0141
11160W        W30014  18.228   8.795   4.269 -0.2629  0.4521  0.0181
11161W        W30015   4.280   4.165   4.273 -0.0705  0.2554 -0.0126
11162W        W30016  14.796  19.094   3.731  0.0372 -0.1930  0.1000
11163W        W30017   7.386  13.941   0.791  0.2184 -0.0350  0.0883
11164W        W30018  10.855   5.228   1.164  0.1571  0.0486 -0.1502
11165W        W30019  11.764   6.807  13.757 -0.0563  0.1480 -0.1701
11166W        W30020  12.608  18.922   0.371  0.1615  0.0910  0.4006
11167W        W30021  15.963  15.979  12.197 -0.1128 -0.1440 -0.3635
11168W        W30022   3.078  10.045  14.022 -0.2273 -0.0008 -0.2231
11169W        W30023  17.337   2.783   1.323 -0.2586  0.1112  0.0714
11170W        W30024   2.983   1.653  14.246 -0.3066  0.3064 -0.1002
11171W        W30025   1.183  11.593   3.871  0.1719 -0.1858 -0.0623
11172W        W30026   0.131  18.677   0.885  0.2461  0.1464 -0.0638
11173W        W30027  12.200  15.107  10.902 -0.1618  0.0566 -0.3140
11174W        W30028   8.714  13.561   3.796 -0.3027 -0.0784 -0.0417
11175W        W30029  10.992   3.016   4.118  0.1463 -0.2043 -0.3198
11176W        W30030   0.131   6.712   0.534  0.0992 -0.1043  0.0353
11177W        W30031  15.216  13.068  12.914 -0.0019  0.0242 -0.1928
11178W        W30032  10.969   1.725   3.314 -0.1472  0.0137  0.0208
11179W        W30033  11.343  13.559   9.527 -0.2784  0.1487  0.0666
11180W        W30034   1.119   0.841   0.413 -0.2143  0.1782 -0.2652
11181W        W30035   1.259  17.693  14.506  0.1938  0.1892  0.1576
11182W        W30036  10.660   5.626   1.394  0.2158  0.3799 -0.1479
11183W        W30037   7.765  13.104   2.920  0.0447 -0.2688 -0.0485
11184W        W30038   0.875   3.049   0.103 -0.5815 -0.2841 -0.0514
11185W        W30039   1.437   6.110  11.822 -0.1573 -0.0236  0.2476
11186W        W30040   1.319   8.926  13.323 -0.1702  0.1682  0.0273
11187W        W30041   6.428   0.521  12.990 -0.0610 -0.0485 -0.0059
11188W        W30042  13.749  10.488  12.554  0.1009 -0.3786 -0.0350
11189W        W30043  11.335   4.053   3.190 -0.1386 -0.1396 -0.0853
11190W        W30044  17.732   7.131  14.701 -0.1925  0.2025 -0.3382
11191W        W30045   6.687  15.147  10.405 -0.2528  0.0585 -0.1911
11192W        W30046  12.334   8.288   3.598  0.1791  0.1333 -0.2176
11193W        W30047   8.857   9.574   5.487 -0.1833  0.0371 -0.2693
11194W        W30048   3.428   1.085  11.895  0.0281  0.1786 -0.2249
11195W        W30049   9.494  12.383   3.102 -0.0696  0.1752  0.0444
11196W        W30050  12.132  12.675   3.538  0.1028 -0.0889 -0.0087
11197W        W30051   9.491  16.538   4.219  0.2654 -0.1974  0.0089
11198W        W30052  15.363   9.379   0.541  0.2722  0.1094  0.0435
11199W        W30053   2.209  18.482   4.671  0.0643  0.1457  0.0723
11200W        W30054   1.745   6.993  13.252  0.1478 -0.1130 -0.2911
11201W        W30055  14.009   2.009   0.098 -0.2140  0.1923 -0.1167
11202W        W30056   7.279  10.543   3.124 -0.1935 -0.0639 -0.1514
11203W        W30057  18.225   5.552  13.859 -0.1143 -0.1003 -0.0602
11204W        W30058   3.178   6.204  13.201 -0.0119 -0.2836 -0.2344
11205W        W30059  14.293  13.394   3.794  0.2803  0.2975  0.0434
11206W        W30060   6.174   3.093   0.587 -0.1049  0.1641  0.1847
11207W        W30061  10.489  14.185   1.719  0.0435  0.1413 -0.1259
11208W        W30062   9.072  10.633   3.024 -0.4137  0.2628  0.2535
11209W        W30063   5.411  19.009   1.331 -0.1852 -0.0547  0.0733
11210W        W30064   3.196   0.590  12.218  0.2135 -0.1902 -0.1097
11211W        W30065   0.741   8.410   4.326 -0.0229  0.1241 -0.3078
11212W        W30066   9.940   6.114   1.645  0.0412 -0.0022  0.0300
11213W        W30067   1.286   0.130  10.456 -0.2812  0.0796  0.2901
11214W        W30068   7.259  10.890   2.628  0.1909  0.0851 -0.2773
11215W        W30069   7.560   8.040   0.543 -0.3186 -0.1834  0.2105
11216W        W30070  16.707   4.423   4.795  0.0531  0.0971  0.1992
11217W        W30071  16.691  14.748   4.182  0.0700  0.5194  0.3816
11218W        W30072  17.667   5.159  12.028  0.1547  0.0479 -0.3937
11219W        W30073   2.594   1.584  12.239  0.3008 -0.3101 -0.2466
11220W        W30074   0.012   5.578   2.159  0.1982  0.0765  0.0866
11221W        W30075   3.083  18.009   5.255 -0.1919 -0.5223  0.3188
11222W        W30076   6.186   4.499   4.044 -0.2425  0.0735 -0.1814
11223W        W30077  16.501  12.107   1.877  0.0225  0.1537  0.0444
11224W        W30078   1.097  16.212   0.032 -0.1414  0.0474  0.4239
11225W        W30079   9.023  13.494   1.256 -0.0354  0.3855  0.2668
11226W        W30080  17.981   9.877  14.143  0.0465  0.0884  0.0500
11227W        W30081   0.826   9.320   1.347 -0.0149  0.1904 -0.0040
11228W        W30082  14.529  17.931  10.882  0.0556 -0.0950  0.1393
11229W        W30083  12.192   1.798  10.598 -0.0201  0.1097  0.1043
11230W        W30084   5.001   2.055  11.342  0.1239 -0.0983 -0.0602
11231W        W30085  10.993   3.520   0.546 -0.4427  0.1421 -0.0971
11232W        W30086  11.964   9.921   1.080 -0.3326 -0.2923 -0.0618
11233W        W30087   3.543   1.189  14.482 -0.2057 -0.2217 -0.1373
11234W        W30088   8.427   4.000   1.121 -0.4258  0.0167 -0.1464
11235W        W30089   4.663   4.067  13.254 -0.1379 -0.0657 -0.0512
11236W        W30090   7.038   3.998   4.103  0.0287 -0.0345 -0.0389
11237W        W30091  10.918   2.592  10.864 -0.1356  0.0771 -0.0319
11238W        W30092   6.717  12.195   2.584  0.0170 -0.0646  0.3190
11239W        W30093  16.259  15.027   0.194  0.4328  0.3646 -0.1035
11240W        W30094   9.897   1.198   3.535  0.1527 -0.1150 -0.1173
11241W        W30095  13.344   7.081   0.593 -0.0526 -0.0297  0.0318
11242W        W30096  16.203   4.008  11.945  0.0481  0.1041 -0.1986
11243W        W30097   0.569   5.609   2.690 -0.5099 -0.2076  0.2648
11244W        W30098  16.446  15.586   2.374  0.0681  0.0665 -0.0674
11245W        W30099  18.091   1.776   5.292  0.2926  0.3298  0.1786
11246W        W30100  11.618  13.637  14.414  0.0857 -0.1663 -0.0506
11247W        W30101   9.626  11.937  10.972  0.1088 -0.0835 -0.1875
11248W        W30102  11.362  14.309  11.805 -0.0890 -0.2972 -0.0777
11249W        W30103  16.109   0.313  10.524  0.0389 -0.2753  0.0226
11250W        W30104  18.219   8.685   0.086  0.3248 -0.1659 -0.0505
11251W        W30105  10.052   5.361  14.058 -0.1247  0.0008 -0.2089
11252W        W30106  13.174  12.663   3.660 -0.1643  0.0380 -0.0997
11253W        W30107   4.063  16.439   3.285  0.4113  0.0393  0.2799
11254W        W30108  16.541   3.681  12.159 -0.1255  0.0657 -0.0948
11255W        W30109  13.591  11.900  13.764  0.2434 -0.0576 -0.1293
11256W        W30110  13.204  13.670   2.515 -0.0366  0.2117  0.1007
11257W        W30111   9.049  15.710  11.257 -0.2782  0.0513  0.0391
11258W        W30112  15.064  16.670  13.007 -0.0648 -0.2774 -0.0309
11259W        W30113   9.348   8.563  12.669 -0.0842  0.3072 -0.3637
11260W        W30114  12.340  18.023  12.623  0.2593  0.1141 -0.0645
11261W        W30115   3.758  15.942  10.438  0.1389  0.3254 -0.0144
11262W        W30116   3.523  16.583  13.318  0.4128 -0.2496  0.1153
11263W        W30117   5.881  11.809  10.678 -0.0378 -0.2577  0.2246
11264W        W30118   5.459  14.167  11.146 -0.0440  0.3719 -0.1430
11265W        W30119  14.297  18.874   1.140  0.1231 -0.0133 -0.2355
11266W        W30120   0.335   7.757   1.240  0.0022  0.0654 -0.0621
11267W        W30121  19.028   8.040   2.113  0.1259 -0.3869  0.1293
11268W        W30122  10.448  19.028   2.186 -0.0078  0.0389 -0.1769
11269W        W30123   5.318   7.062  12.861  0.0226 -0.1064 -0.0408
11270W        W30124  11.039   0.613   0.555  0.0703  0.0048 -0.0893
11271W        W30125   5.476   0.590  10.611 -0.0739 -0.2175  0.0797
11272W        W30126  14.937   4.100  12.039 -0.1629  0.2089 -0.2787
11273W        W30127   8.188  15.211  10.374  0.0356  0.4213  0.0408
11274W        W30128   1.972  17.698   1.716  0.1159 -0.0840  0.2651
11275W        W30129  10.090   3.450  11.908  0.0835  0.0940 -0.0207
11276W        W30130   2.722   9.477   0.430 -0.3268 -0.3419 -0.3140
11277W        W30131   9.230  11.701   4.097  0.0862  0.2612  0.1028
11278W        W30132  11.110   7.446   0.536  0.1240 -0.0236 -0.0571
11279W        W30133  15.581   3.159   3.430 -0.3775 -0.0575 -0.0035
11280W        W30134  18.403   2.520   4.277 -0.2734  0.0253  0.1671
11281W        W30135   4.717  13.269   4.099 -0.1875  0.1514  0.0371
11282W        W30136   8.906   0.346   3.151 -0.1739  0.1961  0.2371
11283W        W30137  13.797   3.862  11.251  0.0710 -0.0204 -0.1548
11284W        W30138   0.196   3.024   0.053  0.1649 -0.0912  0.1888
11285W        W30139  16.311  16.375   3.489 -0.0223 -0.2086  0.1089
11286W        W30140   8.797  18.637  13.558 -0.1317 -0.0344 -0.1446
11287W        W30141   3.773  18.613  11.832 -0.1396  0.0997 -0.0195
11288W        W30142   0.333   6.436   0.933  0.3205 -0.0690  0.1292
11289W        W30143   1.704   5.479  11.185  0.1705  0.0414 -0.0481
11290W        W30144   3.950  18.798  13.038  0.1120  0.1973 -0.4319
11291W        W30145   6.727  17.544   3.273  0.1219  0.0837  0.0134
11292W        W30146   1.849   2.149  14.454  0.0137 -0.2890  0.1654
11293W        W30147   8.689  11.635   9.493  0.0925  0.0019 -0.2425
11294W        W30148  16.119   7.009  12.929 -0.0839  0.0836  0.3003
11295W        W30149   6.444  10.597  14.127  0.0198 -0.0251  0.0667
11296W        W30150   3.505   0.426   3.983 -0.1518  0.0262 -0.0822
11297W        W30151   3.683  11.539  13.029  0.2520  0.0668 -0.4888
11298W        W30152   9.490  16.417   1.421  0.3149  0.1310  0.1036
11299W        W30153  13.922  11.094   2.917  0.3671 -0.0403  0.1537
11300W        W30154   1.092   2.816  11.649  0.0252  0.1169 -0.0003
11301W        W30155   7.572  12.619  11.121  0.3027 -0.1497  0.0317
11302W        W30156  18.679  10.382   4.460  0.1496  0.0639  0.3280
11303W        W30157   1.176   8.152  12.349 -0.2301  0.1411 -0.2396
11304W        W30158   6.509   8.953   3.599  0.1863  0.0416 -0.3635
11305W        W30159   0.494   7.079   0.732  0.1889 -0.3982  0.0564
11306W        W30160  18.859  16.333  12.427  0.0864 -0.0737  0.0621
11307W        W30161  16.299   5.972  14.181 -0.1115 -0.4016  0.0453
11308W        W30162   9.787   4.112  12.060 -0.0802  0.0659 -0.3844
11309W        W30163  10.134  11.357   1.699  0.2455 -0.3522 -0.0788
11310W        W30164  12.523   8.938  14.491  0.1151 -0.1301 -0.0274
11311W        W30165   4.081  10.264   3.846  0.0681  0.1483 -0.1855
11312W        W30166   4.477  12.679   2.447 -0.1446 -0.2452  0.1464
11313W        W30167  14.994   5.541   0.426  0.4188 -0.0325  0.0744
11314W        W30168   2.823   5.999   1.271 -0.4074 -0.1315 -0.0685
11315W        W30169   6.383  15.920   1.480 -0.2994  0.0743  0.4253
11316W        W30170   6.290  16.936   1.043  0.3874 -0.0085  0.0305
11317W        W30171   3.161  14.620  13.512 -0.0296 -0.2468 -0.2194
11318W        W30172   9.179  15.334   3.776  0.3760  0.4029 -0.0809
11319W        W30173  12.552  16.450  12.423 -0.2304 -0.3415 -0.5204
11320W        W30174   1.288  13.382   4.196  0.0478 -0.3168 -0.1086
11321W        W30175  14.231   9.776   2.565  0.3082  0.0889  0.0834
11322W        W30176   9.627   3.243  14.406  0.0876  0.2651 -0.3855
11323W        W30177   9.736  12.349   0.636 -0.1224 -0.0542 -0.0385
11324W        W30178   8.824   3.788   0.682 -0.1404 -0.1477  0.1088
11325W        W30179   5.738  15.410   2.182 -0.0804 -0.2619 -0.0665
11326W        W30180  11.817  11.292   1.118 -0.0290  0.1804 -0.0498
11327W        W30181  10.253   7.679  12.011 -0.2435  0.0030  0.2619
11328W        W30182   4.211  14.184  14.104  0.0222 -0.0160 -0.0399
11329W        W30183  12.008   1.077   1.697  0.1331  0.1509 -0.1182
11330W        W30184   7.116   4.645  10.886  0.1466  0.0014 -0.3330
11331W        W30185   4.722   1.367   3.581 -0.1048  0.0736 -0.1024
11332W        W30186  15.385  15.196  13.891  0.3828  0.0765 -0.2817
11333W        W30187  15.319   1.270   9.677  0.0000 -0.0157 -0.2036
11334W        W30188   6.206   6.048  12.510  0.0883 -0.3893 -0.2842
11335W        W30189   0.007   7.285   3.086  0.2580 -0.0453 -0.1860
11336W        W30190   8.502   3.631   5.039  0.0989 -0.0651  0.2859
11337W        W30191   4.641   6.911   2.139 -0.4611 -0.1541 -0.2375
11338W        W30192   2.996   7.850  10.551 -0.3463 -0.1916  0.2982
11339W        W30193  18.685  16.247   0.602  0.3294 -0.0778  0.2817
11340W        W30194   8.212   8.860   4.347  0.3099 -0.1879 -0.1690
11341W        W30195  15.147  17.489  11.177  0.0587  0.0100  0.0400
11342W        W30196  11.932   3.590   4.078  0.2597 -0.0239  0.1388
11343W        W30197   7.702  11.485  13.888  0.3833 -0.2118  0.1259
11344W        W30198   2.816  14.860  13.926  0.1091  0.0070  0.0429
11345W        W30199  12.138  18.979  11.530  0.0185 -0.1485  0.4013
11346W        W30200  19.083  14.463   4.049  0.0623  0.0076 -0.0430
11347W        W30201  15.961   2.102   2.491  0.0753 -0.0423 -0.0483
11348W        W30202  10.608   1.286  12.094 -0.0539  0.3025 -0.0892
11349W        W30203   2.959  11.841   3.452 -0.1050  0.0291 -0.1858
11350W        W30204   7.606   1.505   0.363  0.1199 -0.2303  0.1909
11351W        W30205  14.062  18.008   2.493 -0.0266 -0.0237 -0.1636
11352W        W30206   8.414  12.507   3.169 -0.1604  0.0911 -0.0294
11353W        W30207   2.045   3.301  13.096  0.2979  0.3506  0.0347
11354W        W30208   4.893   7.329  10.525 -0.1469  0.0674  0.2022
11355W        W30209   2.122  10.995   0.227  0.0864 -0.1171 -0.0435
11356W        W30210   6.192  14.795   1.647 -0.0961 -0.1266 -0.1519
11357W        W30211  18.054  18.927   1.504  0.0340  0.3110  0.0570
11358W        W30212  13.989  11.823   3.299 -0.2727 -0.0921 -0.2282
11359W        W30213  17.149   9.262  12.668  0.0167  0.0616  0.2417
11360W        W30214   2.346  12.626  11.348 -0.3221  0.1834  0.1354
11361W        W30215   6.324   3.174  11.617 -0.2132  0.0044 -0.0820
11362W        W30216  14.777  17.072   0.552 -0.0607  0.3884  0.2734
11363W        W30217  12.291  12.710  11.448  0.0821  0.0565 -0.1064
11364W        W30218   1.193   7.421  10.786  0.0079  0.0909 -0.2443
11365W        W30219   2.711  11.144   0.292 -0.3115 -0.3088 -0.1430
11366W        W30220   6.895  14.047   2.574  0.1823  0.1810  0.1089
11367W        W30221  16.257  11.355   9.938 -0.1304 -0.0494  0.2281
11368W        W30222  15.346   1.711  12.514 -0.0431  0.3125 -0.3811
11369W        W30223  10.518  14.130  10.444 -0.1944  0.2328  0.0923
11370W        W30224  16.060  14.117   4.312  0.2466 -0.1003  0.4418
11371W        W30225  13.928  13.598  14.304  0.1662 -0.0007  0.0457
11372W        W30226  10.530   1.217   1.832 -0.2658 -0.0270 -0.1059
11373W        W30227  17.859   8.513   4.508 -0.0915  0.1943  0.3391
11374W        W30228  16.529   9.049   2.071  0.1347 -0.3169 -0.1731
11375W        W30229  10.565   1.439  10.720  0.4367 -0.0632  0.0179
11376W        W30230  10.596  15.671   2.567 -0.2821 -0.0656  0.0458
11377W        W30231   9.248   2.965  13.018  0.0083  0.0870  0.0978
11378W        W30232  15.598  13.498   3.228  0.2216 -0.2263  0.0417
11379W        W30233   4.391   8.352   1.051 -0.4438  0.0594 -0.3387
11380W        W30234  17.949  14.559  14.148  0.1472 -0.1091  0.2522
11381W        W30235   2.792   2.129   5.063  0.0484 -0.0064 -0.3280
11382W        W30236  18.182  14.194   1.196 -0.1236  0.1540  0.0464
11383W        W30237  17.364  19.088  11.714 -0.2699  0.2641  0.1085
11384W        W30238   1.383  18.355  10.702  0.2184 -0.0288 -0.2717
11385W        W30239   8.017  11.390   3.651  0.1674 -0.0884  0.0573
11386W        W30240  11.336   2.238   2.847 -0.1747 -0.1666  0.1864
11387W        W30241  18.957  13.420   4.291 -0.2381  0.1499 -0.0139
11388W        W30242  17.391  18.357  11.604  0.0368  0.1881  0.0322
11389W        W30243   4.859   3.520   1.588  0.3090 -0.4745  0.0650
11390W        W30244   9.490  11.954  12.361 -0.3220  0.0449 -0.1024
11391W        W30245   5.811  12.041   0.508  0.5010 -0.5874  0.3866
11392W        W30246   4.855   7.553   3.857 -0.5815  0.0623 -0.0629
11393W        W30247   1.592  18.575   1.636 -0.1820 -0.1240 -0.1083
11394W        W30248  15.676  18.012  12.721 -0.0269  0.0128  0.1934
11395W        W30249   0.544   3.521   1.712  0.1965 -0.1266 -0.0232
11396W        W30250   8.198   9.808  14.647  0.1339  0.0702 -0.1673
11397W        W30251  13.505   8.764   2.255  0.0950  0.4338  0.0670
11398W        W30252  16.390  13.291   4.082 -0.0737 -0.2494 -0.2723
11399W        W30253  14.741   6.597  13.172 -0.0634 -0.4669 -0.0369
11400W        W30254  13.580   7.410  13.139 -0.2105  0.0625  0.0051
11401W        W30255   6.812  16.671  11.034  0.1952  0.0448  0.0030
11402W        W30256   3.575  13.731   3.879 -0.3332  0.0594  0.4901
11403W        W30257   7.622   2.162  12.603  0.1214  0.0110  0.0464
11404W        W30258  10.099  12.723  10.771  0.0219  0.1080  0.0908
11405W        W30259   8.692  10.727   2.629  0.3274 -0.1086  0.0141
11406W        W30260  15.377  18.403  12.540 -0.1881  0.1407 -0.2178
11407W        W30261   9.824   8.069  13.291  0.2017  0.0976  0.0824
11408W        W30262  14.778  18.129   4.016  0.0681 -0.0853  0.2857
11409W        W30263  15.546   9.313   2.641 -0.1609 -0.2448  0.0729
11410W        W30264  11.111  17.198  12.270 -0.0942  0.0587 -0.1656
11411W        W30265   8.652   0.589   2.778  0.1964  0.2196  0.2044
11412W        W30266   6.275  16.213  13.414  0.3954 -0.0881 -0.0010
11413W        W30267   7.108   3.309   0.284 -0.0177 -0.3517  0.1796
11414W        W30268  10.863  18.168  14.334 -0.0475  0.0657  0.1293
11415W        W30269  17.066  13.958  10.339  0.1028 -0.1739  0.0779
11416W        W30270   6.267   3.934   1.758  0.1428  0.2572 -0.0234
11417W        W30271  16.128  16.056   2.346 -0.0557  0.0041  0.1876
11418W        W30272   0.365  15.566  13.165 -0.3975 -0.1665 -0.0978
11419W        W30273  13.961  12.973  10.425  0.0371 -0.2174 -0.0286
11420W        W30274   7.685   2.681  10.506 -0.2201  0.0507 -0.1455
11421W        W30275  16.239  11.096   2.211 -0.1661  0.4216 -0.0131
11422W        W30276   3.172   6.575  11.799  0.1922 -0.0079 -0.0790
11423W        W30277   9.086   1.092  12.323  0.1115 -0.1933 -0.1352
11424W        W30278   1.689  16.338  13.405 -0.1385 -0.0711 -0.0030
11425W        W30279   7.935   7.556   1.098 -0.1396 -0.0693  0.2713
11426W        W30280  18.988   6.361  14.386  0.1597  0.3208 -0.3230
11427W        W30281  18.890   9.389   9.138 -0.1474 -0.1803  0.0250
11428W        W30282  12.590  12.936  13.595 -0.0463  0.0840 -0.2152
11429W        W30283  14.817  11.055  14.154 -0.1796  0.3664  0.6047
11430W        W30284   0.587  11.388   4.162  0.0548  0.1334 -0.1529
11431W        W30285   6.093   3.111  12.069  0.0752 -0.3215 -0.2255
11432W        W30286   8.786  18.333   1.056  0.1023  0.2554  0.0639
11433W        W30287  16.313  15.450  13.794 -0.0372  0.0358 -0.0500
11434W        W30288  10.007  18.647   1.232  0.0014  0.1358  0.0393
11435W        W30289  10.688   0.356  13.932  0.2495 -0.1777  0.1436
11436W        W30290  16.343   3.101  14.067  0.0947  0.4216 -0.1680
11437W        W30291   7.121   0.861   2.530 -0.1001  0.1739 -0.0507
11438W        W30292   8.760   8.955   0.242  0.0472 -0.3239 -0.0301
11439W        W30293   3.838   0.400   4.335 -0.0755  0.0113  0.5430
11440W        W30294  17.928   9.862   3.090  0.3321 -0.3436  0.1922
11441W        W30295   8.944   4.547  13.704  0.1656 -0.0102  0.0733
11442W        W30296  17.059   9.663  14.468  0.1796 -0.1631  0.0088
11443W        W30297  18.179   5.493   0.938  0.1804 -0.0443  0.2184
11444W        W30298  13.724   7.122   2.113 -0.0490  0.0628  0.1548
11445W        W30299  14.433  13.999  13.653  0.0095 -0.0945 -0.2469
11446W        W30300   0.613   2.705   3.860 -0.1260 -0.3443 -0.0669
11447W        W30301  15.734   4.846   0.493 -0.2672  0.2380  0.1255
11448W        W30302   0.362  13.910  10.449  0.0449 -0.0370 -0.0414
11449W        W30303  16.152   5.177   2.747 -0.2413 -0.0326  0.0248
11450W        W30304   1.963   6.979  11.124  0.2065  0.1516 -0.0894
11451W        W30305   0.392  18.379   0.526 -0.1175 -0.3686 -0.1647
11452W        W30306   3.637  17.036  12.037  0.1753  0.1761  0.2981
11453W        W30307  12.696   0.164   2.553  0.2331  0.3457  0.0236
11454W        W30308   3.364  13.442   1.181  0.0859  0.0292 -0.2097
11455W        W30309  15.675  15.391  12.374 -0.0812 -0.1733  0.1159
11456W        W30310  11.842   5.540   0.660  0.0732  0.3034  0.2145
11457W        W30311   3.954   8.496   4.169  0.1265  0.0360  0.1057
11458W        W30312   5.618  13.442   1.354  0.0376 -0.1461 -0.0864
11459W        W30313   0.285  13.265   1.141 -0.2090  0.0088 -0.0473
11460W        W30314  17.606   3.260   1.309  0.3317  0.0199  0.0642
11461W        W30315   0.450   6.944   0.007 -0.1186  0.1839 -0.1275
11462W        W30316  15.888  13.383   3.985 -0.0557 -0.1329 -0.0224
11463W        W30317   3.886   5.872  12.641  0.1903 -0.2419 -0.1750
11464W        W30318   3.307  15.888   0.474 -0.2110  0.1726 -0.0134
11465W        W30319  11.870  14.446  12.776 -0.1625  0.2610  0.1308
11466W        W30320   2.958   3.680  14.709 -0.0797 -0.1960  0.1113
11467W        W30321  17.447  17.047   1.330  0.0860  0.0018  0.2472
11468W        W30322  15.124  18.993   1.404 -0.0763 -0.3181  0.2039
11469W        W30323  18.778  12.185   1.383  0.1559 -0.2276  0.2274
11470W        W30324  16.690   7.598   1.752 -0.0191 -0.3765  0.1218
11471W        W30325   6.629   3.944  11.642  0.1404  0.1372  0.3457
11472W        W30326  10.855  12.615   2.953 -0.0174 -0.0169 -0.0260
11473W        W30327   6.304  17.660  14.605  0.1375  0.4413  0.0300
11474W        W30328  10.264  18.432   3.746  0.0197  0.3181 -0.1047
11475W        W30329  17.479   7.045  11.180  0.0440  0.1039  0.0723
11476W        W30330   2.780   2.102   0.766 -0.1295 -0.1323  0.1197
11477W        W30331  18.449   6.584   2.563 -0.2038  0.1072 -0.0304
11478W        W30332   6.752   5.936   0.056  0.0619  0.1735  0.0813
11479W        W30333   2.820  14.020   0.009  0.0732 -0.2598  0.3022
11480W        W30334  16.417   8.267   3.176  0.1444 -0.1566 -0.0618
11481W        W30335  10.350  15.943   2.984  0.2646  0.2290  0.1488
11482W        W30336   9.888  17.014   4.033 -0.0018  0.0813 -0.2766
11483W        W30337  11.451  15.024  14.462 -0.0683  0.1412  0.2100
11484W        W30338   6.273  16.710   2.876  0.3597  0.0421  0.0161
11485W        W30339  17.133  17.857   0.059  0.1676  0.2130 -0.0282
11486W        W30340  18.112   4.897   0.950  0.3746  0.0619 -0.1553
11487W        W30341  13.737  15.975  11.827  0.0942 -0.4544  0.1950
11488W        W30342   3.791  16.666   0.306 -0.0918  0.0276 -0.2661
11489W        W30343   7.849   2.713   2.865  0.1675 -0.2126  0.3276
11490W        W30344  13.251   1.052  12.389  0.1191 -0.1010  0.1745
11491W        W30345  16.369   9.071  11.964  0.3271  0.1830  0.0280
11492W        W30346   3.609  14.277  11.052 -0.2728  0.1285 -0.0673
11493W        W30347   6.417   0.375  11.161  0.1002  0.0944  0.1377
11494W        W30348   9.756   0.195   9.671  0.0077 -0.1529  0.3713
11495W        W30349   4.827  15.548  11.597 -0.0368  0.3028 -0.0456
11496W        W30350   6.650   5.471   1.514  0.0275 -0.2274  0.0785
11497W        W30351   0.931  15.322   1.456 -0.0447 -0.5379  0.0912
11498W        W30352   5.344   8.327  12.448 -0.1855 -0.1275  0.1082
11499W        W30353  11.553  13.508  11.552 -0.0120 -0.1420 -0.2961
11500W        W30354  16.921   6.642   1.219 -0.2121  0.1485  0.1854
11501W        W30355   1.482   0.148  13.874  0.2803 -0.0391  0.1959
11502W        W30356  14.039   9.529  11.777  0.0695 -0.2372  0.1150
11503W        W30357  17.462  10.789   0.941 -0.1830  0.0367  0.0437
11504W        W30358  16.592  12.304  14.005  0.3813  0.3863 -0.0888
11505W        W30359   3.077   1.073   1.883 -0.4092 -0.0556 -0.4224
11506W        W30360   1.972   9.974  11.394  0.2151  0.2500 -0.2256
11507W        W30361  17.437  11.764   1.139  0.1416 -0.0350  0.1171
11508W        W30362   7.414   0.807  13.546  0.2558 -0.2198 -0.2160
11509W        W30363  16.207   0.573   3.819  0.3150 -0.1196 -0.1141
11510W        W30364  14.620  11.376   0.243  0.2236 -0.0332  0.0461
11511W        W30365  12.609  14.881   0.404 -0.0758  0.2115  0.2446
11512W        W30366   1.985   2.096   0.627 -0.2641 -0.2315 -0.1858
11513W        W30367   6.483   2.621   1.933 -0.0042 -0.1470  0.1747
11514W        W30368   5.910  10.939   4.026  0.2358  0.0210 -0.2132
11515W        W30369   8.979  17.239  13.289 -0.3738  0.1102  0.2674
11516W        W30370   9.196   1.416  13.771  0.1469 -0.1042  0.1011
11517W        W30371   6.987  14.362  11.771 -0.3018  0.0308 -0.0446
11518W        W30372  18.171  17.111  11.941 -0.1153  0.1582  0.1298
11519W        W30373   0.468  12.743   0.630 -0.1064  0.1661  0.0441
11520W        W30374  14.739  11.379  14.488  0.2151 -0.0132 -0.0974
11521W        W30375  15.923  18.444  12.534  0.2429  0.0305  0.0305
11522W        W30376   6.712  12.749   1.727 -0.3489 -0.3781 -0.0471
11523W        W30377  13.417   1.526  12.257 -0.0112 -0.1237  0.4637
11524W        W30378   4.436   6.331  13.548  0.0951  0.1199 -0.1448
11525W        W30379   3.838   9.288  11.974  0.0527  0.0264 -0.1130
11526W        W30380   2.128   9.980  14.334 -0.2029  0.1972  0.0477
11527W        W30381  13.887   3.645  12.601  0.2346  0.0534 -0.2534
11528W        W30382   6.726   5.436   0.916  0.1825  0.1516  0.0968
11529W        W30383   4.278   3.961  13.579 -0.0559  0.0442 -0.3263
11530W        W30384  10.436  15.894  11.819  0.0014 -0.2423  0.2433
11531W        W30385   0.077  18.635   2.778  0.2593 -0.3106  0.2327
11532W        W30386  19.114   5.797  13.098  0.1698 -0.0233 -0.1222
11533W        W30387   5.159   6.269   2.537  0.0565  0.0624  0.3021
11534W        W30388  10.766   3.346   1.027  0.1189 -0.0167 -0.1008
11535W        W30389   9.365  13.001  12.252 -0.1764 -0.0427  0.1978
11536W        W30390   5.301  15.477   9.732  0.2986 -0.0940 -0.0107
11537W        W30391  15.090  12.726  10.129 -0.0131 -0.3048  0.0627
11538W        W30392  13.996  15.635   2.486 -0.1700 -0.2929  0.0894
11539W        W30393   7.872  10.185  14.474 -0.2001  0.3386  0.0078
11540W        W30394   5.495   1.659   0.241 -0.2709  0.0095  0.1503
11541W        W30395  17.836   3.815   3.824  0.0280  0.1862 -0.1780
11542W        W30396  11.023  12.465   0.314 -0.3826  0.0699  0.0696
11543W        W30397  14.083  12.807  10.884  0.4072 -0.1278  0.1320
11544W        W30398   4.320   0.739   9.121  0.1015  0.0980 -0.1456
11545W        W30399   5.981   8.923   0.022  0.0098 -0.1832  0.0147
11546W        W30400  15.743   9.475  13.792 -0.1568 -0.0066  0.0079
11547W        W30401   9.661  17.872  10.459  0.2617 -0.3614 -0.0318
11548W        W30402   5.704  15.424  11.541  0.3609 -0.1695 -0.1243
11549W        W30403   7.546  10.633  10.437  0.1913 -0.3141 -0.0200
11550W        W30404  10.619  10.461   1.231 -0.0393 -0.1122 -0.1903
11551W        W30405  10.397  14.718   1.784 -0.2854  0.1843  0.0019
11552W        W30406  12.615   0.620   0.351 -0.0094 -0.0187 -0.0892
11553W        W30407  10.879  10.250   0.564  0.0667  0.0645  0.1643
11554W        W30408   8.505  14.625  14.215 -0.0426  0.1075 -0.1874
11555W        W30409  11.821   3.346   0.030  0.0172  0.0543 -0.3017
11556W        W30410   1.345   1.275   2.523  0.2843  0.2320  0.1576
11557W        W30411   3.759  13.994   4.709  0.2794  0.1149 -0.3238
11558W        W30412  14.864  13.349   3.104 -0.2072 -0.0244 -0.1169
11559W        W30413  16.730   9.379  11.895 -0.1277  0.2920  0.3087
11560W        W30414   1.140   0.548   1.813 -0.3037  0.2055  0.1700
11561W        W30415  19.016  14.358   2.650 -0.4760  0.0984  0.1320
11562W        W30416   7.267   2.985  11.590 -0.2821  0.1403 -0.1306
11563W        W30417   9.015  14.798  13.045  0.2604  0.0009  0.2032
11564W        W30418   3.229   6.308   0.761 -0.1692  0.0683  0.1455
11565W        W30419   4.448   6.320  14.070  0.1275 -0.0184 -0.3872
11566W        W30420   4.180   0.136   0.877  0.1900 -0.1487 -0.3872
11567W        W30421  11.150   6.957   2.571 -0.5696 -0.2197 -0.0024
11568W        W30422  11.318   0.279   3.991  0.0879 -0.0810  0.3108
11569W        W30423  17.222   7.520  11.469 -0.2673  0.2020 -0.0616
11570W        W30424  12.042   7.198   2.788 -0.3401 -0.0130 -0.2098
11571W        W30425  12.576   4.671   3.189  0.2236  0.0942 -0.1865
11572W        W30426   3.693   9.857   1.618 -0.1261  0.0710  0.0123
11573W        W30427  15.361   7.597  12.777  0.3495 -0.0133  0.4509
11574W        W30428  15.902   5.748  14.327 -0.0843  0.2967 -0.0037
11575W        W30429  11.894  11.119   4.236  0.1078 -0.0341 -0.0441
11576W        W30430   5.731  13.200   0.869  0.1048  0.1604 -0.1409
11577W        W30431  18.465  12.118  13.241  0.4173 -0.4894 -0.0806
11578W        W30432   5.842   1.885   0.554 -0.0002  0.0216  0.2404
11579W        W30433  13.103   9.627  10.789  0.0260 -0.0949 -0.0686
11580W        W30434   0.478   1.355  14.119 -0.0062  0.1207  0.2522
11581W        W30435   6.582   7.155  14.384  0.2203  0.0573 -0.0978
11582W        W30436  14.122   5.717  11.225 -0.0444 -0.1545 -0.0908
11583W        W30437   8.379  10.212   3.934 -0.0801 -0.0137  0.1036
11584W        W30438   2.520  17.982   1.523 -0.0113 -0.2308 -0.2131
11585W        W30439  12.958  11.369  14.321  0.1743 -0.3561 -0.2136
11586W        W30440   9.277   1.176  12.810  0.0280 -0.0926  0.0464
11587W        W30441   8.033  11.888  13.889 -0.0777 -0.0814 -0.3309
11588W        W30442   2.641  10.886   3.923 -0.0577 -0.0753  0.0935
11589W        W30443  18.983   5.144   2.405 -0.0561 -0.0445 -0.4842
11590W        W30444  15.559   1.600  10.241  0.0458 -0.1490  0.2834
11591W        W30445  12.029  15.771   3.350 -0.0550 -0.4408  0.3098
11592W        W30446  13.621   8.748   0.286  0.0619 -0.1477 -0.2196
11593W        W30447  12.876   9.480  12.187 -0.0425 -0.0377  0.0230
11594W        W30448   0.365  11.587  11.789 -0.0071  0.2508  0.2991
11595W        W30449  17.443  16.341  10.832  0.2530  0.0992  0.3297
11596W        W30450   4.079  15.235   2.024  0.2358 -0.1108  0.1865
11597W        W30451  15.098   1.427  14.286 -0.0657 -0.2220  0.2056
11598W        W30452  18.965  14.377  14.079  0.2101 -0.0301  0.0412
11599W        W30453  15.203  11.050  11.965  0.0526  0.2006  0.0669
11600W        W30454  16.630  14.830   2.315  0.1178  0.3401 -0.1089
11601W        W30455   0.365   7.242  13.491 -0.3875 -0.2272 -0.2383
11602W        W30456  14.981  12.827   0.454  0.0169  0.0763 -0.0016
11603W        W30457  12.865  12.697   0.265  0.0428 -0.2594 -0.2393
11604W        W30458  17.229  10.316   2.633  0.0494 -0.1802  0.2239
11605W        W30459  17.491  10.162   0.355 -0.1226  0.2558  0.2013
11606W        W30460   4.319  17.256   2.841  0.3775 -0.3559 -0.2594
11607W        W30461  17.409   8.849  14.541  0.0943  0.2534  0.0721
11608W        W30462  14.326   1.649  13.711  0.2507  0.1236 -0.0002
11609W        W30463  12.768  11.573  11.480 -0.1156  0.0447  0.2920
11610W        W30464  16.301   9.594  12.076  0.1260 -0.1244  0.1920
11611W        W30465  17.998   9.169  12.198 -0.1169 -0.1348 -0.2278
11612W        W30466  18.627  16.707   3.608 -0.3191  0.0564  0.2413
11613W        W30467   5.070   9.155  13.690  0.0642 -0.1719 -0.0309
11614W        W30468   1.084  18.127  14.750 -0.2083  0.0292  0.2248
11615W        W30469  16.632   0.675  13.998 -0.0989  0.1080 -0.1951
11616W        W30470  15.202   4.169   2.149 -0.2072  0.1767 -0.0509
11617W        W30471   6.622  12.655  11.630  0.1794  0.3960 -0.1078
11618W        W30472  17.645  17.645  13.540  0.2137 -0.1434 -0.1263
11619W        W30473   1.159  17.969   4.141  0.1588  0.1623  0.1018
11620W        W30474  11.901  15.215   3.318  0.1356  0.0016 -0.2193
11621W        W30475  18.671   8.617  14.705 -0.4092 -0.0584  0.0507
11622W        W30476  13.495  13.588  10.746 -0.0297  0.0629  0.0758
11623W        W30477  13.011  14.437   0.347 -0.1154  0.0003 -0.3657
11624W        W30478   5.485   1.532  13.284 -0.1205 -0.1118  0.2242
11625W        W30479   0.852   7.217  13.300 -0.2629 -0.0724 -0.1903
11626W        W30480  12.776  15.582  14.741 -0.1216 -0.1115  0.1611
11627W        W30481  13.309   0.677   9.832  0.2547  0.1465 -0.1399
11628W        W30482  10.037  16.739   1.529 -0.0822  0.0913 -0.3232
11629W        W30483  17.178   2.915   1.837  0.0034  0.0144 -0.1911
11630W        W30484   2.145   3.874   2.984 -0.0589  0.2045  0.0321
11631W        W30485   6.498  17.763   1.122 -0.1045  0.1458  0.1071
11632W        W30486  14.450   6.477  12.848  0.0252 -0.0947  0.0489
11633W        W30487  17.033  16.210  11.102  0.0453 -0.1873  0.0814
11634W        W30488  13.970   7.162  14.518  0.0607  0.1489  0.2219
11635W        W30489   8.933   4.947   2.060  0.3384 -0.2755 -0.0648
11636W        W30490   3.398   8.511   4.080  0.1590  0.1816  0.1131
11637W        W30491  18.849  13.081   0.033 -0.1944 -0.1782  0.1506
11638W        W30492   2.317   5.140   1.111  0.0330 -0.1200  0.0584
11639W        W30493  14.835   9.887  14.619 -0.0854 -0.2202 -0.2611
11640W        W30494   3.883   2.293  11.407  0.1386 -0.1406 -0.1524
11641W        W30495   1.149   9.035   2.864  0.1239 -0.0095  0.1574
11642W        W30496  11.697  12.122   0.715 -0.3104 -0.2000 -0.4669
11643W        W30497  16.851   0.417  10.987  0.2387  0.1389  0.1427
11644W        W30498   4.803   3.203  13.668  0.0304  0.0194 -0.0214
11645W        W30499  16.844   2.474   3.125 -0.1450 -0.0191 -0.0737
11646W        W30500  17.272   1.687   4.004  0.1346  0.0180 -0.0093
11647W        W30501   9.274   5.139  12.946  0.1279  0.0347 -0.0328
11648W        W30502   9.583   2.746   2.839 -0.1537  0.1793  0.1393
11649W        W30503  14.024   9.102  10.974 -0.2415 -0.1485 -0.0408
11650W        W30504   5.892   6.847  12.683  0.0680  0.1549  0.6875
11651W        W30505   0.672  17.817  14.100  0.0390 -0.1081 -0.1034
11652W        W30506  15.091  13.256  13.861 -0.0406  0.1066 -0.0451
11653W        W30507   4.674   4.736   0.844  0.1442  0.0434 -0.5082
11654W        W30508  17.650   2.477  14.221 -0.3661 -0.1611 -0.2558
11655W        W30509  17.336  12.625  11.471 -0.1148 -0.1429 -0.0941
11656W        W30510  16.275   4.740  14.294  0.0487  0.0195 -0.0905
11657W        W30511  13.428   6.186  10.918 -0.0295  0.0588  0.1046
11658W        W30512  13.238   6.899   0.066  0.0923 -0.0198  0.1174
11659W        W30513  18.212   9.132   1.391 -0.0376  0.0336 -0.0891
11660W        W30514   7.887   0.705   3.072 -0.1131  0.2137  0.0140
11661W        W30515  13.917  13.513   0.071 -0.0278  0.0624  0.0040
11662W        W30516   1.703  10.089   3.176  0.4045 -0.0859 -0.0328
11663W        W30517   7.902  11.126   2.593  0.0264 -0.0408 -0.0431
11664W        W30518   3.168   3.042   3.821 -0.0852  0.1531 -0.3205
11665W        W30519   4.783  18.282  13.695  0.0716 -0.2031  0.0230
11666W        W30520  15.323   3.134   2.049 -0.2295  0.0061 -0.2055
11667W        W30521   0.894   1.029  10.257  0.1186  0.2873 -0.1235
11668W        W30522   0.804   8.132  14.408  0.0472 -0.0447 -0.2692
11669W        W30523  12.231   9.903   2.049 -0.0940 -0.1944 -0.1173
11670W        W30524  18.160  11.303   0.839 -0.0193 -0.0548 -0.0279
11671W        W30525  12.913   7.358  11.166  0.0724  0.2295  0.1536
11672W        W30526   1.429   9.153  12.404  0.0418  0.4068 -0.0775
11673W        W30527   7.404   7.779   5.493  0.2913 -0.2185 -0.1865
11674W        W30528  18.951  18.021  11.662 -0.0345  0.1422  0.1970
11675W        W30529   4.538   7.183  11.760  0.2088 -0.0371 -0.1286
11676W        W30530   5.194   3.952  11.249  0.1469 -0.4037  0.1311
11677W        W30531   2.163  10.932  12.372  0.0156 -0.0398  0.1209
11678W        W30532   3.493  18.211   1.767  0.1260  0.1074 -0.0238
11679W        W30533  12.604   1.752  13.262  0.0463 -0.0547 -0.1615
11680W        W30534   5.153  15.038   3.377  0.2139 -0.1374 -0.6180
11681W        W30535  14.375  17.722   2.136  0.2813 -0.1921 -0.2474
11682W        W30536   0.512   6.609   2.748 -0.2490  0.1137  0.1943
11683W        W30537  16.920   4.920  12.375 -0.1261  0.0771 -0.1160
11684W        W30538   6.411  13.408  12.836 -0.0353 -0.3548  0.1966
11685W        W30539   8.680   8.804   4.238  0.1514  0.1118 -0.2123
11686W        W30540   2.224  16.194   3.167 -0.1463 -0.4710  0.0119
11687W        W30541  17.993  12.413  12.246  0.3147 -0.0128  0.0240
11688W        W30542   6.900   1.166  14.168  0.3472 -0.1679 -0.0604
11689W        W30543  13.729   4.357   5.083 -0.1417 -0.2672  0.1736
11690W        W30544   4.768   7.565  12.053  0.1329  0.1226 -0.0189
11691W        W30545  12.891   4.716   4.072 -0.0668 -0.2902 -0.0260
11692W        W30546  16.632  13.462  14.248  0.0101  0.2468 -0.0774
11693W        W30547  12.482   2.818   0.123 -0.1273  0.2450  0.1014
11694W        W30548   9.175  12.334  10.587 -0.2863  0.2130 -0.4459
11695W        W30549  13.927  11.949   2.236 -0.0218 -0.0173 -0.1559
11696W        W30550  18.737  14.527  14.635 -0.2116  0.2007 -0.0781
11697W        W30551  14.646   4.632   9.706 -0.2509  0.0593  0.1274
11698W        W30552   6.662   8.562  14.064 -0.2396  0.1532  0.0738
11699W        W30553   9.674   3.992   1.781  0.0335  0.0930  0.2290
11700W        W30554   1.555   9.481   4.480  0.1499 -0.1191 -0.1810
11701W        W30555   8.162  15.832   2.118 -0.2638  0.0495  0.1333
11702W        W30556  12.957   6.087  10.773  0.0204  0.1914  0.0469
11703W        W30557   3.636  18.158  11.622  0.1317  0.1380 -0.0388
11704W        W30558  11.248   6.025  13.285  0.0974 -0.1500  0.0556
11705W        W30559   3.040  16.579   1.689 -0.2472 -0.2844 -0.0658
11706W        W30560  14.876   8.557  13.843 -0.2392  0.0142  0.1412
11707W        W30561   3.101  17.522   0.818 -0.0892 -0.0231  0.2434
11708W        W30562   3.119  13.388   4.038 -0.1682  0.0287 -0.0566
11709W        W30563   6.142  12.201   0.140  0.3076  0.0850  0.1522
11710W        W30564   2.731   1.550   3.081  0.2428  0.1416  0.2099
11711W        W30565   8.236  13.618  13.677  0.1434  0.0564  0.0011
11712W        W30566  15.612   8.255   4.320  0.1394 -0.2654 -0.1246
11713W        W30567  18.511   4.375  14.503  0.1018  0.1419 -0.1745
11714W        W30568  15.362  11.817  13.722  0.2484  0.1015 -0.1876
11715W        W30569  14.880  16.783   5.206 -0.0424 -0.0210  0.0911
11716W        W30570   2.270   2.718   1.221 -0.5290 -0.1604 -0.0907
11717W        W30571  12.429   7.689   1.283 -0.2459  0.3506  0.1119
11718W        W30572   0.975  17.686  12.924 -0.0701  0.0237  0.0402
11719W        W30573   8.181   5.667  14.382 -0.2149 -0.3238 -0.0782
11720W        W30574   4.848   5.685   1.464 -0.1806  0.3030 -0.2619
11721W        W30575  16.691   8.738  12.141  0.0383 -0.4565  0.2205
11722W        W30576   4.408   2.423  14.279  0.1977 -0.0824  0.0103
11723W        W30577   2.242   7.984   2.369  0.1223  0.0419  0.2952
11724W        W30578   9.250  19.032  14.308  0.0558  0.1769 -0.5659
11725W        W30579   6.170  15.913  12.852 -0.0804 -0.0609 -0.1541
11726W        W30580  15.051  18.577   0.510 -0.0416  0.1965 -0.0452
11727W        W30581   6.318   7.713   2.287 -0.0024 -0.1124  0.0966
11728W        W30582  15.881  19.088   2.088 -0.2718 -0.3870  0.1088
11729W        W30583   3.331   9.035   4.206  0.1219 -0.1907  0.3660
11730W        W30584  18.157  13.664  12.099  0.1027 -0.1101 -0.0415
11731W        W30585   7.606   7.783   5.006  0.1312  0.0085 -0.0234
11732W        W30586   7.356   3.982   0.351  0.0937  0.1786  0.0005
11733W        W30587   0.763   3.626   2.966  0.3892  0.0543  0.1215
11734W        W30588   8.063   5.146   0.583  0.2886 -0.0473  0.3880
11735W        W30589   2.386   8.229  13.119  0.0075 -0.0845 -0.1263
11736W        W30590  12.597   1.990   3.680  0.1867  0.2877  0.0253
11737W        W30591  17.501  18.169  10.317 -0.0172 -0.1222 -0.0581
11738W        W30592   8.304  17.766   3.706  0.0653  0.0917  0.0685
11739W        W30593  15.215   5.948   0.217  0.3247  0.1041 -0.2297
11740W        W30594   1.443  16.803  10.772 -0.1597  0.1751  0.1378
11741W        W30595  10.247  11.754   2.724  0.0751  0.1005  0.0811
11742W        W30596   9.159   3.387   1.085 -0.4407 -0.0790  0.1076
11743W        W30597   7.294  14.204  10.595 -0.1899  0.2679 -0.2514
11744W        W30598   2.712   1.909  10.816  0.0210 -0.0447 -0.2957
11745W        W30599   2.154   3.446   0.986  0.2557 -0.1549 -0.0364
11746W        W30600  18.778   5.347   1.424  0.0319 -0.0636 -0.0529
11747W        W30601  18.789  11.434  12.122  0.1255  0.2030 -0.1778
11748W        W30602   6.436   4.671   2.335  0.1568 -0.0559 -0.1362
11749W        W30603   8.386   9.705   1.256  0.1638 -0.0404  0.0882
11750W        W30604  12.489   1.289  13.508  0.3154  0.2496 -0.2210
11751W        W30605   7.041  12.862   2.160 -0.0222  0.0285 -0.2916
11752W        W30606  17.940   1.515   0.532  0.3675 -0.2544  0.0975
11753W        W30607  13.110  10.296   0.788  0.0067  0.4168 -0.0690
11754W        W30608  14.430   1.366  12.184 -0.2203  0.0952  0.3096
11755W        W30609  13.193  18.543  10.823 -0.0864 -0.0078  0.1064
11756W        W30610   2.682   2.276   1.272 -0.1819  0.1771 -0.3923
11757W        W30611   7.999  16.865   0.072 -0.2475 -0.1495 -0.0965
11758W        W30612  11.358   9.449   2.718 -0.1245  0.1627 -0.1009
11759W        W30613  18.499  11.780  12.515  0.0182 -0.0903 -0.0017
11760W        W30614  12.425  16.381   5.322 -0.1279  0.0527  0.0317
11761W        W30615   7.152  12.558  11.454 -0.1048 -0.0192  0.2416
11762W        W30616   9.929   3.053   4.824  0.0281 -0.1242  0.0195
11763W        W30617   7.366  10.082   1.243  0.4509 -0.3509  0.1930
11764W        W30618  10.397   2.296  12.366 -0.0173  0.0191 -0.1808
11765W        W30619  13.502   1.777   3.841  0.1525  0.1065  0.4050
11766W        W30620  17.209  14.818  11.880 -0.2903  0.1473  0.1390
11767W        W30621  14.152  18.372   4.858  0.2428  0.1121  0.2356
11768W        W30622   8.065  18.814   3.552 -0.0599  0.2097  0.4151
11769W        W30623  12.479   1.621  10.222  0.1586  0.3490  0.2228
11770W        W30624  11.189  18.064   3.357  0.0193 -0.2973 -0.2847
11771W        W30625   7.541   2.813  12.767 -0.0807 -0.0921 -0.1047
11772W        W30626  12.842  11.782   4.507 -0.1371 -0.1879  0.3449
11773W        W30627   9.903  12.570   3.740 -0.0286  0.2548  0.0674
11774W        W30628  12.482  15.727   0.979 -0.0972  0.1236 -0.0568
11775W        W30629  11.293   5.221  10.895 -0.0849 -0.1678  0.0232
11776W        W30630  11.269  13.332   1.629  0.0686  0.1221  0.4066
11777W        W30631  14.138  13.126   1.931  0.0892  0.2152  0.0266
11778W        W30632   0.354  16.497  13.025  0.0370  0.1183  0.1128
11779W        W30633   1.839  11.840  12.885 -0.2304  0.1093  0.1835
11780W        W30634  14.421   8.650  12.245 -0.0217  0.0846  0.3100
11781W        W30635  10.939   9.707   3.251 -0.2097 -0.1582 -0.2043
11782W        W30636   2.394  18.954   3.865  0.1411  0.0739 -0.1816
11783W        W30637   0.657  16.488  12.416  0.2517  0.4316  0.0698
11784W        W30638   2.378   5.850   0.904 -0.1853 -0.1774  0.3019
11785W        W30639  12.957  17.965   2.653 -0.1619 -0.2511  0.0523
11786W        W30640  12.291   7.964  12.235 -0.2307  0.0616  0.2200
11787W        W30641   4.630   9.776   1.337 -0.0856 -0.1454  0.2553
11788W        W30642   8.674  10.570   1.282  0.3458  0.1029  0.1457
11789W        W30643  10.894   7.244  14.456 -0.1766 -0.1872 -0.2504
11790W        W30644   0.923   9.989   2.633 -0.0907 -0.2722 -0.1482
11791W        W30645  15.102  16.122   0.315  0.1195  0.0432  0.1043
11792W        W30646   6.066   9.771   0.871 -0.0456 -0.1555 -0.1057
11793W        W30647   1.115   9.359  13.703 -0.0537  0.2464 -0.0550
11794W        W30648   1.715   3.586   2.168 -0.2465  0.0465 -0.3753
11795W        W30649   9.975   1.868  12.976  0.3371 -0.0326 -0.0504
11796W        W30650   6.206  12.253   2.396  0.1540 -0.1257 -0.1876
11797W        W30651   8.479  13.209  10.822 -0.0866  0.0458  0.1620
11798W        W30652  10.045  16.426   0.391 -0.0544  0.5142 -0.2361
11799W        W30653  11.329   8.758   3.789 -0.0130 -0.1553  0.2956
11800W        W30654  14.709  15.676  11.771  0.1978  0.0272  0.0868
11801W        W30655   4.706  11.427   5.495 -0.1648 -0.0539 -0.0416
11802W        W30656  11.570   3.580   0.353  0.0683 -0.2805 -0.1832
11803W        W30657  17.418  18.056  13.369  0.1621  0.0989 -0.0731
11804W        W30658  16.281   8.301   1.083  0.0078 -0.2796  0.2246
11805W        W30659  18.893  16.385  13.900  0.1046 -0.0243  0.0904
11806W        W30660  16.447  11.443  10.988  0.2610  0.3033 -0.1710
11807W        W30661   8.723   8.030  10.847 -0.0075  0.0910 -0.0780
11808W        W30662  14.178  12.099   1.310  0.1515 -0.0523 -0.3109
11809W        W30663  16.898   4.481   1.960 -0.0672 -0.0460 -0.3470
11810W        W30664   9.109   4.008   2.325 -0.1592  0.1754  0.0521
11811W        W30665   9.388   8.848   0.938 -0.1493 -0.0808  0.0115
11812W        W30666   5.640  10.497  14.721 -0.0123 -0.1224  0.2254
11813W        W30667  11.645   0.169   2.625 -0.0254 -0.3239  0.1322
11814W        W30668  10.286  10.369  14.000 -0.2084 -0.0162  0.1222
11815W        W30669   9.575  15.191   2.187 -0.0034 -0.0657  0.0654
11816W        W30670   9.058   1.526  10.508  0.0092  0.1201 -0.4258
11817W        W30671   4.291  14.406   2.252 -0.0355  0.0559 -0.2670
11818W        W30672  12.176   1.266   3.026  0.1955 -0.2008  0.2896
11819W        W30673  18.670  11.386  12.958 -0.0123 -0.0078 -0.1118
11820W        W30674  16.644   6.740  12.999 -0.0631  0.1685 -0.1327
11821W        W30675   6.660   9.573  14.198 -0.1228  0.0040  0.3174
11822W        W30676   9.846  14.255  11.564 -0.1665  0.0601 -0.1672
11823W        W30677   3.171   6.144  10.940  0.3595 -0.0763 -0.1599
11824W        W30678   8.676   3.676  14.174  0.0494  0.0483  0.1658
11825W        W30679   1.409  10.609  13.906 -0.2002 -0.2556 -0.0632
11826W        W30680   4.009   6.597   1.016 -0.0663 -0.0578 -0.2815
11827W        W30681   2.411   4.844   0.527  0.0968 -0.1110  0.0613
11828W        W30682   1.102  16.604  12.170 -0.0908 -0.1466 -0.1370
11829W        W30683  16.193  16.799  14.175 -0.2587  0.0135 -0.0359
11830W        W30684  12.815   3.692   0.039  0.0648  0.0955  0.1361
11831W        W30685  13.006  18.688  11.311 -0.3079 -0.0231 -0.0679
11832W        W30686   6.292   8.387   0.655  0.1360 -0.0445 -0.1800
11833W        W30687  19.133   5.945   2.458  0.0672 -0.2618  0.0979
11834W        W30688  16.629   3.460  13.706 -0.2189  0.0105  0.3018
11835W        W30689  14.459   9.186  10.706  0.0949 -0.2683 -0.1525
11836W        W30690   8.125   2.107   3.633  0.0488 -0.0994 -0.1664
11837W        W30691  10.822  11.299  14.094 -0.1071  0.0698  0.1879
11838W        W30692   1.462  16.328   0.621 -0.0308 -0.2945 -0.1765
11839W        W30693   6.700   1.352   3.396  0.0866  0.0230 -0.0914
11840W        W30694  16.042  16.455  11.456  0.1430 -0.2371  0.2365
11841W        W30695   2.153   8.727  14.063 -0.1330  0.0893  0.0626
11842W        W30696  17.928  18.023   1.982 -0.0471  0.0710  0.2254
11843W        W30697   3.559  17.790   2.967 -0.3278  0.2592 -0.2123
11844W        W30698   5.742  17.446  13.912 -0.0456  0.0032  0.2797
11845W        W30699  12.837   7.398  14.001  0.1416  0.2649  0.1177
11846W        W30700  17.389  10.023  11.701  0.0326 -0.0165 -0.0280
11847W        W30701   5.308   2.033   2.119  0.3586 -0.0284  0.2617
11848W        W30702  10.350  14.567  12.714  0.0554  0.2900  0.3787
11849W        W30703  12.387  13.750  10.782 -0.1634  0.0352 -0.0437
11850W        W30704   3.816   3.193   1.084 -0.0371 -0.1401  0.0878
11851W        W30705   4.957  17.630  13.469 -0.0084 -0.3278  0.2156
11852W        W30706  12.850   3.681  12.924  0.1114 -0.0149 -0.2283
11853W        W30707   5.963   1.937   3.178  0.1233  0.0783 -0.0061
11854W        W30708  11.968   0.328   2.949 -0.2120  0.1923  0.1027
11855W        W30709   7.676   8.869   4.524  0.3024 -0.0281  0.0243
11856W        W30710   4.998  15.676  12.115 -0.1874  0.0130 -0.1545
11857W        W30711  11.262   6.626  11.307  0.0561  0.2517  0.5870
11858W        W30712  14.037   9.857   3.770  0.2644  0.0701  0.4272
11859W        W30713   4.604   8.881   1.075  0.2752 -0.1668  0.4431
11860W        W30714   9.389  10.210   3.684 -0.0124 -0.0395  0.2134
11861W        W30715  15.235  18.486   3.252 -0.1445 -0.2350  0.1755
11862W        W30716  15.888  10.142  14.428  0.0647  0.1683 -0.2989
11863W        W30717  11.126   1.708  12.586  0.0507  0.0219 -0.0603
11864W        W30718  18.832  19.010  11.240 -0.1887  0.1773  0.0598
11865W        W30719   4.283  16.214  12.420 -0.3399  0.2749  0.6591
11866W        W30720   6.465   2.669   0.213  0.4712 -0.3241  0.1259
11867W        W30721   0.549   4.780  11.923  0.2319 -0.1102 -0.1109
11868W        W30722  10.136   1.615  14.310 -0.3030  0.0245  0.2544
11869W        W30723  15.215  10.212   1.356 -0.3233  0.0862  0.2800
11870W        W30724  15.144  14.190  13.030  0.2903  0.3456  0.3138
11871W        W30725   9.823  16.807   0.114 -0.3668  0.2986 -0.2112
11872W        W30726   9.513  18.266   5.471 -0.2725 -0.0103 -0.2211
11873W        W30727   9.068   9.838  14.673 -0.1711  0.1894 -0.2296
11874W        W30728  17.201  15.573  14.210 -0.2877  0.2213  0.1308
11875W        W30729  15.049   2.555   3.861 -0.0611 -0.2708  0.0485
11876W        W30730  14.366   2.183  13.690  0.2888 -0.2831 -0.0380
11877W        W30731  12.252   3.217  13.554  0.0509 -0.0466  0.2744
11878W        W30732  16.828  10.467   2.171  0.4311  0.1744 -0.2030
11879W        W30733   0.959  12.255  11.716 -0.2505 -0.1437 -0.0991
11880W        W30734   9.989   4.223  14.776  0.1433  0.1678 -0.1613
11881W        W30735  12.786  16.226   4.114  0.2453 -0.1878  0.1707
11882W        W30736  13.476   6.638  13.658  0.0564 -0.0977 -0.4962
11883W        W30737   9.055   9.912  11.495  0.0826 -0.2055  0.0784
11884W        W30738  14.435  17.096   4.983 -0.0057  0.0425 -0.1199
11885W        W30739   7.515   5.914   1.822 -0.0716  0.1771 -0.0412
11886W        W30740  11.098  18.654   3.674 -0.2465  0.0515  0.2554
11887W        W30741  12.736  11.604   1.648  0.3243  0.4520 -0.3453
11888W        W30742   9.732   3.064   2.531 -0.3387 -0.1424  0.1421
11889W        W30743  12.260  13.736  11.461 -0.0310  0.0977  0.0645
11890W        W30744  13.565   1.384  14.277  0.0853  0.1389 -0.0244
11891W        W30745  10.866  15.160   1.229  0.0987  0.0367 -0.0340
11892W        W30746   7.261  12.972  10.776  0.0501  0.1412 -0.0038
11893W        W30747   6.715   9.052   1.289  0.1901  0.0586 -0.0297
11894W        W30748  19.074  16.578   3.921  0.1847 -0.0415 -0.3192
11895W        W30749  17.297  18.947  12.675 -0.1623 -0.0805  0.1492
11896W        W30750  18.899  11.188  13.349  0.3042  0.3281 -0.0682
11897W        W30751   8.588   7.663  12.729 -0.0797  0.0943 -0.0698
11898W        W30752   4.310   2.177   1.036  0.0840 -0.2401  0.0050
11899W        W30753  14.785   9.331   5.170  0.3318  0.2281 -0.1798
11900W        W30754  16.832  13.454  10.756  0.2582 -0.2703  0.2506
11901W        W30755  15.879   0.175   9.243 -0.0267 -0.1123 -0.0991
11902W        W30756   1.344   9.302   1.076  0.2461  0.0308  0.2214
11903W        W30757  12.131   2.366  12.064 -0.0840 -0.0842  0.4573
11904W        W30758   1.728  14.049  13.704  0.1631  0.1121 -0.0504
11905W        W30759   3.003  15.280  13.657 -0.0911 -0.2421 -0.3756
11906W        W30760  14.413   0.602   2.387 -0.1954  0.1092 -0.0242
11907W        W30761   6.638  14.418   3.112 -0.2343 -0.1811 -0.1422
11908W        W30762  16.208  17.260   3.798  0.0080 -0.1579 -0.1613
11909W        W30763   7.804  12.825   4.368 -0.2711  0.1149 -0.1313
11910W        W30764  14.450  18.238  14.668 -0.1698  0.0250  0.0537
11911W        W30765  13.436   9.568  13.018 -0.2725 -0.4260  0.0651
11912W        W30766   6.022   7.766   3.109 -0.1170  0.0943 -0.1113
11913W        W30767  15.140   0.691   3.614 -0.0919 -0.1952  0.1592
11914W        W30768   6.825  11.915  12.073  0.3590  0.5626 -0.1256
11915W        W30769  11.336  18.379  12.503  0.1959  0.0838 -0.2820
11916W        W30770  10.347   3.028  11.729 -0.1116 -0.0907  0.0443
11917W        W30771   7.456   4.384  12.434 -0.1423  0.0928 -0.1740
11918W        W30772  11.723   7.330  12.836  0.0871  0.2816 -0.0003
11919W        W30773   8.175  17.116  13.211 -0.4523 -0.0718  0.1496
11920W        W30774   0.006  17.614  12.406  0.0671  0.2122 -0.0274
11921W        W30775  10.950   7.075  11.885  0.3295 -0.0322  0.1429
11922W        W30776   0.399  19.102   1.000  0.0034  0.2869 -0.2431
11923W        W30777  17.366   4.302  12.399  0.0818  0.0770 -0.0904
11924W        W30778  15.189   4.792   4.341  0.1698  0.0800  0.1344
11925W        W30779  17.708  12.365   0.140  0.1109  0.2708 -0.2634
11926W        W30780  14.023  16.631  12.694  0.1827 -0.2500 -0.1773
11927W        W30781  15.606   8.029   1.026 -0.0873  0.1621  0.0694
11928W        W30782   4.353  15.026   0.171 -0.2511  0.3137 -0.0884
11929W        W30783  16.361  11.083   4.308  0.1484  0.0752  0.1164
11930W        W30784  14.692  11.982   1.350  0.0094  0.0912  0.0102
11931W        W30785   3.514  13.531  11.689 -0.2907  0.0649  0.3062
11932W        W30786   8.381  14.072  14.009  0.2704  0.1856  0.3356
11933W        W30787   8.376   4.390   2.581  0.0414 -0.0398  0.0994
11934W        W30788  11.138   7.840   4.238  0.3658 -0.0139  0.1729
11935W        W30789  11.261  11.510  12.296  0.1559 -0.0716  0.0771
11936W        W30790   1.632  11.953   2.172  0.0669  0.0017  0.1993
11937W        W30791   5.407  19.081   0.314 -0.2278  0.2541  0.3768
11938W        W30792   4.301  16.587   3.738 -0.2113 -0.1307 -0.0180
11939W        W30793  11.124   5.563   2.143 -0.1130  0.0713 -0.1987
11940W        W30794   9.080   9.064   1.264 -0.2253  0.1839 -0.3892
11941W        W30795   1.425   8.630  12.339 -0.2044 -0.0139 -0.0605
11942W        W30796   0.288  16.844  12.610  0.1150  0.2466  0.0337
11943W        W30797  19.046   9.306  13.634  0.0222 -0.2630  0.0624
11944W        W30798  19.076  12.577   1.240 -0.0947  0.0368  0.3700
11945W        W30799   9.349  14.071  11.720  0.3388 -0.3745  0.1572
11946W        W30800  15.070  18.186  13.002  0.3805 -0.3262  0.1347
11947W        W30801  12.793   0.702  13.964  0.1607  0.3407 -0.2391
11948W        W30802  10.943   6.921   0.566 -0.3022  0.0315  0.1144
11949W        W30803   0.887  16.664   4.131  0.0266  0.3322 -0.0584
11950W        W30804  16.859  18.466  14.014  0.0493 -0.2230 -0.0533
11951W        W30805  10.858  11.349  12.057 -0.3360  0.0752  0.0413
11952W        W30806  17.481   2.864  13.872 -0.1148  0.2546  0.1045
11953W        W30807   1.964  17.917  13.123 -0.1620  0.1044 -0.0999
11954W        W30808   3.128   5.586  12.451  0.1383 -0.1331  0.2915
11955W        W30809  10.485  13.301  10.016 -0.0516  0.2388  0.0595
11956W        W30810  10.965  16.011   9.242 -0.2725 -0.0560 -0.0340
11957W        W30811  17.915   6.665   4.977 -0.1182  0.1395 -0.3705
11958W        W30812   7.066   5.007  10.519  0.2707 -0.0210  0.1655
11959W        W30813   6.402  16.526  14.240 -0.0839  0.0397 -0.1602
11960W        W30814  13.687  12.090  11.462 -0.1433  0.4705  0.1841
11961W        W30815   6.711  14.821   0.977  0.2605  0.0248  0.2593
11962W        W30816   2.164   9.928  10.952 -0.1855  0.2816 -0.0948
11963W        W30817  17.419  16.944   0.237  0.0647 -0.0374 -0.1861
11964W        W30818  13.450  10.411  13.430  0.1344  0.0151 -0.1655
11965W        W30819  15.098   2.141   3.432 -0.3444 -0.3300  0.1046
11966W        W30820   8.290   3.085  13.293  0.4653 -0.1262 -0.2614
11967W        W30821   1.297  16.930   1.327  0.1257  0.5186  0.0734
11968W        W30822  11.163  12.662  14.252  0.2042 -0.0782 -0.3594
11969W        W30823  16.473  11.894   0.975 -0.3376  0.1595  0.1571
11970W        W30824  15.545   6.166   0.630  0.2499  0.0888  0.1072
11971W        W30825  18.653  15.067   3.038  0.0933 -0.0394  0.1366
11972W        W30826   7.016  17.304   4.034  0.2064  0.1822 -0.2763
11973W        W30827   8.387   3.606   2.163  0.1468 -0.1286  0.0819
11974W        W30828  11.412  13.458   4.459 -0.1610  0.1149 -0.1286
11975W        W30829   8.752   2.032   3.687  0.2867  0.2293  0.0345
11976W        W30830   2.130  11.838   2.429 -0.3159 -0.2121  0.2870
11977W        W30831   4.110  10.613   3.191  0.3044  0.2231  0.1098
11978W        W30832  18.170   8.307  12.370  0.1889 -0.2000 -0.1726
11979W        W30833   8.888  16.552  13.200  0.0972  0.0454  0.0314
11980W        W30834   8.843   3.544  12.069  0.1788 -0.1579 -0.2464
11981W        W30835  13.120  11.128  10.932  0.1235  0.0354  0.2655
11982W        W30836   7.935   9.339  14.701  0.0328  0.2057  0.0503
11983W        W30837   4.305   7.113   4.496  0.2198  0.0311  0.1025
11984W        W30838   3.632   6.132  13.027 -0.1507 -0.3246  0.0138
11985W        W30839   9.854   4.850  12.078  0.1608  0.3559  0.0838
11986W        W30840   0.247  12.092   3.879 -0.5941 -0.3618 -0.0849
11987W        W30841  16.843  11.358  11.747 -0.3751 -0.1984 -0.0514
11988W        W30842   0.101  18.419  12.471  0.1831 -0.1992  0.1534
11989W        W30843   4.073  12.217  13.482  0.1330  0.1586  0.2832
11990W        W30844   8.641   7.585   1.110  0.0255  0.0362 -0.0066
11991W        W30845   1.550  14.483   0.946 -0.1173  0.1849  0.0719
11992W        W30846  15.033   9.040  12.144  0.0885  0.0369  0.2218
11993W        W30847  17.333   3.677   3.912  0.1232 -0.0732  0.3641
11994W        W30848  16.960   2.478   2.636 -0.1090 -0.1475  0.1834
11995W        W30849  15.168  13.132   4.731 -0.1662 -0.2511 -0.0859
11996W        W30850  19.111   3.826  13.500  0.1651  0.0889 -0.0210
11997W        W30851   4.913   0.452   5.139 -0.1534 -0.1000 -0.1798
11998W        W30852   0.309  18.294   1.945 -0.0255 -0.0032 -0.3826
11999W        W30853  10.008   3.765  13.036 -0.0071 -0.1061 -0.0826
12000W        W30854  16.230   3.319  12.432  0.2774 -0.1538 -0.2555
12001W        W30855   1.196  16.523   1.017 -0.1142 -0.1318  0.4201
12002W        W30856  16.219   2.836   4.429  0.0302 -0.0371 -0.1506
12003W        W30857   6.064   9.365  13.394 -0.0426  0.1240 -0.2024
12004W        W30858   2.002   8.622  14.523 -0.1359  0.2813  0.1669
12005W        W30859  18.441   4.607  10.973  0.0479  0.0139 -0.0243
12006W        W30860  15.286  12.287  11.324 -0.0172  0.0526 -0.1143
12007W        W30861   6.428   2.006   2.759  0.2524 -0.0670  0.1262
12008W        W30862  11.345   6.749  14.031 -0.2519 -0.2224 -0.0341
12009W        W30863  13.216  18.004  13.271  0.1556 -0.1455 -0.1942
12010W        W30864   7.020  19.126  12.031  0.0659  0.0332  0.2272
12011W        W30865  14.832  18.689  10.657  0.1053  0.1325 -0.0013
12012W        W30866  18.645   9.220  13.144 -0.0273 -0.1831 -0.0340
12013W        W30867   3.277  12.046   1.995  0.2029  0.0708 -0.1845
12014W        W30868  13.132   7.090  12.473 -0.1221  0.0007 -0.0183
12015W        W30869  11.971   1.331   1.074  0.0364  0.0296  0.0733
12016W        W30870  17.314   6.001   0.538 -0.1510  0.0736  0.3082
12017W        W30871  10.299   5.283   1.239 -0.1577 -0.2079 -0.2517
12018W        W30872  16.356   2.042   1.097  0.0128  0.0415 -0.0418
12019W        W30873   1.067  13.170  13.055 -0.1683  0.4553  0.0461
12020W        W30874  14.814   8.492   2.491  0.2131 -0.0933  0.2762
12021W        W30875   9.681  11.742  12.779 -0.0653 -0.3405  0.3808
12022W        W30876   7.641   6.247  14.530 -0.0433  0.3646 -0.0075
12023W        W30877   3.085  12.439  10.378 -0.1395 -0.3091 -0.0345
12024W        W30878  14.365  14.012  12.555  0.1566  0.0328  0.1096
12025W        W30879   1.187  15.822   4.557 -0.2586  0.0693  0.2771
12026W        W30880  13.857   7.201  11.370 -0.1738 -0.0863  0.0217
12027W        W30881   0.419  11.145   2.545  0.2265 -0.0315  0.0456
12028W        W30882   7.774   1.825  11.579 -0.0586  0.0962  0.0357
12029W        W30883  16.698  16.573   3.806 -0.3551  0.3038  0.0067
12030W        W30884  13.842  17.225   1.505  0.1621  0.0680  0.1921
12031W        W30885  18.551  17.388   1.076  0.3292 -0.1313  0.0705
12032W        W30886  12.383  14.709  13.121  0.2472 -0.1663 -0.2439
12033W        W30887  13.689  12.207   3.507 -0.1657 -0.0663  0.1854
12034W        W30888   0.079  14.712  12.515  0.0260  0.2998  0.0186
12035W        W30889   8.889   4.013  10.747  0.1732  0.1189  0.0291
12036W        W30890   9.075  15.376   0.856 -0.1215  0.2377  0.0357
12037W        W30891   5.839   2.776   2.559 -0.2307  0.0287 -0.3863
12038W        W30892   2.811   1.013  13.710  0.1583  0.3786 -0.1170
12039W        W30893  12.719  17.067   2.928 -0.0570 -0.0417 -0.3217
12040W        W30894  17.082   9.714  12.163  0.0560 -0.1156  0.3053
12041W        W30895  12.848  13.539   0.516 -0.1501  0.1007 -0.0265
12042W        W30896   3.525   8.302  13.594  0.0091 -0.0310 -0.0511
12043W        W30897  17.158   0.470  11.451  0.2187 -0.0295 -0.0768
12044W        W30898   2.978  19.065  12.189  0.0455 -0.1121  0.0511
12045W        W30899   0.298   3.143   1.345  0.2262  0.1629 -0.4095
12046W        W30900   0.084  11.316   0.976 -0.1386 -0.0832  0.2192
12047W        W30901  13.763  11.887   4.525 -0.0724  0.0554 -0.1289
12048W        W30902   8.676  14.183   2.703  0.0791  0.1530 -0.0028
12049W        W30903  15.435   3.992   0.319  0.2231  0.6860 -0.0581
12050W        W30904   6.582  15.759   2.055 -0.0322 -0.1013  0.0580
12051W        W30905  19.018  13.487   1.282 -0.0460 -0.2307 -0.2516
12052W        W30906  10.495   4.466   4.389  0.0563 -0.0008  0.0319
12053W        W30907  12.520  10.587  11.978 -0.0563  0.2918  0.0788
12054W        W30908  16.387   8.738  13.810  0.2331  0.0111  0.0300
12055W        W30909   2.350   8.216   4.090  0.1039 -0.1338  0.3073
12056W        W30910   1.862  15.641   0.676 -0.0139  0.1180  0.2463
12057W        W30911  10.615  13.799  12.975 -0.1818  0.1967  0.0752
12058W        W30912   1.914  17.287  13.796  0.0078  0.0114  0.0685
12059W        W30913   5.740   0.328   9.552  0.1959  0.0249  0.1411
12060W        W30914   6.518   3.963   0.399  0.0323 -0.2215 -0.0048
12061W        W30915   9.656   2.554   0.928 -0.0800  0.3090 -0.2166
12062W        W30916   9.844   2.616   0.360  0.2062  0.1710  0.1414
12063W        W30917  11.068  13.544  11.112  0.0742  0.0866 -0.1580
12064W        W30918  12.166  16.235  14.395 -0.1572 -0.1950 -0.0601
12065W        W30919   1.771  16.968  13.070 -0.1123  0.2385  0.2980
12066W        W30920  13.808  12.047   1.662 -0.2232 -0.0344 -0.1706
12067W        W30921   4.770  18.120  14.691 -0.0335  0.3593 -0.1726
12068W        W30922   4.464  10.448   0.780 -0.0138 -0.5106  0.2757
12069W        W30923   0.918   7.492   2.628  0.0120  0.0150  0.0612
12070W        W30924  10.898   5.576  11.254 -0.2059  0.1190 -0.0070
12071W        W30925   1.639   1.964  13.293 -0.0188 -0.1785  0.1555
12072W        W30926  18.348  18.700  10.630  0.1017 -0.0465 -0.2203
12073W        W30927   2.621  18.463   0.695  0.2146 -0.1275  0.1537
12074W        W30928   0.112  18.738  11.197  0.3107 -0.2146 -0.1138
12075W        W30929   0.362  14.582   2.592 -0.1880  0.3697 -0.1272
12076W        W30930   3.627   7.830  10.578 -0.0876  0.0883 -0.1157
12077W        W30931  10.472   8.527   0.082  0.0472 -0.0669  0.2026
12078W        W30932  16.384  16.504   1.065  0.0779 -0.2974  0.1857
12079W        W30933  11.871   1.937   1.877  0.1671 -0.1722  0.0320
12080W        W30934   9.214   1.177  10.218 -0.1254  0.1533  0.0383
12081W        W30935   2.051  15.329   2.322  0.2558 -0.0677  0.0815
12082W        W30936   3.426   2.700   4.278  0.0749 -0.0268  0.1560
12083W        W30937  18.602   0.067   1.537 -0.0812 -0.0316  0.0606
12084W        W30938   5.266  18.698   3.086  0.1687  0.0170  0.2079
12085W        W30939   6.024   3.551  11.666 -0.1017 -0.2500  0.0246
12086W        W30940  11.150   2.899   3.592  0.0357 -0.1200 -0.1748
12087W        W30941   1.858   4.255  11.467 -0.2770  0.0681  0.1370
12088W        W30942  15.486  14.316   1.547  0.1201 -0.0587  0.3606
12089W        W30943   9.334   7.587   0.501  0.0116  0.0898  0.3840
12090W        W30944   2.785  13.363  10.896  0.4362  0.1416 -0.0158
12091W        W30945   6.906   2.049  11.346  0.0623  0.0098 -0.7436
12092W        W30946   3.703   7.771   1.778  0.0339  0.0155 -0.0950
12093W        W30947  11.579   8.933  11.561 -0.0725  0.1198  0.1947
12094W        W30948   1.271   7.918   0.995 -0.1910  0.0711  0.0728
12095W        W30949   0.518   1.622  11.091 -0.0090 -0.0041  0.2091
12096W        W30950   2.926   8.744   0.163 -0.0076  0.0659  0.0208
12097W        W30951  16.326   1.577  14.347 -0.0212  0.0060  0.1809
12098W        W30952   2.966   0.069   0.424  0.1046 -0.1152  0.2029
12099W        W30953  17.596  18.810   4.161 -0.1025 -0.1004  0.1835
12100W        W30954  18.479   7.537   3.623 -0.3272 -0.4047 -0.0891
12101W        W30955   0.745  17.942   2.847  0.3593  0.4572 -0.2282
12102W        W30956   7.562  17.989   9.520 -0.2528  0.1719  0.1092
12103W        W30957  11.405   7.757   1.426  0.0002  0.3277 -0.2251
12104W        W30958   4.807   6.629  14.321  0.0182 -0.1113 -0.0302
12105W        W30959  15.866   8.253   1.393  0.1141  0.0962  0.0550
12106W        W30960   5.797  18.359   3.969 -0.2274 -0.1034 -0.3455
12107W        W30961  10.310   9.770   0.044  0.2068 -0.2358  0.1708
12108W        W30962  12.789   8.879  12.380  0.0152  0.2500 -0.0353
12109W        W30963  10.691  11.172   0.734 -0.0402  0.1790 -0.1348
12110W        W30964   5.000  18.653   1.177  0.3795 -0.2519 -0.0373
12111W        W30965  14.087  11.665  13.259  0.1280 -0.0128  0.1297
12112W        W30966   8.711  12.731  14.666 -0.2336 -0.2539 -0.1270
12113W        W30967  16.333   4.259  14.202 -0.3740 -0.2388 -0.2079
12114W        W30968  15.255  15.302  12.634  0.1841 -0.0630 -0.1935
12115W        W30969  17.025   8.055   0.469  0.2433 -0.2260 -0.2552
12116W        W30970  13.519   4.405   1.102 -0.1416  0.1894  0.1530
12117W        W30971   2.058   5.595  11.859  0.1674  0.0065  0.2431
12118W        W30972   9.778  15.928   2.783 -0.2263 -0.0966 -0.0890
12119W        W30973   4.956   7.830   9.562 -0.3808 -0.2054 -0.1536
12120W        W30974  14.348  12.755   5.594 -0.0475  0.2752  0.0086
12121W        W30975   9.976  17.762   1.801  0.0775 -0.2897  0.0150
12122W        W30976  17.838  13.794  14.775  0.2791  0.1864 -0.0160
12123W        W30977  16.946   7.781  10.477 -0.1821 -0.0171 -0.1677
12124W        W30978   8.419   8.216  11.267  0.3120  0.1578  0.0959
12125W        W30979   0.852   7.343  12.381  0.1193 -0.1332 -0.0295
12126W        W30980   2.587   1.498  11.668  0.2785  0.1013 -0.1530
12127W        W30981   4.510  11.932  13.897  0.0183  0.1759  0.0730
12128W        W30982  16.289   7.274  10.871  0.3272 -0.1078 -0.5606
12129W        W30983  17.281   6.046   1.588 -0.0623  0.1703 -0.0020
12130W        W30984  18.332  16.322   2.108 -0.0058  0.0520 -0.0759
12131W        W30985  15.817   7.162  13.303 -0.1743  0.1413  0.2169
12132W        W30986   5.197  12.502  13.448  0.2104 -0.0612  0.1330
12133W        W30987   5.331  13.753   3.716  0.0424 -0.0780  0.0467
12134W        W30988  14.735  18.878   0.204 -0.2488  0.1001  0.0428
12135W        W30989   1.589   1.668   2.844  0.1147 -0.1085  0.1953
12136W        W30990  18.124  19.032  11.908  0.0397 -0.2086 -0.1263
12137W        W30991  18.110   5.298  12.405 -0.3432 -0.1642 -0.1232
12138W        W30992  18.742   1.966   0.121 -0.1371 -0.2174  0.0324
12139W        W30993  12.932  17.158  11.852 -0.0815  0.1638 -0.0723
12140W        W30994   8.644   6.562   2.908  0.1263 -0.4032  0.2544
12141W        W30995  17.835  12.106  14.527 -0.0775 -0.3008 -0.1218
12142W        W30996  18.857  14.503  11.457 -0.4181 -0.0462  0.0473
12143W        W30997  18.633   5.249  12.673 -0.2605 -0.3199 -0.4544
12144W        W30998   8.385  10.609   2.097 -0.1650  0.1287 -0.4089
12145W        W30999  17.172  13.085   1.478  0.0980 -0.1170  0.1718
12146W        W31000  13.093   5.524   1.548 -0.1877 -0.0990 -0.0195
12147W        W31001   7.802  15.647   1.483 -0.1203 -0.1816 -0.0956
12148W        W31002   5.358   5.278  10.921  0.0948  0.2117 -0.1847
12149W        W31003   5.277   1.866  11.715  0.0285 -0.0958 -0.1269
12150W        W31004   3.588  11.174  11.308 -0.0846 -0.0728  0.0309
12151W        W31005  17.199  16.600   2.950 -0.3448  0.1431 -0.0102
12152W        W31006  16.798  13.994   1.270  0.0130 -0.1398 -0.1388
12153W        W31007   7.668   9.423   4.568  0.0452  0.1787 -0.0177
12154W        W31008   1.010   9.741   1.392 -0.0623  0.0192  0.1491
12155W        W31009  17.934  12.211   0.606  0.2308  0.0932  0.0033
12156W        W31010   9.233   6.414  12.705  0.0072 -0.1216 -0.1154
12157W        W31011  13.549  13.991   4.292  0.1298  0.0822  0.1742
12158W        W31012  18.323   5.127   1.907  0.0908 -0.0817 -0.1356
12159W        W31013   1.269  11.172  13.480 -0.1421 -0.0052 -0.2636
12160W        W31014   9.591   7.965   3.771 -0.0853 -0.0504  0.0223
12161W        W31015  13.292   6.274  12.230 -0.0922  0.2366 -0.0745
12162W        W31016  14.374  12.983  11.432  0.1152  0.1915 -0.1433
12163W        W31017  17.667   8.466   3.067 -0.3841 -0.2129 -0.0962
12164W        W31018  15.256   5.880  11.729 -0.1638  0.4670 -0.1090
12165W        W31019  15.217   1.157   1.278 -0.1855 -0.0888  0.1237
12166W        W31020   1.865  12.606   2.081 -0.2551  0.1033  0.4660
12167W        W31021  13.216  14.900  13.803 -0.0804  0.0312 -0.1513
12168W        W31022   5.581  17.701   3.912  0.2344 -0.1448  0.0095
12169W        W31023   2.921   0.632  14.603  0.0857 -0.1274  0.0109
12170W        W31024   9.176   3.224  14.773 -0.0042  0.0221 -0.1467
12171W        W31025   9.096   4.719   3.446 -0.1948 -0.0497  0.2086
12172W        W31026  14.834   6.603   1.677 -0.2036  0.3495 -0.0683
12173W        W31027   1.055   0.092   1.494 -0.0193  0.0899 -0.2232
12174W        W31028  11.597   7.144  13.298 -0.0022  0.3126  0.1286
12175W        W31029   3.111   2.259   0.445  0.0667  0.2105  0.1504
12176W        W31030  10.573   4.921   4.673  0.0397  0.1718  0.3224
12177W        W31031   0.810  14.386   2.342  0.2604 -0.1469  0.1188
12178W        W31032   3.182  15.134  14.222  0.2508 -0.0407 -0.2647
12179W        W31033   3.826   9.892  13.060 -0.2752  0.0207 -0.2733
12180W        W31034   8.594  10.086   5.034  0.1249 -0.0971  0.1992
12181W        W31035   0.495  17.785   4.263 -0.2400  0.1340  0.2218
12182W        W31036   3.079  11.496  14.156 -0.1062  0.0762 -0.0520
12183W        W31037  17.494   1.839   0.600  0.1954 -0.0502 -0.0170
12184W        W31038   5.615   7.091   0.054  0.0937  0.2901  0.1104
12185W        W31039  11.390   5.716   0.400 -0.1262  0.2665  0.0849
12186W        W31040  18.705   0.744   4.314 -0.3048 -0.3828 -0.2010
12187W        W31041   0.754  14.332  14.562 -0.0765  0.2058 -0.3671
12188W        W31042   9.258   6.867   3.700  0.0438  0.2751  0.5534
12189W        W31043   3.155   8.683   5.543 -0.1516  0.4046  0.0779
12190W        W31044   1.787  15.084  11.286  0.1188  0.0264 -0.0484
12191W        W31045   1.119  12.879   4.211  0.0020  0.3006  0.4746
12192W        W31046   2.220  16.766  12.113  0.1033 -0.0119  0.0839
12193W        W31047   2.189  18.027  12.345 -0.0684 -0.0754  0.0849
12194W        W31048  10.314   4.120  13.870  0.2109  0.0054  0.2278
12195W        W31049  15.094  13.698   1.051  0.2650 -0.0955  0.1111
12196W        W31050  15.366   0.564   1.754  0.0535 -0.0068 -0.2055
12197W        W31051  17.179  10.708  13.958  0.2185  0.1797 -0.1449
12198W        W31052  12.747   3.996  13.300  0.0864  0.1278  0.2834
12199W        W31053   3.959  17.595  14.343 -0.1847 -0.5490 -0.0725
12200W        W31054  16.475   5.519   2.731  0.0597 -0.0201  0.1912
12201W        W31055  11.617   7.467   4.252 -0.0901  0.1124 -0.2556
12202W        W31056  12.306  14.905   0.839 -0.2750  0.1980  0.0249
12203W        W31057  10.569   5.951  11.241  0.1379  0.0923  0.2969
12204W        W31058   4.432   2.343  10.470 -0.1877  0.0918  0.1796
12205W        W31059   6.962   0.282  13.325 -0.2136 -0.0318 -0.2136
12206W        W31060   9.981  13.379   1.529 -0.1939 -0.2988  0.2064
12207W        W31061  14.514   5.608   0.610 -0.0564  0.2322 -0.1520
12208W        W31062   5.359   1.702   2.896  0.0799 -0.2024 -0.3237
12209W        W31063  14.909   4.658  11.910 -0.0864 -0.2485  0.2209
12210W        W31064   7.885   3.382  11.186 -0.0890  0.2401  0.2342
12211W        W31065   2.708  14.058  12.098  0.3393  0.1064 -0.1003
12212W        W31066   4.081   0.043  13.356  0.0086  0.0552  0.1516
12213W        W31067   0.947   8.515  12.108 -0.0925 -0.0784  0.1314
12214W        W31068   9.848   9.151  11.795  0.3203  0.0242  0.1800
12215W        W31069  12.570  13.582  14.452  0.4348 -0.0068  0.0458
12216W        W31070  12.466   8.412   3.099 -0.2531 -0.0035 -0.1510
12217W        W31071   0.456   8.653  14.411 -0.3896 -0.0691  0.0248
12218W        W31072   4.515   2.934   0.495 -0.0493 -0.2001  0.0015
12219W        W31073  11.129   1.591  11.560  0.1563 -0.0750 -0.0039
12220W        W31074   7.220   2.394   0.790 -0.0047  0.1844  0.1682
12221W        W31075   7.695   3.567  13.801 -0.1864  0.1701 -0.0223
12222W        W31076  16.901  12.777  11.704  0.1208  0.1886  0.0161
12223W        W31077   6.292   9.744   2.204  0.0533  0.1480  0.2859
12224W        W31078  18.963   2.860  11.423  0.0117  0.1711 -0.2632
12225W        W31079   5.082  11.840  11.810  0.1515 -0.1132 -0.1130
12226W        W31080   5.690  12.585   0.638  0.2415 -0.2269 -0.2783
12227W        W31081  15.236  15.133   2.360  0.1702 -0.2339  0.2378
12228W        W31082   4.193   7.777   2.964 -0.0779  0.2355  0.2459
12229W        W31083  17.177  17.268  10.343 -0.0597  0.1551 -0.0087
12230W        W31084   2.471   9.177   4.602 -0.0722 -0.0584 -0.0189
12231W        W31085   9.413   5.606   1.479 -0.0417  0.0649  0.0010
12232W        W31086  13.154   5.903   0.641 -0.1402 -0.0057 -0.0373
12233W        W31087   9.349   9.091   0.380  0.0925 -0.2604  0.3671
12234W        W31088  15.898   8.863   2.507 -0.2240 -0.2002  0.1963
12235W        W31089   7.002  11.152  11.040 -0.3898  0.0783 -0.1367
12236W        W31090   4.301  18.680  10.520  0.2270  0.1997 -0.0885
12237W        W31091  13.187   1.398   3.032 -0.1330  0.0674 -0.0419
12238W        W31092   5.059  13.989  11.581  0.2347 -0.2470 -0.0784
12239W        W31093   3.956   7.368   4.060  0.0177  0.1412 -0.0780
12240W        W31094   4.341  12.506   0.925 -0.0555 -0.0193  0.1290
12241W        W31095  13.199  12.415   1.005  0.0563 -0.1423 -0.1096
12242W        W31096  10.694  17.857   3.020 -0.3367 -0.1747  0.4157
12243W        W31097  13.910  15.412   3.941 -0.0963 -0.0975  0.0027
12244W        W31098  10.011  14.766  13.774 -0.1209  0.1512  0.0350
12245W        W31099  15.936  14.520   1.496  0.1069 -0.1064  0.1252
12246W        W31100  11.718   1.339   2.816  0.0162 -0.1564  0.1418
12247W        W31101  17.159   6.528  14.032  0.2156  0.1759 -0.0321
12248W        W31102  17.548  16.233   2.215 -0.1658  0.1652  0.0164
12249W        W31103  16.416  17.170  13.798  0.2147 -0.0882 -0.2690
12250W        W31104   2.083  11.203   3.425  0.1092  0.6163  0.3056
12251W        W31105  18.525  17.322   2.074 -0.1364  0.0795  0.0913
12252W        W31106   1.415   6.074   2.444  0.1390 -0.0220 -0.0193
12253W        W31107  14.145   6.725  12.087 -0.1162  0.5246  0.4181
12254W        W31108   6.728  13.571   3.470 -0.1488  0.1584  0.0288
12255W        W31109   7.651   6.924  13.187  0.0052  0.2153  0.2663
12256W        W31110   3.563   9.460   2.590 -0.2343 -0.0561  0.0160
12257W        W31111  10.757  15.096  14.119  0.0624 -0.0541  0.0288
12258W        W31112  17.893   7.234  14.227 -0.2377  0.1339 -0.1971
12259W        W31113   4.877   2.056   1.661 -0.2414 -0.1149  0.2514
12260W        W31114   6.067  10.261   3.556 -0.0479 -0.1391  0.0767
12261W        W31115   9.317  16.315  10.247  0.1079 -0.1202  0.0118
12262W        W31116   5.922   5.349   0.275 -0.2285 -0.1182  0.2068
12263W        W31117  13.192   8.750  14.485  0.1535 -0.0217 -0.1202
12264W        W31118  16.772  16.640  11.380 -0.0980 -0.2034  0.1219
12265W        W31119   9.403   4.873  13.701 -0.3871  0.0130 -0.0660
12266W        W31120   2.895   6.288  13.848  0.0126  0.1289 -0.1614
12267W        W31121  10.897  17.435  10.825 -0.0367 -0.1153 -0.0735
12268W        W31122   7.768  11.400  10.540  0.2691 -0.1745  0.1446
12269W        W31123   7.520   1.200  11.097 -0.2029  0.0610 -0.3181
12270W        W31124  13.427  14.292   0.590 -0.1340  0.0086 -0.3026
12271W        W31125  18.349  13.856   3.789 -0.1820 -0.0205 -0.4415
12272W        W31126  14.005   7.901   2.509  0.4130 -0.1449 -0.0490
12273W        W31127  15.793  18.434  13.558  0.0293  0.0104 -0.0150
12274W        W31128   8.864   0.525  10.141 -0.1767 -0.2382  0.2635
12275W        W31129  18.869   0.856  12.866 -0.0559  0.3320 -0.0108
12276W        W31130  16.770  17.109   1.895  0.0263 -0.0217 -0.1055
12277W        W31131   8.408   3.785  10.601 -0.1057  0.1163 -0.0195
12278W        W31132   1.054  16.755  12.623  0.2419  0.2737  0.1464
12279W        W31133  16.459  10.629  14.056  0.1265  0.0938  0.0031
12280W        W31134  15.788  13.543   1.612  0.1409 -0.1784  0.1029
12281W        W31135   0.040   3.480   1.624 -0.2740  0.1557 -0.1481
12282W        W31136  17.832  17.289  14.179  0.0327 -0.0914 -0.0932
12283W        W31137  14.953   7.816  12.787  0.3692 -0.1121  0.2392
12284W        W31138   6.604   8.036   0.544 -0.0688  0.0433 -0.1440
12285W        W31139  11.498  13.192  11.929  0.0004  0.0020  0.3585
12286W        W31140  15.812  10.936   2.401 -0.1391  0.1564 -0.0914
12287W        W31141   4.391   2.762   1.379 -0.1304 -0.0913  0.3204
12288W        W31142   2.339  10.562  12.655 -0.0426 -0.2655 -0.2985
12289W        W31143   9.339   0.803  11.316 -0.2298  0.1375  0.2164
12290W        W31144  13.839  18.112   1.512 -0.0363  0.2850  0.0038
12291W        W31145   7.192  12.192  11.148  0.4014  0.1798 -0.1549
12292W        W31146   1.126  18.817   4.897  0.0258  0.0022  0.1615
12293W        W31147   0.524   1.033  14.610 -0.2170 -0.1275 -0.1044
12294W        W31148  12.409   3.327   0.928  0.1415  0.0147 -0.1152
12295W        W31149  15.186  17.889  12.510  0.0317  0.0807  0.2121
12296W        W31150  10.049  14.751   3.249 -0.1829 -0.0302  0.0600
12297W        W31151   5.138  10.993   3.086  0.0576 -0.0455  0.0195
12298W        W31152   9.677   7.150  13.048 -0.1291 -0.1658 -0.0506
12299W        W31153   2.754   7.825   4.344  0.1007  0.0058  0.1669
12300W        W31154   3.877   2.662   3.565  0.0715  0.0973  0.0891
12301W        W31155  19.133  12.921  13.877 -0.0291 -0.0273 -0.1570
12302W        W31156   6.204   7.248   1.486  0.1833 -0.1668 -0.3066
12303W        W31157   0.447  13.677   5.009  0.2025 -0.2848  0.1175
12304W        W31158   4.018   4.090   1.924  0.0764 -0.0783  0.0456
12305W        W31159  16.770   3.413   1.286 -0.1220  0.1272 -0.1226
12306W        W31160   9.285  17.014   0.311  0.0095 -0.2136 -0.0028
12307W        W31161  12.821   9.337   2.784 -0.0213 -0.1695 -0.0559
12308W        W31162  16.155  10.123  12.029  0.1152  0.0117  0.1859
12309W        W31163  10.365   1.181  11.174 -0.1917 -0.3320 -0.1655
12310W        W31164   5.421  10.220   4.320  0.4170  0.0472  0.1424
12311W        W31165  11.126  12.378  10.271  0.0548 -0.2494 -0.2071
12312W        W31166  13.361  12.838   1.320 -0.0370  0.2717  0.2802
12313W        W31167  14.351  15.573  13.585  0.0401 -0.0937  0.2184
12314W        W31168  18.774   4.842   4.421 -0.0469 -0.1639 -0.1108
12315W        W31169   6.659   9.523   0.247 -0.1180 -0.2328  0.0027
12316W        W31170   0.815   8.134  11.053  0.1972 -0.1384  0.1774
12317W        W31171   2.980   0.072  13.380  0.1358 -0.1291 -0.1341
12318W        W31172  15.658   2.685  12.365 -0.4637 -0.0812 -0.4239
12319W        W31173   6.237   9.732  13.100  0.2383  0.0591 -0.4135
12320W        W31174  14.086   4.684   2.305 -0.1765 -0.0407 -0.2230
12321W        W31175  12.225   9.491   0.861 -0.0393  0.0515 -0.1972
12322W        W31176  13.126  18.055   3.913 -0.0509 -0.2398  0.2047
12323W        W31177  14.439  17.075  11.675  0.1271  0.0374 -0.0752
12324W        W31178   1.805  11.101  14.663  0.1328 -0.0532  0.1630
12325W        W31179   3.412  11.626   2.317  0.1236 -0.1309  0.0586
12326W        W31180  12.337   4.862  10.660 -0.2010 -0.3812  0.0166
12327W        W31181   1.747   7.705   4.416  0.0836  0.0903 -0.1246
12328W        W31182  15.233   5.500  12.011  0.3180 -0.2447 -0.0959
12329W        W31183  12.300   0.812   0.802  0.0198 -0.2439  0.1563
12330W        W31184  19.067  15.761   2.632 -0.2384 -0.2031  0.0927
12331W        W31185  14.834  17.017  10.782  0.0155 -0.1682  0.1975
12332W        W31186  17.515  16.652  13.374 -0.2485  0.1727 -0.0736
12333W        W31187  14.311   7.821   1.072  0.0451 -0.1384  0.0153
12334W        W31188  13.311  18.761  13.150 -0.0904 -0.0063 -0.1976
12335W        W31189   9.433   3.698   1.418 -0.1252 -0.1805  0.2655
12336W        W31190   6.870  12.451   4.143  0.0921  0.0891  0.1099
12337W        W31191  13.747   4.514   0.334  0.1301 -0.1934  0.1082
12338W        W31192   9.973   7.645  14.445  0.0981  0.1603 -0.2372
12339W        W31193  13.235  15.766  12.415  0.0916 -0.4560 -0.1420
12340W        W31194   4.240  14.526   0.025 -0.2850  0.2352  0.1630
12341W        W31195  17.606   3.619   3.339  0.0401 -0.3056  0.3168
12342W        W31196   9.160   2.547   0.692 -0.0786  0.2327 -0.0821
12343W        W31197  13.370   3.393  13.668 -0.2251  0.0444 -0.1583
12344W        W31198   7.734  10.144   0.347  0.0326 -0.1953 -0.0579
12345W        W31199   8.040   1.309   3.713  0.0922 -0.1503 -0.0855
12346W        W31200   6.903   4.865  13.834 -0.0043 -0.1653  0.1932
12347W        W31201  13.645  17.202   0.033 -0.0685 -0.1117  0.1276
12348W        W31202   6.223  10.494   4.005 -0.3806  0.2104 -0.0364
12349W        W31203  18.895   4.349   1.507  0.3038  0.0015  0.0181
12350W        W31204   3.211  14.127  11.952  0.0456  0.1950 -0.0475
12351W        W31205  17.298   6.689  10.707 -0.1931 -0.0743  0.0883
12352W        W31206   3.704  10.664  13.050 -0.1434 -0.2945  0.0915
12353W        W31207   2.592   1.944  11.818  0.1321 -0.0451 -0.0640
12354W        W31208  16.115   2.199   3.641  0.0585  0.1797  0.0248
12355W        W31209  10.576   3.352   1.503  0.1818  0.1273 -0.1244
12356W        W31210  16.684   8.408   1.388 -0.1016  0.0424  0.1691
12357W        W31211   5.688  18.988   1.811  0.0328  0.2868 -0.1723
12358W        W31212   0.917  13.339  14.670  0.1285  0.2774  0.2104
12359W        W31213   6.816  13.896   2.077 -0.0584  0.2365  0.0006
12360W        W31214  18.652  13.517  12.017 -0.1580 -0.2164  0.0249
12361W        W31215  13.109  11.834   9.958 -0.5840  0.1252  0.0775
12362W        W31216   9.528   3.929  13.984  0.0370  0.0932 -0.1279
12363W        W31217  13.541   3.195  14.614 -0.2155  0.0978 -0.1344
12364W        W31218  16.672  18.177  10.643  0.4491  0.0294  0.1557
12365W        W31219  15.659   6.050  12.006 -0.0657 -0.1130 -0.3190
12366W        W31220   6.927   1.115  12.273  0.0794 -0.0213 -0.0560
12367W        W31221   0.468  10.006   1.707  0.3682  0.2868  0.1403
12368W        W31222  13.516   2.071   9.632 -0.0178 -0.1999 -0.1148
12369W        W31223   7.990   2.807   1.886 -0.2921 -0.0537 -0.0739
12370W        W31224  10.101  15.481   2.691 -0.4170 -0.1581 -0.1775
12371W        W31225   1.957  11.208  12.815 -0.1679  0.0563 -0.1024
12372W        W31226  13.471  12.031   2.098  0.1240 -0.0368 -0.2691
12373W        W31227   9.850   8.955   3.997 -0.1658  0.1222 -0.1263
12374W        W31228   2.210   0.013   9.292  0.2455  0.3756  0.1093
12375W        W31229   4.301   5.746  11.831  0.2961 -0.2478  0.3457
12376W        W31230   0.478  18.871  10.373 -0.1762 -0.1125  0.0691
12377W        W31231  11.435   2.725   4.052 -0.1342 -0.2588  0.0132
12378W        W31232  19.001   1.763  13.519 -0.1159  0.2424 -0.1428
12379W        W31233  17.670  10.563   2.359  0.2565  0.2211 -0.2620
12380W        W31234  18.228   5.776   0.427 -0.0045  0.0611 -0.2707
12381W        W31235   4.739  12.410  12.617  0.3100 -0.3460  0.0134
12382W        W31236   3.897  13.270  13.314  0.0654  0.2419 -0.2728
12383W        W31237   8.734  19.097   3.368 -0.0560  0.0262 -0.0287
12384W        W31238   1.104   3.261  12.589 -0.0917  0.0466 -0.0256
12385W        W31239  10.275  16.598  11.137 -0.3933  0.0321 -0.0038
12386W        W31240  18.949  17.967  12.196  0.0442 -0.0361  0.0395
12387W        W31241  10.392   0.461   0.335  0.1879  0.0469  0.0721
12388W        W31242   4.913   0.410   1.490  0.1960 -0.0253  0.0437
12389W        W31243  10.333  16.556   2.383 -0.4675 -0.0523  0.1112
12390W        W31244   9.633   4.603   2.630  0.0057 -0.2318 -0.0167
12391W        W31245   5.401   9.588  14.656  0.2409  0.0557  0.0229
12392W        W31246   3.400   5.408  10.839 -0.1261  0.0186  0.0011
12393W        W31247   2.877   2.339   5.491  0.1416  0.1190 -0.3402
12394W        W31248  17.114   0.696  12.445  0.2264 -0.1409  0.1053
12395W        W31249   9.899   5.358  12.245  0.1383  0.2213  0.0514
12396W        W31250   2.720   8.801   1.514  0.1365 -0.2063 -0.0723
12397W        W31251   2.537  14.334  14.457 -0.1107  0.0912 -0.1135
12398W        W31252   0.916   4.953  13.964 -0.1542  0.0316  0.0656
12399W        W31253  18.250  12.728   4.047 -0.0116  0.1538  0.2245
12400W        W31254  10.774   5.198  10.774 -0.0352 -0.2907 -0.0424
12401W        W31255   4.050   2.092   3.665  0.2070  0.0942  0.2544
12402W        W31256  10.927  11.323   3.902 -0.2214  0.0447  0.0342
12403W        W31257  12.063   8.638   1.116 -0.0305 -0.0175 -0.1820
12404W        W31258   9.329  12.775   3.345  0.1443 -0.1687  0.0225
12405W        W31259   8.244  13.897   1.424  0.1818  0.3672 -0.0748
12406W        W31260  11.947   7.711  11.934 -0.2380  0.3070  0.2404
12407W        W31261   3.721   5.695  14.184  0.1575 -0.2523  0.0447
12408W        W31262  11.828  12.539   2.034  0.1387 -0.0439  0.2551
12409W        W31263  10.849   0.138   0.303  0.0095  0.4327 -0.0857
12410W        W31264   5.009  18.569  12.375  0.0432  0.0102 -0.0431
12411W        W31265  17.708   7.273  10.471 -0.2451  0.1102 -0.1352
12412W        W31266   0.185  15.136  12.329 -0.0928 -0.0173  0.2562
12413W        W31267   3.505  17.530  12.352 -0.0333  0.1891  0.2788
12414W        W31268   5.893  18.989   2.833 -0.0335  0.1280 -0.1171
12415W        W31269   1.655   6.990   1.247  0.0161  0.6591  0.0596
12416W        W31270  11.002   2.019  13.977  0.0694  0.2240  0.0105
12417W        W31271   0.961   1.879   3.141  0.0978 -0.1015  0.0864
12418W        W31272  11.819   5.811  14.069 -0.0170 -0.0024  0.0136
12419W        W31273   5.760  12.659   3.196 -0.2577 -0.1217 -0.0046
12420W        W31274   5.786   9.065  13.017 -0.0644 -0.1926 -0.1441
12421W        W31275  18.531  17.523   2.924  0.0303  0.2355 -0.3183
12422W        W31276   8.753  13.804   0.396  0.0255  0.0062  0.2049
12423W        W31277   0.846  17.661   0.777 -0.0840 -0.1368  0.0266
12424W        W31278  11.893   5.345   1.640 -0.1453  0.1706  0.1281
12425W        W31279   5.652  14.257   4.145 -0.1323 -0.0738 -0.1237
12426W        W31280  18.852   6.980   3.405 -0.0359  0.0335 -0.1543
12427W        W31281   5.980  10.363  11.708 -0.1849  0.1987  0.2005
12428W        W31282  15.620   6.211  14.404  0.4413  0.1430  0.0593
12429W        W31283  11.263   8.200  14.230 -0.0484 -0.0364 -0.1131
12430W        W31284  16.143   8.440   2.743 -0.0632 -0.4247  0.2452
12431W        W31285   6.968  13.005  13.993  0.1566  0.4415 -0.2177
12432W        W31286   2.741   9.301   0.894  0.5311  0.0343  0.0395
12433W        W31287  17.279   9.686   4.055  0.1741 -0.2049  0.3512
12434W        W31288  13.878  17.641   1.252 -0.1390 -0.2971  0.1713
12435W        W31289   0.453  14.529  12.797  0.1176 -0.0875  0.2149
12436W        W31290   9.798  15.092   2.968  0.1926  0.1071  0.0702
12437W        W31291   5.446  18.209   3.006  0.3143  0.2840  0.1060
12438W        W31292   7.239   9.249   2.247 -0.0704  0.0854  0.0912
12439W        W31293  12.114   5.528  13.027 -0.1204  0.0168  0.0838
12440W        W31294  10.910   8.974   0.684  0.3483 -0.4054 -0.0732
12441W        W31295   2.377  16.835  13.883 -0.1363  0.0989 -0.1953
12442W        W31296   6.602   0.014  13.119  0.1120 -0.1345 -0.2476
12443W        W31297  17.600  15.832  14.084  0.1233 -0.2173 -0.1368
12444W        W31298  10.803   2.647  12.506 -0.1402  0.0117  0.1080
12445W        W31299  14.306   4.050   2.954  0.0749 -0.0311 -0.1790
12446W        W31300   2.687  12.251  11.530 -0.4426  0.0402  0.0260
12447W        W31301   4.186  10.928   2.309  0.1242 -0.0316  0.3657
12448W        W31302   5.746  18.242   3.438 -0.0199 -0.0377  0.0142
12449W        W31303  13.107   9.787   3.327  0.0201  0.1606 -0.1798
12450W        W31304   1.263  10.353   0.162 -0.1186  0.2240 -0.0668
12451W        W31305   2.852  18.238  12.572 -0.0741  0.1259  0.4028
12452W        W31306   7.211  16.984   0.510  0.0104 -0.0162  0.2573
12453W        W31307  18.931  18.199   2.666  0.0858 -0.0151  0.1249
12454W        W31308   2.112   4.909   0.087  0.0829  0.1041 -0.0331
12455W        W31309  16.695   4.319   3.717  0.1498  0.0531 -0.1523
12456W        W31310  12.240  16.893   0.276 -0.2559  0.1194  0.2286
12457W        W31311   3.775   3.012  13.661 -0.0796 -0.1631  0.2725
12458W        W31312   4.263   9.700  11.751  0.0880  0.1371  0.2409
12459W        W31313  15.462   1.099   3.760 -0.1210 -0.0521 -0.1510
12460W        W31314  17.822   2.581  10.494 -0.0653  0.3550 -0.0298
12461W        W31315   8.723  12.220   0.634  0.0226  0.2305  0.1469
12462W        W31316  11.174   2.234  14.453 -0.1857 -0.0756 -0.0116
12463W        W31317  18.774   0.895  13.467 -0.0934  0.0383  0.2232
12464W        W31318  17.723   6.010  11.819  0.2568 -0.2827  0.0082
12465W        W31319   2.047  10.125   3.596 -0.1993 -0.0227 -0.0701
12466W        W31320   5.662  14.940   3.752 -0.0591  0.1695 -0.1057
12467W        W31321   1.473   4.296  11.926  0.0576 -0.1616 -0.1010
12468W        W31322  15.005   6.821  11.821 -0.0285  0.1473 -0.1005
12469W        W31323  11.318   9.706  12.956  0.0414  0.0428  0.1085
12470W        W31324   3.492   1.317  13.274  0.2251 -0.0397  0.0112
12471W        W31325  12.193   0.415  12.250 -0.1453  0.0789 -0.0700
12472W        W31326   2.996   8.266   0.261  0.3716 -0.1862 -0.3536
12473W        W31327   9.011  13.734   1.845  0.0767  0.1171  0.0975
12474W        W31328  14.629  16.314  12.615 -0.1912  0.1706  0.1686
12475W        W31329   2.651  12.814   3.724 -0.2231 -0.0285  0.2053
12476W        W31330  14.679  18.623   2.884  0.0813 -0.1571 -0.0907
12477W        W31331   5.850  12.164   0.992  0.2735 -0.0560 -0.0608
12478W        W31332   2.460   6.576  11.633  0.2637  0.1335  0.0480
12479W        W31333  16.650   8.870   0.276 -0.1275  0.0143  0.1521
12480W        W31334  11.639   3.680   3.001  0.3218  0.0061 -0.2559
12481W        W31335  13.977   2.864  11.831 -0.1438  0.1965 -0.0196
12482W        W31336   4.139  10.921   1.402 -0.1355 -0.2027  0.0914
12483W        W31337   3.033  18.941   5.513 -0.0272  0.0581 -0.1310
12484W        W31338   6.413   5.211   4.021 -0.0749  0.1724 -0.4206
12485W        W31339  14.831   0.630   2.024  0.0970  0.0359  0.1434
12486W        W31340  10.572   5.954   0.529  0.1508  0.1773  0.1852
12487W        W31341  13.275  14.733  11.023 -0.0853 -0.0265  0.0698
12488W        W31342  18.592  15.682   2.821  0.2845  0.1957 -0.0947
12489W        W31343  11.062   9.082   1.785 -0.0537 -0.1584 -0.0294
12490W        W31344   3.023   5.914   4.944  0.4241  0.3098 -0.0314
12491W        W31345  11.571   7.186  11.835  0.0549 -0.4446 -0.1474
12492W        W31346  10.202   8.410  13.124  0.1393 -0.1838 -0.1626
12493W        W31347  10.698  17.251   2.999 -0.0020 -0.0084  0.1374
12494W        W31348  17.022   9.909   0.132  0.1640 -0.0871 -0.1995
12495W        W31349   8.021   1.383  13.026  0.2448 -0.1690  0.1612
12496W        W31350   3.792  12.080  10.782  0.2136  0.1477  0.3366
12497W        W31351   4.733   3.387  10.925  0.1243  0.0825  0.0203
12498W        W31352   0.675  18.372  11.325  0.2966  0.0336 -0.3677
12499W        W31353   6.813   0.244  10.308 -0.0249 -0.0060 -0.1457
12500W        W31354   6.931   1.168  10.532 -0.1047 -0.0987  0.0753
12501W        W31355  18.084   6.816   2.811 -0.0443  0.0371  0.1453
12502W        W31356   0.325   2.914   0.607  0.1346 -0.0219  0.1147
12503W        W31357  16.264   5.382  11.798  0.0690  0.0219 -0.1287
12504W        W31358   9.807   7.662   0.762  0.0226  0.0674 -0.0504
12505W        W31359   0.511  12.075  11.908 -0.0219  0.1141 -0.2536
12506W        W31360  13.950  13.787  12.543  0.1478  0.2419 -0.0135
12507W        W31361  14.317  15.557  10.547  0.0585 -0.0897 -0.2720
12508W        W31362  16.330  11.858  12.783  0.3719  0.0873  0.2144
12509W        W31363   9.825  10.299  10.476  0.0033 -0.0739 -0.0501
12510W        W31364  19.096   3.487   1.152  0.2500  0.1238  0.0171
12511W        W31365  11.842  18.929  12.703  0.1232 -0.0887 -0.0056
12512W        W31366   6.186   4.295  12.925 -0.1564  0.0078 -0.0184
12513W        W31367   6.350   3.175  13.595 -0.1982 -0.2756  0.1496
12514W        W31368  16.287   5.950   3.329 -0.1996 -0.3300  0.2368
12515W        W31369  15.752   6.108  11.521 -0.1343 -0.0474 -0.0245
12516W        W31370  16.947  19.055  10.670  0.1646  0.1302 -0.4686
12517W        W31371  10.588  14.504   0.922 -0.1052 -0.2014  0.2680
12518W        W31372   9.780   4.010  10.850 -0.3161 -0.2633  0.0672
12519W        W31373   3.642   9.892  13.989  0.0614  0.2336  0.1706
12520W        W31374   9.899  13.456  14.601 -0.0012 -0.0248  0.0727
12521W        W31375   1.421   8.975   1.833 -0.1656 -0.0279  0.1463
12522W        W31376  11.150  16.263   2.599  0.1110  0.1752 -0.1539
12523W        W31377   9.019  11.570   3.007  0.1375 -0.1220 -0.4591
12524W        W31378  11.625  10.447  12.677  0.2764 -0.3143 -0.0110
12525W        W31379   3.522   7.085   3.076 -0.0042  0.1685 -0.1766
12526W        W31380   3.296  16.203  10.833  0.0496 -0.2220  0.0668
12527W        W31381   0.020   7.732  12.021 -0.4575  0.1484  0.2149
12528W        W31382  12.808   2.467  11.498 -0.1018 -0.1487  0.2440
12529W        W31383   9.612   0.856   3.273  0.1624  0.0290 -0.1667
12530W        W31384  11.833   2.857  13.424  0.0092 -0.0114  0.0435
12531W        W31385  10.926  15.820  12.856  0.0781  0.0825  0.2717
12532W        W31386   9.277  18.359   1.542 -0.0075 -0.0474  0.1381
12533W        W31387  17.778  11.134  14.438 -0.0456  0.1630 -0.0380
12534W        W31388  10.261  15.622  13.395  0.1007  0.1192 -0.1194
12535W        W31389   0.324   7.154   4.289  0.0674 -0.1437  0.0433
12536W        W31390   7.785   9.691  14.286  0.1656  0.0565  0.3933
12537W        W31391   7.643   4.215  14.758 -0.1292  0.1057 -0.2393
12538W        W31392   6.688   9.263   0.796 -0.1826 -0.0343  0.2325
12539W        W31393  17.357  11.635  11.590  0.3041 -0.0434  0.1665
12540W        W31394  10.994   5.074   2.085 -0.0535  0.0764 -0.3811
12541W        W31395   0.619   1.502  11.782 -0.0833  0.0858 -0.1429
12542W        W31396   8.867  16.622  11.663 -0.0581 -0.1570 -0.2510
12543W        W31397   0.538   5.503  11.315 -0.0636 -0.4468  0.3751
12544W        W31398  17.534   3.853  12.358 -0.1869 -0.1807  0.0103
12545W        W31399   4.858   6.636   1.734  0.1866 -0.1060  0.4089
12546W        W31400   2.099  16.970   1.156  0.1135 -0.2027  0.2094
12547W        W31401   6.857  13.037   1.254 -0.1127  0.2358  0.2220
12548W        W31402  17.133   2.802   3.415 -0.2834 -0.1101  0.0178
12549W        W31403  15.982  16.919  11.910  0.0099  0.1552 -0.1011
12550W        W31404  14.145   0.931  12.139  0.1524 -0.1551 -0.1587
12551W        W31405  11.561   5.967  14.534  0.0133  0.0481 -0.0030
12552W        W31406   1.336  16.454   4.221  0.0364 -0.0758  0.0049
12553W        W31407  18.822   7.878   3.829  0.1762 -0.0435 -0.3841
12554W        W31408   7.299  10.096  10.711  0.0192 -0.0682  0.0420
12555W        W31409   5.476   6.749  10.630 -0.3756  0.5369 -0.1562
12556W        W31410   7.109  12.949  13.510 -0.1366 -0.0286  0.0288
12557W        W31411   5.370   9.656  10.387 -0.0072  0.2371 -0.0312
12558W        W31412   9.753  14.903  10.810  0.1329 -0.0825 -0.1233
12559W        W31413  12.947  11.948   1.316  0.0699  0.0802 -0.1136
12560W        W31414  17.413  10.701   3.701 -0.1485  0.0724  0.0350
12561W        W31415  14.696  11.017  11.272  0.1248  0.0373 -0.0706
12562W        W31416   7.129  12.967   4.100  0.0222  0.3565  0.2815
12563W        W31417   1.282   3.416   3.817  0.0840 -0.3207 -0.1915
12564W        W31418   5.377  15.023   1.397 -0.0993  0.1534 -0.0492
12565W        W31419  14.903   9.492  12.018 -0.1394 -0.1323 -0.1444
12566W        W31420  12.724  11.418   2.593  0.2701 -0.0935 -0.2343
12567W        W31421   7.269   2.943   1.444 -0.3231  0.1542  0.0910
12568W        W31422  13.781   2.463   1.499 -0.2285 -0.2603 -0.0659
12569W        W31423   6.341  17.675   2.075 -0.2126 -0.3291  0.1122
12570W        W31424   7.966   0.138   1.321 -0.4107  0.2804  0.3849
12571W        W31425   1.170  16.842  14.137 -0.2030  0.0285 -0.0875
12572W        W31426  16.460  17.269  14.391  0.1038  0.1833  0.1137
12573W        W31427   5.848   8.016   2.269 -0.4163  0.0504 -0.0542
12574W        W31428   0.267   1.525  14.539 -0.1634 -0.1886 -0.0112
12575W        W31429  14.595   0.651   2.975  0.0465  0.1775 -0.0877
12576W        W31430  15.402   5.464  13.857  0.1353 -0.2742 -0.0782
12577W        W31431   5.666   3.956  11.527 -0.0918 -0.0146  0.3133
12578W        W31432  17.728  16.068  11.206  0.2911  0.3183  0.0170
12579W        W31433  18.390  10.352  13.024  0.1587  0.1290 -0.0960
12580W        W31434   3.047  12.420  11.061  0.2690  0.2291 -0.0808
12581W        W31435  18.180  12.097   1.488 -0.0027  0.1144 -0.0510
12582W        W31436   9.359   3.713  12.141  0.1677 -0.1135  0.1847
12583W        W31437  11.988   9.890   4.692  0.0548  0.3182  0.0926
12584W        W31438   2.803   4.438  11.435  0.1591 -0.0798  0.1009
12585W        W31439  10.193   3.869   0.266  0.0239  0.1314 -0.3040
12586W        W31440   6.061  11.061   0.100 -0.0934 -0.3304 -0.2209
12587W        W31441   3.673  13.629   2.521  0.1457 -0.1028  0.1432
12588W        W31442   7.568   7.164   0.405  0.2606  0.0948  0.4361
12589W        W31443   0.058   0.286   0.059 -0.2520  0.1159 -0.0153
12590W        W31444   4.391  12.381  13.082 -0.2031 -0.0944 -0.1422
12591W        W31445  17.427   8.140   5.503 -0.0754  0.1594 -0.1337
12592W        W31446   8.104  14.392  12.944  0.0680 -0.3964 -0.2135
12593W        W31447  18.429  10.048  11.275 -0.0127 -0.1456 -0.1405
12594W        W31448   4.884  18.534   0.687 -0.0805  0.3792 -0.3706
12595W        W31449  17.149  14.148  14.604  0.2272  0.0442 -0.1245
12596W        W31450   7.861   5.859  13.514  0.0690 -0.1856 -0.0491
12597W        W31451  10.802  14.568  10.470  0.1844 -0.1653 -0.2135
12598W        W31452  15.939   0.010   3.063 -0.1140 -0.0224 -0.3188
12599W        W31453  14.744   8.765  11.450 -0.1789  0.1776  0.0919
12600W        W31454  17.988  13.344  11.293 -0.3194  0.2503  0.0157
12601W        W31455   9.283  11.158  14.756  0.1155 -0.0708 -0.1521
12602W        W31456  12.700  13.308   0.993 -0.0223  0.4024 -0.3070
12603W        W31457  12.062  16.358  10.614 -0.1000  0.1723  0.2406
12604W        W31458   5.276   5.882  12.097 -0.1164 -0.1741  0.1216
12605W        W31459  11.706   6.764   0.518 -0.0761  0.1557 -0.3546
12606W        W31460  11.715   9.146  11.973  0.1950 -0.0086 -0.1313
12607W        W31461  18.903   9.944  11.234 -0.0517 -0.1357  0.1965
12608W        W31462  15.927  11.567  10.956 -0.2244  0.1170  0.0949
12609W        W31463   8.954   0.480   0.602 -0.0520 -0.1938 -0.0677
12610W        W31464  17.540  12.254   1.042 -0.2702  0.1175  0.3517
12611W        W31465  18.024  11.154  11.814 -0.2068  0.1254 -0.2397
12612W        W31466   2.023  11.527   0.195 -0.1493 -0.2122 -0.0153
12613W        W31467   2.577   8.924  10.873  0.0683  0.0458  0.0642
12614W        W31468  10.202   5.638   3.591 -0.0962  0.1484  0.1411
12615W        W31469  14.796   7.340  12.610 -0.0615  0.4529 -0.2120
12616W        W31470   7.526  17.725  12.505  0.1532 -0.0556 -0.0537
12617W        W31471   6.648   4.077   1.489 -0.1552  0.0417  0.0393
12618W        W31472  12.854  14.000   0.351  0.1163 -0.0078  0.0354
12619W        W31473   2.953   7.954   3.831  0.0860 -0.0258 -0.0661
12620W        W31474   2.654   7.799   1.451 -0.1249 -0.1821  0.1012
12621W        W31475   9.063  15.063   1.572 -0.0412 -0.0082 -0.1415
12622W        W31476  10.705  14.134   3.331  0.3046 -0.2389 -0.2382
12623W        W31477  18.991   8.404   1.680  0.2949  0.1357 -0.1667
12624W        W31478   3.045   6.273  12.236  0.3198 -0.0135 -0.0461
12625W        W31479  14.557   1.310  10.558  0.0229 -0.2281 -0.2917
12626W        W31480   3.230   4.477  12.674 -0.2001 -0.1766  0.2094
12627W        W31481   9.891   5.553  13.617  0.1582  0.1172  0.0501
12628W        W31482  10.199  12.382   4.155  0.0317 -0.2621 -0.1629
12629W        W31483   6.800   8.380  13.643 -0.2175  0.2427 -0.2782
12630W        W31484  17.013  14.521  11.153  0.3676 -0.1534  0.0785
12631W        W31485  18.672   0.085   2.906 -0.3440  0.1013  0.3039
12632W        W31486   8.712  17.352  11.563 -0.4166 -0.5733  0.3864
12633W        W31487   0.770   6.620  14.597 -0.1102 -0.1306  0.1312
12634W        W31488   2.923   6.816  14.001 -0.0893 -0.0492 -0.0075
12635W        W31489   6.931  10.815   1.872  0.0694 -0.1767  0.4714
12636W        W31490  11.652   1.312  10.609 -0.1458  0.0348  0.1699
12637W        W31491  13.606   0.565   1.576  0.0826 -0.1398  0.1564
12638W        W31492  12.944  16.761  13.301 -0.0119  0.2571  0.3274
12639W        W31493  11.169   3.021   4.736 -0.0843 -0.1900 -0.3117
12640W        W31494   3.708   4.295  12.899  0.0849  0.2326 -0.0661
12641W        W31495   1.156  18.815  11.944 -0.0339  0.2461  0.0101
12642W        W31496   7.356   6.841   4.760  0.2250  0.1040  0.0965
12643W        W31497  18.592   3.057   4.954 -0.0847  0.2232 -0.1368
12644W        W31498   0.850  10.403  14.493 -0.1048  0.0118  0.5078
12645W        W31499   8.319  17.775   4.951  0.3019  0.0577  0.2613
12646W        W31500  15.831   6.727   4.648  0.1174  0.0111 -0.0173
12647W        W31501   7.496   1.252   1.735 -0.0430 -0.1331 -0.2153
12648W        W31502   0.207  11.120   3.438 -0.0909 -0.1970  0.0540
12649W        W31503   4.975   0.716  10.860 -0.0812 -0.1691 -0.0531
12650W        W31504   3.183   2.261   1.026 -0.0612  0.1914 -0.0384
12651W        W31505  16.602   7.098   5.171  0.1638  0.0273  0.2534
12652W        W31506   0.747  12.168  14.094 -0.1125  0.1296  0.1645
12653W        W31507   1.257   1.154  11.259 -0.2301  0.0290  0.0831
12654W        W31508   3.022   9.630   2.420  0.0807 -0.0622  0.2093
12655W        W31509  16.592  13.752   3.856 -0.0032 -0.2342  0.2292
12656W        W31510   0.875   1.228  14.370 -0.4739  0.1170 -0.2405
12657W        W31511   1.770  14.419   2.707  0.1951  0.2955 -0.1236
12658W        W31512  14.690   2.458   1.152  0.0268 -0.2445 -0.1328
12659W        W31513   0.779  13.957  14.184  0.0360 -0.0928 -0.0298
12660W        W31514  12.034   5.018  13.132  0.0084  0.0399 -0.1878
12661W        W31515  10.600   0.180   3.328 -0.0403 -0.1455 -0.0829
12662W        W31516  14.498   6.160   3.379 -0.0667 -0.3283 -0.1348
12663W        W31517  12.908  11.803   0.355 -0.0971 -0.0778 -0.0319
12664W        W31518  12.904  12.334  13.851  0.3330  0.0257 -0.0244
12665W        W31519   5.959   8.699  11.175  0.0238  0.0441 -0.0603
12666W        W31520   5.513  13.313   3.716  0.2306  0.1156 -0.2522
12667W        W31521  16.596   4.287  12.037  0.0497 -0.2805 -0.0311
12668W        W31522   5.669   6.405  11.358  0.0086 -0.4615  0.2071
12669W        W31523  13.669   6.446   3.334 -0.0145 -0.0784 -0.0601
12670W        W31524   9.883   2.799  10.673  0.0820  0.0118 -0.1833
12671W        W31525   4.750  18.477  12.813  0.0688 -0.3467 -0.1182
12672W        W31526   8.423  14.151  13.491 -0.0805  0.3550 -0.1178
12673W        W31527  13.382  15.197  14.744 -0.0700 -0.1751  0.0912
12674W        W31528   1.737  16.870  13.940  0.1168 -0.3950  0.0014
12675W        W31529   3.701  18.194   2.767  0.1936 -0.0536  0.2920
12676W        W31530   6.597  10.469  10.383  0.1999  0.0869 -0.1852
12677W        W31531  16.049   0.740   1.377 -0.0243 -0.0623 -0.2408
12678W        W31532   8.993   6.419   3.603 -0.0385 -0.1192  0.1043
12679W        W31533   5.874  10.556   2.100 -0.2636 -0.0225 -0.2589
12680W        W31534   4.316   4.919   0.089  0.0486 -0.0754 -0.3271
12681W        W31535   2.792   8.285   2.817 -0.0075  0.2466 -0.1966
12682W        W31536  12.557   2.821  11.827  0.1186 -0.1706 -0.0335
12683W        W31537   6.292  12.239   1.198  0.1985  0.2493  0.0579
12684W        W31538   5.788   9.035  10.903 -0.1286  0.1783  0.1839
12685W        W31539  13.284   4.663   9.979  0.1072  0.0901 -0.0419
12686W        W31540   8.321   6.488   3.296  0.2806 -0.0418 -0.3139
12687W        W31541  16.999   8.406  11.831  0.0694  0.1506  0.0279
12688W        W31542   1.838  18.497  14.036 -0.0585 -0.0444 -0.2851
12689W        W31543  11.716   4.151   3.937  0.1114 -0.1605  0.0554
12690W        W31544  11.646   5.356  13.931 -0.0478 -0.0676  0.1208
12691W        W31545  13.786   1.659  14.645 -0.0718  0.0418 -0.1612
12692W        W31546  13.241  18.066  11.920  0.1272  0.1817  0.0974
12693W        W31547  18.208   1.425  11.764  0.1568  0.1204  0.2016
12694W        W31548  13.554   2.898   2.078  0.0951  0.4135 -0.1327
12695W        W31549   0.072  13.667   2.042 -0.0361  0.0727 -0.0356
12696W        W31550   2.112   0.962   3.482  0.1666  0.1542 -0.0554
12697W        W31551   6.753  11.175   3.622  0.0295  0.0086 -0.0583
12698W        W31552   2.495   1.854  13.572  0.1279  0.0872  0.1357
12699W        W31553   7.669  10.576   0.103  0.3567 -0.1055  0.2269
12700W        W31554   8.468   0.225   0.287  0.2227  0.0561 -0.2191
12701W        W31555  17.016  13.529   0.295  0.0358  0.2403 -0.2217
12702W        W31556   8.788   7.795   3.508 -0.0168 -0.0848 -0.0873
12703W        W31557   3.601   6.041   0.387 -0.0358  0.1077  0.0339
12704W        W31558  11.221   9.224   2.272 -0.0321  0.0093 -0.0034
12705W        W31559  17.275   2.236  11.454  0.0239  0.1234 -0.0604
12706W        W31560  17.041  18.407   1.565 -0.0418 -0.2466  0.1010
12707W        W31561   6.337  10.840  12.699 -0.0938 -0.0074 -0.1253
12708W        W31562   8.320   2.203   2.781 -0.4121  0.3613 -0.2291
12709W        W31563   0.211  10.923  12.676 -0.0646 -0.4450  0.3450
12710W        W31564   9.721   5.817   2.737  0.0390  0.2811  0.1317
12711W        W31565   2.324  17.361   0.305  0.0520 -0.0866 -0.1439
12712W        W31566   3.926  11.300   2.160 -0.1937  0.0500 -0.0012
12713W        W31567   5.405   0.902  11.861 -0.1316  0.0360  0.0058
12714W        W31568  13.959   5.880  14.159 -0.3108 -0.2057  0.2988
12715W        W31569  11.569   3.162  10.920 -0.4241  0.1119  0.1283
12716W        W31570   5.180  18.507  14.635  0.0752  0.3474  0.0181
12717W        W31571  16.732  16.694   2.125  0.2036  0.0013 -0.0952
12718W        W31572  17.256   1.463  10.670 -0.0846 -0.2325  0.1146
12719W        W31573  12.745  16.857   1.665  0.1424 -0.5146  0.0248
12720W        W31574   0.575   2.789   1.101  0.1270  0.0146  0.3244
12721W        W31575   9.684   2.185  13.774  0.1092 -0.0956 -0.3520
12722W        W31576  13.822   2.296  11.637  0.2060  0.1715 -0.0333
12723W        W31577   7.966   4.475   2.325  0.1158 -0.1998  0.3769
12724W        W31578  10.272   3.832   2.889  0.1509 -0.2590 -0.3092
12725W        W31579   8.835  14.828  10.795 -0.3797 -0.0598 -0.0376
12726W        W31580   7.397  10.997  10.084 -0.0133 -0.0975  0.4511
12727W        W31581   8.931   9.318  14.410  0.0164 -0.0074  0.1413
12728W        W31582   2.154  18.985  10.721 -0.0406 -0.0210 -0.3248
12729W        W31583  11.869  14.259  12.033  0.0651 -0.0120  0.1336
12730W        W31584   9.780   8.182  14.374 -0.0143 -0.0084  0.3848
12731W        W31585  11.263  11.680   2.485  0.1542  0.3359  0.0605
12732W        W31586   6.028  16.635  12.085  0.0087 -0.1910  0.3392
12733W        W31587  12.804   3.674   0.889  0.0425 -0.0958  0.0208
12734W        W31588   0.091   9.040   1.705 -0.0452  0.0068  0.1745
12735W        W31589  12.622  12.295  14.400 -0.1274  0.0134  0.0976
12736W        W31590  12.867   1.491   3.475  0.1018  0.0368 -0.2117
12737W        W31591   4.734  15.736   1.402 -0.2806  0.1500 -0.1112
12738W        W31592   5.484  17.045  14.192  0.0986  0.0988 -0.2018
12739W        W31593   8.514  10.276  14.555  0.1837 -0.3737 -0.1478
12740W        W31594   4.195  18.968   2.924 -0.3778 -0.3102 -0.1796
12741W        W31595   7.040  13.459  10.863  0.1074 -0.0570 -0.0167
12742W        W31596   2.005   6.722   3.036  0.0809  0.1953  0.0424
12743W        W31597   1.865   1.793   1.054  0.0765 -0.1913  0.1599
12744W        W31598   8.525   8.283   1.014 -0.1823  0.0923 -0.1872
12745W        W31599   6.074  12.271  12.508 -0.0424  0.1354 -0.1366
12746W        W31600   2.209  18.531   3.656  0.1505 -0.2477 -0.1660
12747W        W31601   2.035  17.662  10.802 -0.2014  0.1456  0.0850
12748W        W31602   3.788   0.456   0.105  0.0563 -0.0533  0.1788
12749W        W31603   9.604   3.786  14.462  0.0668  0.2399 -0.1970
12750W        W31604  14.570   1.083   1.343  0.0251 -0.0336  0.1856
12751W        W31605   5.888   1.819   2.688  0.0272  0.1767  0.1936
12752W        W31606   1.344  10.079   2.358 -0.0321 -0.1518  0.1111
12753W        W31607   4.991  10.195  13.461 -0.2178  0.0227  0.0700
12754W        W31608   2.805  10.467   3.135  0.0860 -0.2123  0.0299
12755W        W31609   1.039  10.953   0.049 -0.0437 -0.0931  0.0746
12756W        W31610   6.969  16.092  14.215  0.1680  0.4905  0.1751
12757W        W31611  11.077  11.528   1.686  0.1402 -0.1068 -0.0648
12758W        W31612  16.779  12.710   0.131  0.1300  0.0622 -0.0650
12759W        W31613  10.427  17.082  10.166  0.2828  0.0800  0.0728
12760W        W31614   1.859  15.938  12.348 -0.0094  0.1839  0.1562
12761W        W31615  16.740   7.922  14.202 -0.3190 -0.4482  0.0620
12762W        W31616   3.162  14.899   4.174 -0.0135  0.1891  0.0657
12763W        W31617  12.016  12.528   4.462 -0.0994 -0.1908  0.0931
12764W        W31618  18.505   8.029  12.685 -0.1786 -0.1466  0.2594
12765W        W31619   5.866  12.628   3.991 -0.2723 -0.0038 -0.2173
12766W        W31620   8.656   8.498   5.214 -0.1655 -0.0573 -0.1110
12767W        W31621   5.415  15.677   1.131  0.1061  0.2135  0.1304
12768W        W31622  13.352   2.525   0.712 -0.0875  0.0889 -0.1430
12769W        W31623  16.740   3.322   0.161  0.2870 -0.0156 -0.0283
12770W        W31624  17.405  10.134  13.016 -0.2234 -0.1141 -0.2538
12771W        W31625   9.843  15.294   0.157 -0.2154  0.0352 -0.3744
12772W        W31626  11.264   4.273   4.984 -0.0568 -0.1610 -0.2100
12773W        W31627  12.349   7.763   0.290  0.1583 -0.0871 -0.3285
12774W        W31628   5.748   7.637  12.089 -0.3024  0.0902  0.1568
12775W        W31629  13.407  14.765   2.228 -0.1596 -0.2031  0.0343
12776W        W31630   4.174  17.849  14.699  0.3252 -0.1574 -0.1866
12777W        W31631   7.920  12.656   0.398  0.1884 -0.1262 -0.1980
12778W        W31632  11.756   6.749   2.783  0.3512 -0.2247 -0.2825
12779W        W31633  17.085   7.306   0.555  0.2578 -0.1577  0.0491
12780W        W31634  14.589  16.033  11.114 -0.1406 -0.1632 -0.0499
12781W        W31635  17.836   9.855   0.560 -0.0955 -0.2135  0.0851
12782W        W31636  18.881   1.642   3.336  0.0631  0.0479 -0.1298
12783W        W31637   2.194  10.455  14.179  0.2288 -0.2143  0.1174
12784W        W31638  11.506  14.252   2.340  0.1421 -0.1045 -0.3432
12785W        W31639  17.353   4.892   2.544  0.1688  0.2458 -0.1340
12786W        W31640  12.085  10.397   0.339  0.1278 -0.0974 -0.0213
12787W        W31641  10.852   1.972   1.004  0.1574 -0.3754 -0.0164
12788W        W31642  14.218  16.117   0.690 -0.0245 -0.1081  0.1906
12789W        W31643  13.110  11.444  10.251 -0.1393 -0.3998  0.4225
12790W        W31644   6.975   3.715   0.603  0.2518  0.2634  0.0079
12791W        W31645   1.071  15.261   0.050  0.3363  0.1108 -0.2499
12792W        W31646  18.770  13.286   3.710 -0.1479 -0.0694 -0.0182
12793W        W31647  13.619  17.047  12.554  0.2698 -0.1724  0.1873
12794W        W31648  12.223  10.280  13.906 -0.4199  0.1393 -0.1705
12795W        W31649  10.427  12.282  10.849 -0.1589  0.3578 -0.1003
12796W        W31650  17.707  13.370  13.539  0.1733 -0.1072  0.0170
12797W        W31651   1.140  10.598   3.955  0.2369  0.0991  0.3912
12798W        W31652   7.726   4.325  14.165  0.0742  0.0331 -0.2673
12799W        W31653   8.804  15.471  13.892 -0.1310  0.2923  0.1313
12800W        W31654  13.913   4.450   0.817  0.0515  0.1353  0.2073
12801W        W31655   9.150  18.817  12.062  0.0949  0.1874 -0.0915
12802W        W31656  18.778  13.999  14.755  0.2310 -0.0549 -0.2346
12803W        W31657   7.211  11.956  13.981  0.1089  0.2384  0.0618
12804W        W31658  12.628   0.141   3.857  0.0974  0.0344 -0.0175
12805W        W31659  16.672   7.620   3.876  0.0962 -0.3027 -0.2621
12806W        W31660  15.402  14.689   0.702  0.0100 -0.0093  0.1819
12807W        W31661   0.764  16.347   1.709 -0.2788  0.0132  0.0806
12808W        W31662  12.672  11.110  12.189 -0.1652  0.2847 -0.0264
12809W        W31663   6.189  17.692   1.553  0.2493  0.1876 -0.1851
12810W        W31664  11.178  13.253  14.385  0.4263  0.0391  0.1841
12811W        W31665   6.650   3.844  13.032  0.0531  0.1571  0.0034
12812W        W31666  16.676   6.872   3.310 -0.2824 -0.1475 -0.0600
12813W        W31667  15.167  11.361  13.928 -0.2154  0.1057 -0.0588
12814W        W31668   6.627   2.067  10.933 -0.1287 -0.3472 -0.0650
12815W        W31669   8.254   7.234   0.867  0.2143 -0.0190 -0.3537
12816W        W31670   5.815   1.890  12.054 -0.0869 -0.1826  0.0075
12817W        W31671   3.445  10.280  13.715  0.2971 -0.0702  0.0431
12818W        W31672  15.509   4.489  13.916  0.1934 -0.0154 -0.5052
12819W        W31673  17.060  16.663  14.466  0.0272 -0.1412  0.3316
12820W        W31674   2.581  15.770   1.450 -0.1083  0.2556 -0.1964
12821W        W31675   7.525   5.594  10.961 -0.0308 -0.3449  0.1914
12822W        W31676  15.266  14.219   3.420  0.1764 -0.2175  0.0753
12823W        W31677  15.646   9.865   2.733  0.0345 -0.1917 -0.0006
12824W        W31678   1.263   8.063  13.311  0.0409 -0.2750  0.0574
12825W        W31679   6.464   9.219   4.183  0.2330  0.0499 -0.2416
12826W        W31680   9.663   8.626   0.571  0.0695  0.0945 -0.0946
12827W        W31681  18.756  10.876   4.335  0.2520 -0.1081 -0.2043
12828W        W31682   9.310   1.191   2.388 -0.2391  0.3007  0.2042
12829W        W31683   4.565  10.322  11.243 -0.1457 -0.1049 -0.3153
12830W        W31684   2.021   1.126  10.643 -0.0562  0.1712 -0.0007
12831W        W31685   9.606  11.574   4.503 -0.2335 -0.1967 -0.1438
12832W        W31686  12.454  11.555  14.396 -0.3156  0.2019 -0.0617
12833W        W31687  14.804  15.817   1.827  0.4131  0.1727 -0.1869
12834W        W31688   1.044   6.895   1.280 -0.1255  0.0153 -0.0893
12835W        W31689   2.524   0.607   2.412  0.0881  0.1572  0.1092
12836W        W31690  10.599  15.138   0.312  0.0933 -0.1982 -0.0152
12837W        W31691  16.520  13.817  13.930 -0.0324 -0.0245  0.2533
12838W        W31692  13.415  15.528   2.072  0.1499 -0.3081 -0.2906
12839W        W31693  15.112  14.275  11.725 -0.0154 -0.1009 -0.1490
12840W        W31694   4.446   2.434   0.568  0.2178  0.0089  0.1138
12841W        W31695  16.250   3.881  11.352 -0.1872 -0.3271 -0.0468
12842W        W31696  10.214  10.587  10.483 -0.2232 -0.1695  0.0936
12843W        W31697  16.159  16.009  13.003 -0.0490  0.3339 -0.1353
12844W        W31698  15.397  12.081  12.074 -0.1634  0.2023 -0.1292
12845W        W31699  12.185   5.911   1.507 -0.3420 -0.1717  0.4321
12846W        W31700  13.470  15.167  13.378  0.0429  0.3383  0.0841
12847W        W31701   1.010   2.252  14.257 -0.0638 -0.2030  0.1022
12848W        W31702  17.460  17.818   3.698 -0.0740 -0.0795  0.7289
12849W        W31703   5.178  18.529   2.085  0.1049 -0.2760 -0.2512
12850W        W31704   8.729   9.108  11.194  0.0489  0.0198  0.0806
12851W        W31705  11.794  15.639   0.252  0.2941 -0.0220 -0.3045
12852W        W31706   4.504   1.152  12.616  0.0819  0.0909 -0.1439
12853W        W31707   1.723   2.744   1.126 -0.0310 -0.0639 -0.1864
12854W        W31708   3.921  11.128  14.593 -0.4316  0.0049 -0.4410
12855W        W31709  15.720   9.480   4.527 -0.1500 -0.2516  0.0118
12856W        W31710  15.784   3.145   1.596  0.2164  0.1545 -0.1229
12857W        W31711  12.800   5.116   3.102 -0.2027  0.0691 -0.2899
12858W        W31712   1.815  14.863   2.343 -0.0277 -0.3470 -0.3362
12859W        W31713   3.502   4.015  14.420  0.1361 -0.1823  0.2208
12860W        W31714  15.657  17.458   1.297 -0.2055 -0.2059 -0.1842
12861W        W31715   5.364   5.792  10.707 -0.1796 -0.1715 -0.0996
12862W        W31716  16.980  14.391   1.527  0.2434 -0.0943 -0.0960
12863W        W31717   8.938  17.787   0.777 -0.2998  0.0096  0.1504
12864W        W31718  17.715   0.151   1.562  0.1476 -0.0524  0.3560
12865W        W31719  17.605   5.851   4.957 -0.0459  0.2348 -0.2053
12866W        W31720   1.812   3.728   1.132  0.1147 -0.2029  0.2125
12867W        W31721   1.652   7.289  10.619 -0.4199  0.1263  0.0085
12868W        W31722   5.438   3.919  10.405 -0.1309 -0.0542  0.2103
12869W        W31723   1.635  17.250   3.098  0.0406 -0.4305 -0.1659
12870W        W31724   4.288   5.051   0.663 -0.1927 -0.2432 -0.1336
12871W        W31725   2.838   1.652  11.237  0.2821  0.0726 -0.0435
12872W        W31726   9.470  11.324   2.140  0.1929 -0.2967  0.2685
12873W        W31727  14.209  14.246   0.309 -0.1107 -0.1771  0.0729
12874W        W31728   5.421   4.846  14.350 -0.1391 -0.3998 -0.0902
12875W        W31729  18.329  10.103   0.594  0.2981 -0.0263 -0.1001
12876W        W31730  10.501   7.303  11.653  0.0776 -0.0690  0.0127
12877W        W31731  16.922  17.810   4.810 -0.0953  0.0522 -0.2062
12878W        W31732  18.121  18.020  11.014  0.0716  0.1427 -0.4653
12879W        W31733   2.292   0.633   4.413 -0.1704 -0.1373 -0.0862
12880W        W31734  16.705   1.218   3.312  0.3426  0.0829  0.0472
12881W        W31735   2.749  16.706   0.052  0.1199  0.0070 -0.2519
12882W        W31736  17.950   0.807   3.970  0.1287 -0.3517 -0.1432
12883W        W31737   0.016  10.344  11.174 -0.0900 -0.3238 -0.0294
12884W        W31738   6.721  15.282   3.824 -0.3125 -0.0752  0.0468
12885W        W31739   9.383   8.311   3.059 -0.2002 -0.1516 -0.2235
12886W        W31740   5.632  19.040  13.840  0.1007 -0.1924 -0.1299
12887W        W31741   6.688   3.316   3.949  0.0420 -0.2719  0.1180
12888W        W31742  14.284   5.074   1.954 -0.0382  0.3130 -0.1560
12889W        W31743  15.860  17.553  14.491  0.0752  0.0610  0.1277
12890W        W31744   4.212   6.535  11.089  0.0297  0.0190 -0.1847
12891W        W31745   4.047   7.286  11.862 -0.2861 -0.2405  0.0369
12892W        W31746  16.725  18.427  11.213 -0.3545 -0.1856  0.2915
12893W        W31747  17.614   0.196  11.377  0.2280  0.3602  0.2265
12894W        W31748   2.176   1.819   3.411 -0.0055  0.0136  0.2806
12895W        W31749  10.952  19.065  13.129  0.0479 -0.0760  0.1986
12896W        W31750   6.542  13.920  11.093  0.1168 -0.2618 -0.3387
12897W        W31751   4.536   3.119   1.738 -0.1837  0.0049  0.0439
12898W        W31752  12.495   1.234   2.594 -0.4285 -0.1729 -0.2168
12899W        W31753   2.914  11.387   3.240  0.0783 -0.1315  0.2031
12900W        W31754   2.614  13.537  12.271  0.1466 -0.3202 -0.2251
12901W        W31755   5.369   2.016  13.794  0.2250  0.0824  0.1323
12902W        W31756   7.631   9.410   1.877  0.2887  0.0268 -0.1119
12903W        W31757   1.003  13.075   2.802 -0.1321 -0.1687 -0.0350
12904W        W31758  11.772  14.485  10.733 -0.2338 -0.0040 -0.3471
12905W        W31759   3.962  18.366   1.784 -0.1452  0.3574 -0.1169
12906W        W31760  12.927   3.409   3.563  0.3144 -0.2268 -0.1168
12907W        W31761   6.645   0.869  11.952  0.1223  0.1374 -0.4519
12908W        W31762  17.418  14.651  14.128 -0.0556 -0.0788  0.0001
12909W        W31763   1.723   6.575   3.465 -0.1575 -0.2775  0.1341
12910W        W31764   9.693  16.404  13.241  0.0298 -0.0018  0.0306
12911W        W31765   2.697  14.096   1.426  0.2536  0.2566  0.1748
12912W        W31766  14.197  15.774   1.542  0.2599  0.0864  0.0924
12913W        W31767   2.962  18.074  12.082 -0.3779  0.1326 -0.2055
12914W        W31768   7.372   5.558   3.153  0.0901 -0.2534 -0.0703
12915W        W31769   8.750  14.124  14.337  0.0392 -0.1903 -0.2172
12916W        W31770   8.025  13.368  12.353 -0.0561  0.0112  0.2433
12917W        W31771   3.146   7.866   1.542 -0.2302  0.1650 -0.2335
12918W        W31772   7.130   6.025  11.659 -0.1652  0.0615  0.1446
12919W        W31773  14.507  11.295   2.113 -0.1274  0.1597  0.0054
12920W        W31774  13.055  17.153  11.371  0.0122 -0.1257  0.0921
12921W        W31775  11.090  17.240   2.693 -0.0993 -0.0257  0.1289
12922W        W31776  18.450  16.572   2.535  0.0690  0.2699  0.0093
12923W        W31777   4.913  12.671  12.978  0.4252 -0.1839 -0.1596
12924W        W31778  14.816  14.616   1.087 -0.0840 -0.1507 -0.0493
12925W        W31779  18.070   6.203   4.116 -0.1083 -0.1124 -0.1702
12926W        W31780  15.520   9.846  13.600  0.1102 -0.0550 -0.2049
12927W        W31781  11.465  15.464   9.814 -0.1097 -0.3464 -0.1073
12928W        W31782   3.978  18.627   2.536  0.2198  0.0158 -0.0806
12929W        W31783   6.513   7.559   3.324  0.0801 -0.0141 -0.0067
12930W        W31784   3.692   3.090  10.551 -0.1178 -0.1331 -0.0531
12931W        W31785  12.077  15.732  12.195  0.2906 -0.0470  0.1528
12932W        W31786   4.926   2.957   0.237  0.2678  0.0573 -0.2818
12933W        W31787   3.462   1.589  11.952 -0.1304  0.0501 -0.0021
12934W        W31788   2.737  14.941   0.675 -0.1297  0.1928 -0.1841
12935W        W31789   2.499   1.086   3.044 -0.1449 -0.0189 -0.3978
12936W        W31790  13.546  16.417   4.004 -0.0035 -0.0273 -0.1787
12937W        W31791   3.469   3.616  11.236 -0.2009 -0.1578  0.0659
12938W        W31792   8.881   3.179  12.573 -0.0828 -0.1631  0.0064
12939W        W31793   4.565   8.581  14.353 -0.1686 -0.1937  0.1563
12940W        W31794   9.662  11.624   0.669 -0.0753  0.1615 -0.1958
12941W        W31795  16.685   9.459  14.110  0.0568  0.0491 -0.1354
12942W        W31796  12.950   2.226   1.803 -0.4862  0.1387 -0.1741
12943W        W31797  14.787   6.341  13.659 -0.1662 -0.2836  0.3487
12944W        W31798  17.528  13.005   1.064  0.1869 -0.0679 -0.2345
12945W        W31799  16.512   6.701   3.954 -0.1935 -0.2281 -0.2275
12946W        W31800  17.079  18.055  10.105  0.1451 -0.0067  0.0276
12947W        W31801  14.546  12.057   4.268  0.0293  0.3264 -0.0204
12948W        W31802  13.105   8.561  10.038 -0.3689 -0.1876 -0.0190
12949W        W31803   8.822   8.683  11.369  0.1235 -0.0566  0.1267
12950W        W31804   3.380   7.369  10.496  0.4592 -0.3011 -0.3448
12951W        W31805  14.061   7.368   2.390 -0.2504 -0.1576 -0.0767
12952W        W31806  17.919   1.790  13.831 -0.2140  0.2229 -0.2365
12953W        W31807   2.078   4.703   1.275  0.2266 -0.0421 -0.2745
12954W        W31808  16.401  15.846  14.099  0.2423  0.1705 -0.1394
12955W        W31809   5.016   5.548   3.193 -0.0395  0.2025 -0.1962
12956W        W31810   7.039  15.982  12.420 -0.1225 -0.2064  0.0467
12957W        W31811   0.775   7.167  10.583 -0.2268 -0.0187  0.5365
12958W        W31812   7.655   8.103  14.170  0.1211  0.2479  0.0985
12959W        W31813   3.767   8.435  11.938  0.1224 -0.3254  0.1231
12960W        W31814  12.414  11.248   1.795 -0.0571 -0.1328  0.2170
12961W        W31815  10.056  17.845  11.640 -0.0573 -0.0710 -0.2172
12962W        W31816  12.258   3.684  13.399 -0.0122 -0.1312  0.3161
12963W        W31817   3.525   1.770   1.684 -0.1700  0.0791 -0.0837
12964W        W31818   7.545  14.125  11.361 -0.1011  0.2067 -0.0226
12965W        W31819   2.110  17.602   5.055 -0.0480 -0.3310 -0.2746
12966W        W31820   2.663   9.750  13.323  0.0206  0.2846  0.0371
12967W        W31821   4.252  12.709  12.754  0.1951 -0.1113  0.0943
12968W        W31822  14.662  13.438  13.923  0.3099  0.1008  0.0481
12969W        W31823  17.958   9.180   4.109 -0.2469  0.0863  0.2543
12970W        W31824  16.153  16.728   9.316 -0.0196 -0.2037 -0.1980
12971W        W31825  16.109  15.378   4.266  0.2297 -0.1346 -0.2429
12972W        W31826  18.268   7.345   0.977 -0.0992 -0.1246  0.3466
12973W        W31827  16.136   0.320  11.367  0.0010 -0.0176 -0.1729
12974W        W31828   7.288  10.404   0.384 -0.1703  0.1033  0.0241
12975W        W31829  13.431   3.325  12.306  0.1564  0.1320  0.2160
12976W        W31830  12.552   0.976  13.174 -0.0343 -0.2736 -0.0480
12977W        W31831   6.742  10.592  13.725 -0.1900 -0.0729  0.4245
12978W        W31832   2.587   3.147   4.101  0.1061 -0.1702 -0.3024
12979W        W31833  18.344  15.977  14.467  0.0580 -0.2060 -0.1279
12980W        W31834  16.527   6.705   0.799  0.0466 -0.3276 -0.0107
12981W        W31835   0.365   4.381  12.753 -0.0111  0.1496 -0.0071
12982W        W31836  11.911   0.583   1.747 -0.0865 -0.1506  0.3909
12983W        W31837   8.090   3.022   3.226 -0.2124  0.2089 -0.0539
12984W        W31838  11.019  13.775   3.227 -0.2670 -0.0424  0.0823
12985W        W31839   3.819  13.528   0.065 -0.1662  0.1160  0.0263
12986W        W31840  17.926  17.881  11.434 -0.0450 -0.2212  0.0145
12987W        W31841   9.357   5.790   0.525  0.0439 -0.3209  0.3053
12988W        W31842   2.383   6.193  12.614 -0.1377  0.2764 -0.3691
12989W        W31843  11.209  18.190   2.486 -0.1515  0.1915 -0.3280
12990W        W31844   0.514  12.867  13.994 -0.0244 -0.2974  0.1150
12991W        W31845   8.406   4.861  12.067 -0.1697 -0.0412 -0.2735
12992W        W31846   7.389   3.821   1.065  0.1321  0.2395  0.3639
12993W        W31847   2.572  12.991   0.949  0.1698 -0.1930  0.1463
12994W        W31848   9.159   7.261   4.600  0.1069 -0.0224 -0.1411
12995W        W31849  16.688  11.615   1.981 -0.0761 -0.0174 -0.1908
12996W        W31850   6.292   6.746   1.061  0.2864 -0.1285 -0.2502
12997W        W31851  14.089   7.771  14.090 -0.0513  0.2166  0.0251
12998W        W31852  16.406   5.931  11.004 -0.0549 -0.2004  0.0940
12999W        W31853   5.174  15.011  14.091 -0.1193  0.0431 -0.2089
13000W        W31854  17.244  11.562   0.658  0.0584  0.0289  0.1369
13001W        W31855   1.481   5.661  11.856 -0.3722  0.0772  0.1376
13002W        W31856   5.041   8.745   3.174  0.1798 -0.0268  0.1393
13003W        W31857  10.964  19.073   3.932 -0.1505  0.0598  0.0321
13004W        W31858   0.076   6.733   3.166  0.1996  0.0267 -0.0256
13005W        W31859   9.241   2.276   1.081 -0.4341  0.3038  0.1126
13006W        W31860   6.887  14.481  14.561 -0.2604  0.2756  0.0052
13007W        W31861  17.949  18.614  13.892  0.1091  0.0956 -0.0764
13008W        W31862  17.253  18.863   0.328 -0.0309  0.1844  0.0644
13009W        W31863  16.457   1.868  10.596 -0.2389 -0.4735  0.3522
13010W        W31864   0.997   4.610   2.669 -0.1279  0.1341  0.1218
13011W        W31865  16.803  11.030  14.102 -0.0276  0.1830 -0.0289
13012W        W31866   9.648  12.061  13.246  0.1771  0.0282 -0.1417
13013W        W31867   9.934  11.374   2.864  0.1829 -0.2139  0.0836
13014W        W31868   9.336   8.320  11.992  0.2084  0.3061  0.0471
13015W        W31869  16.717   0.826   1.532 -0.1236  0.2940  0.0454
13016W        W31870  13.881   3.173   2.639  0.2841 -0.0344  0.1553
13017W        W31871  13.320   0.568   1.168  0.2407 -0.0743  0.1194
13018W        W31872   9.847  15.871  10.833  0.1066  0.1370 -0.2357
13019W        W31873  12.185   3.959  13.991  0.1473  0.1771  0.0170
13020W        W31874   4.882   2.637   1.563  0.0929 -0.1197 -0.0356
13021W        W31875  16.039   4.787  12.663 -0.1775  0.0721  0.1066
13022W        W31876  10.301   3.362   1.933  0.0072  0.1284  0.1016
13023W        W31877  15.916  17.669   4.649 -0.0314 -0.1313  0.0482
13024W        W31878   5.995  15.234  11.067 -0.1309  0.2080  0.0397
13025W        W31879  15.895   7.034  11.993  0.3581 -0.0565  0.1373
13026W        W31880  13.187   6.058  12.685  0.1922  0.0748  0.2010
13027W        W31881   6.939  12.369   1.404  0.0082 -0.2124  0.1093
13028W        W31882   2.117  16.204   1.292  0.0753 -0.0966 -0.0746
13029W        W31883  13.455  18.946  12.271  0.1851  0.1723  0.0952
13030W        W31884   8.211  14.124  10.113  0.2657  0.1765 -0.0354
13031W        W31885   3.074  14.792   4.972  0.1218  0.0181 -0.3391
13032W        W31886  18.083  11.886  12.130  0.2484  0.0107  0.2687
13033W        W31887   9.809  18.666  13.148  0.1630 -0.0271  0.0755
13034W        W31888   2.228  15.956  10.988 -0.0128 -0.0409 -0.2297
13035W        W31889  13.462  10.379  11.172  0.0210  0.3184 -0.1312
13036W        W31890  18.643  15.942   1.020  0.0080 -0.0938  0.4467
13037W        W31891   7.725   1.762   3.701  0.0574 -0.0508  0.0573
13038W        W31892   7.558   8.914   1.884  0.0957 -0.1098  0.0482
13039W        W31893  18.756  18.565  10.407 -0.2864 -0.0208  0.0497
13040W        W31894  10.150   6.578  14.375  0.0574 -0.0882  0.0704
13041W        W31895   5.506   5.884  12.534  0.0666  0.1270 -0.0837
13042W        W31896  10.008  12.129   2.422 -0.0314 -0.3563  0.0116
13043W        W31897   5.960  16.390  11.642  0.1552 -0.1202  0.1713
13044W        W31898  15.147  15.794  10.496  0.1679 -0.1199  0.1583
13045W        W31899   6.966   3.440  12.436  0.1963 -0.0291  0.0016
13046W        W31900   8.815   2.813  12.188 -0.1095 -0.1860 -0.0178
13047W        W31901   2.305   8.003  13.775 -0.0210 -0.0709  0.0376
13048W        W31902  10.032   8.134   3.934 -0.3080  0.0604 -0.0545
13049W        W31903  16.859  15.962  14.193 -0.0213  0.2957 -0.2710
13050W        W31904   9.831   6.920   3.440 -0.2446 -0.3230  0.0706
13051W        W31905   3.609  10.478  11.149 -0.1864 -0.0737 -0.1147
13052W        W31906   1.345  12.919   1.996 -0.0367  0.1199  0.2512
13053W        W31907   4.823  11.483  12.431  0.0479  0.0142  0.1399
13054W        W31908   3.765  13.994  13.999  0.0024  0.0617 -0.0557
13055W        W31909  10.774  14.708   1.375  0.2102 -0.1687 -0.4429
13056W        W31910   5.213  15.268  12.028  0.1794  0.4374 -0.3438
13057W        W31911  15.766  11.010  11.915  0.0485 -0.1345  0.0925
13058W        W31912  18.601   6.194   1.273 -0.0384  0.1438  0.1201
13059W        W31913   5.506  14.405   3.723  0.0028 -0.2137 -0.1955
13060W        W31914   4.260  11.177   1.846 -0.0855 -0.0875 -0.2532
13061W        W31915   9.111  11.904   9.387 -0.5358  0.3970 -0.2328
13062W        W31916   7.100   6.078  12.922 -0.3363  0.1692  0.1729
13063W        W31917  12.837  14.279   2.987  0.3970  0.0369  0.0393
13064W        W31918   7.495   4.446   0.469  0.2059  0.1401  0.0031
13065W        W31919  17.990  13.627   0.439  0.0789  0.1727 -0.1771
13066W        W31920   0.567   0.271  10.964  0.2544 -0.0536 -0.0141
13067W        W31921   5.716   9.591   4.175 -0.1618  0.0965 -0.3509
13068W        W31922  10.479   5.021  11.767 -0.0685  0.1321 -0.0112
13069W        W31923  13.362  15.728   0.250  0.3185 -0.1991  0.0786
13070W        W31924   3.875  14.448   4.511  0.2813 -0.1004  0.0741
13071W        W31925  12.113   3.264   1.944 -0.3377  0.1842 -0.1602
13072W        W31926   0.326   1.230   2.804 -0.0773 -0.0819  0.0837
13073W        W31927  11.359   9.858   2.379 -0.0744  0.0078 -0.0306
13074W        W31928   0.058   8.983  12.795  0.1419  0.1144  0.1377
13075W        W31929   8.302   7.695   1.984  0.1879  0.0023  0.0508
13076W        W31930   8.509  15.314  10.840  0.1896 -0.3140  0.3710
13077W        W31931   1.196  13.627   3.730 -0.0267 -0.2562  0.2663
13078W        W31932   0.107   2.741   1.563  0.2626 -0.0525 -0.3527
13079W        W31933   2.419  18.081  12.886  0.2768 -0.3668 -0.2084
13080W        W31934  17.026  18.609   3.597 -0.0421 -0.3643 -0.3585
13081W        W31935   7.420   7.486  11.813 -0.1580 -0.0799 -0.1691
13082W        W31936   0.146   2.666  12.801  0.1065 -0.2638 -0.2993
13083W        W31937  15.928  10.661  13.020 -0.0564  0.1455  0.2743
13084W        W31938   5.400  10.944  11.114 -0.5960  0.0678  0.3056
13085W        W31939  14.947   3.255   1.727  0.1396 -0.1052 -0.0840
13086W        W31940  18.190  13.234  11.739 -0.0140 -0.3536 -0.1787
13087W        W31941  10.292  15.880   1.991 -0.0598  0.2163  0.0412
13088W        W31942  13.401  13.777  12.476  0.0042 -0.2118  0.0764
13089W        W31943  10.620  13.310   2.177  0.0208  0.4816 -0.1970
13090W        W31944  11.834  15.677   9.494  0.1300 -0.1056 -0.0507
13091W        W31945  18.017   0.556  12.951  0.2653  0.0062 -0.1065
13092W        W31946  18.057  13.512   1.320  0.0429 -0.0040 -0.0492
13093W        W31947   8.159   4.551  11.761  0.1128  0.0154  0.0127
13094W        W31948  10.906   5.058  12.137  0.1610  0.1498  0.1279
13095W        W31949   1.893   8.397  11.523  0.0219 -0.0640  0.0979
13096W        W31950   2.233   6.653  12.578 -0.0942  0.1217  0.1200
13097W        W31951  18.432   5.843  11.024  0.1703  0.1103  0.0171
13098W        W31952   5.129   1.902   1.198 -0.0096  0.0812 -0.1208
13099W        W31953   4.923  10.456   9.707  0.0295  0.4449 -0.4088
13100W        W31954  18.545   1.753  13.661 -0.2380 -0.2318 -0.0464
13101W        W31955  18.560  14.932   5.199  0.0432  0.1198  0.2663
13102W        W31956  13.891   7.716   2.059  0.0424 -0.0760 -0.1704
13103W        W31957   4.706  11.947   3.860  0.2540 -0.0865  0.3056
13104W        W31958  10.031   7.072  14.407  0.0825 -0.0329 -0.0180
13105W        W31959   7.941   5.931  12.791 -0.1941  0.1078 -0.1893
13106W        W31960   8.976  12.009  10.256  0.0577  0.1642 -0.0762
13107W        W31961   8.535   5.048   1.749  0.1289  0.0135  0.3403
13108W        W31962  13.406   5.636   1.119 -0.1943 -0.2140  0.0545
13109W        W31963   0.696   8.951   2.567 -0.4279 -0.1445 -0.2325
13110W        W31964   1.903   7.175   2.380  0.0771 -0.2180  0.0944
13111W        W31965  15.731   5.210  12.640  0.3687 -0.1278  0.1454
13112W        W31966  11.642   5.738   3.514  0.2570  0.1832  0.1397
13113W        W31967   5.236   8.557   1.549  0.2390  0.0749 -0.1124
13114W        W31968  10.211   7.489   4.517  0.0212 -0.0331 -0.0174
13115W        W31969   9.969  14.789   0.906 -0.1235  0.0199 -0.2614
13116W        W31970   7.709   4.285   3.616 -0.0894 -0.4037  0.1196
13117W        W31971  18.035   4.511   1.275  0.1983  0.3454 -0.0909
13118W        W31972  13.867   0.474   0.141 -0.0348  0.3164  0.1895
13119W        W31973   0.763  12.571   4.595 -0.1756  0.1344 -0.0399
13120W        W31974   8.455   9.604  13.219  0.1590 -0.2110 -0.1673
13121W        W31975  17.865   7.845  12.702 -0.2893  0.0798  0.2803
13122W        W31976  14.025   6.677  11.537  0.2451 -0.0072  0.2509
13123W        W31977  11.935  17.319   3.456 -0.0611  0.3319  0.1778
13124W        W31978  18.873   2.091  13.877 -0.0630  0.0394 -0.2645
13125W        W31979   5.143  17.086  14.609  0.1073  0.0174 -0.3042
13126W        W31980  13.474   1.900  14.289  0.2791 -0.0885  0.0422
13127W        W31981  16.727  17.487   2.733  0.0014  0.2695  0.0020
13128W        W31982   6.740   0.849  11.472  0.1202 -0.0177  0.2301
13129W        W31983  13.603   7.631   2.543  0.1298 -0.0089 -0.0705
13130W        W31984  10.706  17.195   1.801 -0.0057 -0.1568 -0.2632
13131W        W31985  13.562   7.401  12.615  0.1473 -0.5523  0.0376
13132W        W31986   9.606   4.535   3.134  0.1536  0.2702  0.1701
13133W        W31987   0.744  16.989  12.299  0.0431  0.1119  0.1404
13134W        W31988   5.541   6.006   1.632 -0.3308  0.0376  0.0546
13135W        W31989  13.255  10.533  11.833 -0.0623 -0.1433 -0.0403
13136W        W31990   7.656   0.108  13.092 -0.3230  0.4407  0.0511
13137W        W31991   7.802   0.991   4.064 -0.3814  0.1582  0.1073
13138W        W31992   8.464   5.284  14.132 -0.2792 -0.0551 -0.1939
13139W        W31993   4.169  14.143  12.869 -0.4381 -0.2429  0.2086
13140W        W31994  15.050  11.257   1.977  0.1224 -0.0509  0.1226
13141W        W31995   8.715  18.175  13.297 -0.1291  0.0564  0.1063
13142W        W31996   2.025  15.756  14.619  0.2681 -0.1485  0.0059
13143W        W31997   4.308  11.938  14.392 -0.1598 -0.0921  0.0698
13144W        W31998  12.026   6.395   0.388  0.0775  0.0355  0.0190
13145W        W31999  17.554  16.572  11.833 -0.2900 -0.2109 -0.1115
13146W        W32000  12.381  14.500   3.023 -0.1548  0.0995  0.0474
13147W        W32001  11.372   1.286  14.640 -0.0775  0.4489  0.1489
13148W        W32002   8.992  15.295   0.039 -0.0306  0.2639  0.4192
13149W        W32003  18.314  15.279   3.559 -0.0911  0.1120  0.0251
13150W        W32004   2.184  18.861  14.713  0.0680 -0.0082  0.1638
13151W        W32005   6.844   8.455   2.233 -0.0698 -0.0439  0.3029
13152W        W32006  18.972   7.574  14.774 -0.2268  0.1261  0.0780
13153W        W32007   5.415   6.236   3.526  0.1058 -0.0879 -0.1111
13154W        W32008   9.455  19.026  10.836 -0.0287 -0.0139 -0.1450
13155W        W32009   8.127   5.229  10.170  0.1158  0.0778  0.0405
13156W        W32010   1.836   7.544  14.676  0.2772  0.0338 -0.0539
13157W        W32011  13.601   9.152  12.678  0.2219  0.1632 -0.0737
13158W        W32012   3.133  14.885   2.329  0.5256 -0.0372  0.0105
13159W        W32013  10.800   1.805   0.230 -0.0675 -0.0065  0.0933
13160W        W32014   6.756   8.801   0.502 -0.0850  0.2222  0.1161
13161W        W32015  14.089   3.515   3.583 -0.0921  0.0056  0.0617
13162W        W32016  14.965   4.038   4.987 -0.0476 -0.0251 -0.0143
13163W        W32017  11.318   6.707  11.780 -0.1572  0.0685 -0.0549
13164W        W32018   1.282  13.576  13.432 -0.3809  0.2353  0.0071
13165W        W32019  11.519  10.023   0.903  0.0958 -0.0767 -0.3073
13166W        W32020  10.068  18.431  12.586 -0.2312  0.0905 -0.1107
13167W        W32021   2.409  13.881   1.866  0.0463  0.1740 -0.4145
13168W        W32022   4.292  11.180  12.488  0.0513  0.0004 -0.1773
13169W        W32023  10.945   5.125   3.886  0.3337  0.0837 -0.1631
13170W        W32024  11.904  12.219   4.079 -0.2288 -0.0407  0.1885
13171W        W32025  17.606   5.974  12.565  0.1194 -0.2744 -0.1511
13172W        W32026  14.508   2.380   0.678 -0.0659  0.2979  0.1077
13173W        W32027  13.050   3.197  13.153 -0.0295  0.0119 -0.1249
13174W        W32028  11.246  16.832  13.585  0.0709  0.0265  0.2654
13175W        W32029   7.970  17.676   2.836 -0.1949 -0.0061 -0.1400
13176W        W32030   3.780  16.487  11.517 -0.2189 -0.1216  0.2042
13177W        W32031  16.402  11.417  11.537  0.4154  0.1843  0.0728
13178W        W32032  17.593   7.891   1.112  0.0878  0.0485  0.1156
13179W        W32033   2.748   4.861   2.354 -0.1515 -0.0652  0.1491
13180W        W32034  16.408   6.004   2.840  0.0083 -0.0278 -0.1842
13181W        W32035  12.618   5.192  10.434 -0.0516  0.0758  0.2012
13182W        W32036   1.954  16.262   2.201 -0.0009 -0.1361 -0.1696
13183W        W32037   7.046   4.497   4.096 -0.0644  0.0136 -0.1551
13184W        W32038  14.250  16.173  10.505  0.0222  0.1764  0.2143
13185W        W32039   7.673  15.257  13.288 -0.0319 -0.0086  0.1655
13186W        W32040   3.748  18.661   2.970  0.0929  0.1686  0.0297
13187W        W32041  11.023   2.869   2.366  0.0998 -0.3617 -0.0823
13188W        W32042   1.714   6.542  11.902 -0.0461 -0.0211  0.0318
13189W        W32043   7.742  13.983  10.659  0.0251  0.2100  0.1181
13190W        W32044  16.815  16.976   2.916  0.1580  0.0006  0.1819
13191W        W32045  11.486   1.002  14.237  0.0456  0.2531  0.2431
13192W        W32046   5.263  15.182  13.593  0.3580 -0.2116  0.1910
13193W        W32047  13.324   5.159  12.289 -0.1834  0.2489  0.0879
13194W        W32048  17.740   8.975   0.164 -0.0472  0.1024  0.3039
13195W        W32049   1.187   1.051   0.952 -0.2665  0.0238  0.1374
13196W        W32050   2.668   1.344  10.775  0.1411 -0.0553 -0.2129
13197W        W32051  12.686   8.973  11.911  0.0632  0.1537  0.2382
13198W        W32052  14.705  15.307   3.173 -0.1403 -0.0616  0.2010
13199W        W32053   4.684  15.086   0.554 -0.4985  0.3720 -0.0607
13200W        W32054   7.052  16.338   3.638  0.2228  0.1353 -0.0048
13201W        W32055  16.444  12.846  12.725 -0.0368  0.1449 -0.0532
13202W        W32056   8.012   3.516  12.580 -0.0205  0.0572  0.3513
13203W        W32057  19.080   9.912   3.147 -0.0032 -0.0963  0.0682
13204W        W32058   2.285  10.928   0.699 -0.3106 -0.0554  0.2678
13205W        W32059  16.855  11.398  12.289  0.2627  0.1233  0.0936
13206W        W32060   6.282   2.287   9.536 -0.0983 -0.3556 -0.1695
13207W        W32061  12.922   3.458   1.934  0.1575 -0.3366  0.1265
13208W        W32062  17.128  13.349   9.583  0.0695 -0.2492  0.0331
13209W        W32063   2.411   7.953   0.575  0.1115  0.2127  0.1725
13210W        W32064   8.979   4.401   1.243  0.0999 -0.3189 -0.2217
13211W        W32065   8.318   7.383   0.168 -0.0493 -0.0293  0.2723
13212W        W32066  13.368  12.768   0.075 -0.2410 -0.2268 -0.0824
13213W        W32067  14.282  11.216   4.053  0.4060  0.2040 -0.0468
13214W        W32068   0.491  11.537  14.684 -0.2206  0.1982  0.1689
13215W        W32069  10.772   8.652  10.572 -0.2185  0.2409 -0.2140
13216W        W32070   6.437   3.576  11.980 -0.0383  0.0438  0.0172
13217W        W32071   7.334  16.227  10.393 -0.1189  0.3827  0.3500
13218W        W32072  13.111  18.302  14.279 -0.0374  0.0896  0.1749
13219W        W32073   2.501  15.837   0.634  0.0538  0.0454  0.5246
13220W        W32074   6.579  12.067  12.513  0.5787  0.3655  0.0424
13221W        W32075  19.120   7.870  11.459 -0.2874 -0.1926  0.0544
13222W        W32076  13.820   1.202   0.636 -0.0613 -0.1698 -0.1284
13223W        W32077  18.498  12.494   4.464 -0.0065 -0.0450  0.1896
13224W        W32078   2.645   8.295  14.004  0.1288  0.2784  0.1495
13225W        W32079   9.464   5.409  11.211  0.2537  0.0996 -0.0172
13226W        W32080   8.172  16.414  10.737  0.2696  0.0023  0.2877
13227W        W32081  10.929  12.637   4.121 -0.2076 -0.1375 -0.2226
13228W        W32082   1.852  12.195  11.651 -0.0432 -0.1558  0.0705
13229W        W32083   1.550   8.030   2.963 -0.0415  0.0834  0.3381
13230W        W32084   0.690  17.936  13.475 -0.0386 -0.2579  0.1887
13231W        W32085  12.482  14.398   0.590 -0.1973  0.0245 -0.1315
13232W        W32086   6.272   9.214  14.235 -0.3811  0.2545  0.0735
13233W        W32087  14.824  15.485  13.829  0.1529  0.1664 -0.0380
13234W        W32088   6.096  18.781   3.992 -0.1862  0.0787  0.1007
13235W        W32089   6.569  16.052  12.335 -0.1621 -0.0023 -0.0926
13236W        W32090   4.759  18.568  10.983  0.0079 -0.1691 -0.1705
13237W        W32091  18.413   9.577   4.844  0.0634 -0.0750  0.1011
13238W        W32092   0.300   0.755   3.303  0.1002  0.1839  0.0549
13239W        W32093  16.826  10.900  11.890 -0.0242 -0.1848  0.1177
13240W        W32094  15.251  16.499   2.175 -0.0070 -0.0606  0.2673
13241W        W32095   9.763   4.796   0.853  0.0690 -0.2202  0.0555
13242W        W32096   0.848  17.437  12.482 -0.3681  0.0249 -0.0731
13243W        W32097  18.156   6.154  11.983  0.5267  0.2297  0.1333
13244W        W32098   3.636   1.849   3.740 -0.1677 -0.2450 -0.0867
13245W        W32099  13.557   3.079   3.033  0.2892  0.2068  0.1581
13246W        W32100  11.428  15.951   3.043  0.0635 -0.0771 -0.1241
13247W        W32101   8.929   7.205   0.908 -0.1772 -0.1128 -0.3161
13248W        W32102  14.209  11.257   0.016 -0.1074 -0.0870  0.0573
13249W        W32103   5.790   7.907  11.680 -0.0057  0.2304  0.2095
13250W        W32104  15.871   0.211  11.815 -0.1194  0.1001 -0.2792
13251W        W32105  12.097  15.596   1.572  0.1373  0.2145 -0.2157
13252W        W32106   1.901  18.365  13.490 -0.1971  0.1245  0.1293
13253W        W32107   5.049   5.677  11.133 -0.0108  0.1014  0.1912
13254W        W32108   3.981  14.919   3.809 -0.2160  0.1453 -0.2040
13255W        W32109   5.378  18.596   1.632 -0.2139  0.1660 -0.0247
13256W        W32110   7.603   2.987   3.201  0.1449  0.0923 -0.1925
13257W        W32111   7.479   7.865   1.136 -0.0272  0.0622 -0.3829
13258W        W32112   0.414  17.519   1.983 -0.0843  0.3110  0.1337
13259W        W32113  12.129   2.671  11.124  0.0818 -0.1147 -0.0556
13260W        W32114  14.459  12.784   4.272 -0.0315  0.2219 -0.3273
13261W        W32115  10.100  13.922   4.843  0.0808  0.2126  0.0566
13262W        W32116   7.127   8.312  10.851  0.0621 -0.2580 -0.1381
13263W        W32117   8.469   6.445  14.656 -0.1089  0.0021  0.1360
13264W        W32118   4.135   3.179  13.330  0.0430 -0.1021 -0.0178
13265W        W32119   5.656   0.805   1.808  0.2327  0.2828  0.2161
13266W        W32120   6.128   2.594  12.849  0.0689  0.1330 -0.1599
13267W        W32121   4.340   8.569   9.347 -0.3544 -0.0136  0.3233
13268W        W32122   1.484  11.348  10.596 -0.7401 -0.0849 -0.0186
13269W        W32123  19.126  15.048   5.182  0.0424  0.2738  0.2028
13270W        W32124   7.135  14.893   9.527  0.5581  0.0804  0.0620
13271W        W32125  18.445  17.955   2.660  0.0147 -0.1210  0.0988
13272W        W32126  15.499  12.324   0.865  0.1080 -0.0742 -0.2185
13273W        W32127  12.339  17.807   4.141  0.3615 -0.4390 -0.1702
13274W        W32128   8.597  14.023   1.886 -0.1022 -0.3916 -0.0165
13275W        W32129   2.947   1.391   2.630  0.0210  0.2797 -0.0667
13276W        W32130   4.040   5.264   4.231  0.0496 -0.5094  0.1535
13277W        W32131   5.385   2.787  11.978 -0.0349  0.1336 -0.0325
13278W        W32132   1.784  14.059   3.127 -0.2666 -0.1582 -0.2336
13279W        W32133   2.785   2.710   0.974 -0.1377  0.0374 -0.2202
13280W        W32134   1.846   6.810  14.364  0.2235  0.0706 -0.2682
13281W        W32135   1.427  13.375   1.853  0.5459 -0.1806  0.2240
13282W        W32136   9.101   2.161   1.743  0.1117  0.2586 -0.1573
13283W        W32137   1.516   4.825  11.858 -0.3793 -0.2462  0.3249
13284W        W32138  17.522   3.910  13.751 -0.0093 -0.0598 -0.0202
13285W        W32139  17.403   5.220   1.653 -0.0127 -0.2873  0.1937
13286W        W32140  18.218  18.518   1.824 -0.1030  0.1405  0.1376
13287W        W32141   3.186   6.663   1.756 -0.0190 -0.0854 -0.4323
13288W        W32142   6.627   6.563   4.263 -0.1425  0.0426 -0.1369
13289W        W32143   0.223   5.769   4.257  0.1033 -0.0336 -0.0097
13290W        W32144   6.749  17.905  12.995 -0.2410 -0.0682  0.1709
13291W        W32145   4.620  11.865  13.451  0.1004 -0.1825  0.0137
13292W        W32146   8.848   4.326   0.699 -0.0522 -0.0255 -0.1719
13293W        W32147  16.146  15.983  11.709 -0.1719  0.0068 -0.0003
13294W        W32148  13.616  14.076   9.740 -0.0357 -0.0684  0.2253
13295W        W32149   6.722   9.973  12.707  0.0046  0.1168 -0.3748
13296W        W32150   1.715  14.784   1.336  0.2205  0.0511 -0.0375
13297W        W32151  16.787   7.309   3.048 -0.1505 -0.3322 -0.2421
13298W        W32152   0.328   8.038  11.733  0.1932  0.0289 -0.1495
13299W        W32153   7.772  16.658   1.787 -0.0421 -0.1417 -0.1590
13300W        W32154  13.863   5.192  12.018  0.0884  0.2709 -0.3117
13301W        W32155  14.485   3.736  13.829 -0.0758  0.0652  0.1021
13302W        W32156   7.703   8.876   0.056  0.2163 -0.0799  0.1376
13303W        W32157   1.333   6.447   2.145 -0.1808 -0.1666 -0.1534
13304W        W32158  18.368  16.389  12.425 -0.1525 -0.1601 -0.1166
13305W        W32159   4.399  16.120  13.603 -0.2992  0.1534  0.3579
13306W        W32160   8.238   9.501  10.099 -0.3469 -0.0765  0.0838
13307W        W32161  13.483   9.623  14.005 -0.0726  0.0234  0.0468
13308W        W32162  16.911   5.760   0.690  0.2434 -0.1273 -0.2324
13309W        W32163   0.404  14.178   2.936 -0.0778 -0.1241  0.1396
13310W        W32164   2.038  15.447  11.912  0.0224  0.0726 -0.1345
13311W        W32165   8.592  16.517   3.680  0.0345 -0.1208  0.0252
13312W        W32166   4.412   8.248   3.250  0.0165  0.2724  0.0472
13313W        W32167  15.334  12.367  13.685  0.1751  0.1675  0.2275
13314W        W32168   9.876  19.152   0.442 -0.1423 -0.0365 -0.4485
13315W        W32169   2.964  16.150   0.189  0.2967  0.0201 -0.0736
13316W        W32170   7.604  17.387  14.233  0.1336  0.1678  0.1286
13317W        W32171   4.057   2.165   0.591 -0.0943 -0.0421  0.1189
13318W        W32172   9.417  16.586  11.333 -0.4493 -0.0802  0.2857
13319W        W32173  18.934   4.266   3.268 -0.0088  0.2635 -0.3795
13320W        W32174   0.041  17.535  12.904 -0.1328  0.1072  0.1417
13321W        W32175   6.364   7.753   1.460  0.0592  0.0365  0.1943
13322W        W32176  11.535  17.425   0.122  0.0383 -0.1078 -0.0271
13323W        W32177  16.150   7.794   1.081  0.1717 -0.3486 -0.1935
13324W        W32178   7.766   2.276  12.067  0.0297 -0.0322  0.1207
13325W        W32179   0.414  14.728  10.288 -0.0903 -0.1859 -0.2236
13326W        W32180   7.366  14.006   2.795  0.2171 -0.2640  0.2721
13327W        W32181  13.431   0.054  11.403  0.1799 -0.0738  0.1403
13328W        W32182   0.971  11.963   0.662 -0.0406 -0.0078 -0.1245
13329W        W32183  17.615  17.617   3.103  0.2320  0.0634  0.0716
13330W        W32184  15.257   8.383   3.845 -0.1160 -0.1069  0.2274
13331W        W32185  17.913  16.136  11.745  0.0882  0.0543  0.2136
13332W        W32186   1.696   5.183   3.613  0.1891  0.0308 -0.0857
13333W        W32187  10.256   1.898   3.837  0.0956 -0.0584 -0.0457
13334W        W32188   7.656   1.917  13.418  0.1912  0.0854  0.0818
13335W        W32189   3.600   4.226   3.236 -0.2131 -0.0900  0.0166
13336W        W32190   6.915   9.473  12.903 -0.0740  0.0879  0.1634
13337W        W32191  17.026   3.798  13.628  0.2900 -0.0070  0.0098
13338W        W32192   0.499  18.077  12.224  0.0813 -0.0149 -0.1082
13339W        W32193  14.351  12.401  11.269 -0.0186 -0.1016  0.1615
13340W        W32194   0.023  10.591   4.386 -0.1829  0.1102 -0.0052
13341W        W32195  18.538  12.648   1.251  0.0410 -0.2129 -0.2214
13342W        W32196   7.082  18.684   3.682 -0.0445  0.1741  0.0225
13343W        W32197  18.691  17.656  11.918  0.0222  0.1942  0.3831
13344W        W32198  12.061   1.472   2.482  0.2422 -0.3208  0.1554
13345W        W32199   6.760   6.069   3.568  0.0228 -0.0377  0.0636
13346W        W32200  17.728  11.462   1.899 -0.0006 -0.2197 -0.0642
13347W        W32201   0.080   5.567  14.083  0.2240  0.2886 -0.0942
13348W        W32202  15.050  12.326   0.581  0.1975 -0.2433  0.0451
13349W        W32203   2.168   3.813  13.933  0.3463 -0.2655 -0.2046
13350W        W32204   6.133   8.173  12.836 -0.1075 -0.0992 -0.2797
13351W        W32205  18.285   9.965   1.127  0.2647 -0.2743 -0.0163
13352W        W32206   6.544   4.182  12.577 -0.2574 -0.3082  0.1122
13353W        W32207   5.290  17.367   3.146  0.0279 -0.1432 -0.0671
13354W        W32208  13.208   2.739  10.444  0.0630 -0.1998  0.1165
13355W        W32209   7.353  18.222   1.175  0.2468  0.1989  0.2156
13356W        W32210   8.517  17.498   0.468  0.2355 -0.1891 -0.0081
13357W        W32211   4.263   0.741   1.364 -0.1713 -0.4716  0.0761
13358W        W32212   9.482  14.411   0.102 -0.1999 -0.1539 -0.2855
13359W        W32213  13.092  13.175  12.976 -0.1507 -0.0858  0.1188
13360W        W32214   6.598   0.948   2.517 -0.2026 -0.1433 -0.1233
13361W        W32215   5.391  10.168   0.291  0.2454 -0.0582  0.2526
13362W        W32216  11.934   4.557  12.419  0.0200  0.2019  0.0663
13363W        W32217   7.280   2.197   4.403  0.0657 -0.1988 -0.0986
13364W        W32218  17.802  17.939   1.501  0.0956  0.1588 -0.0223
13365W        W32219   1.213   9.110   4.167 -0.0530  0.1802  0.5248
13366W        W32220  16.481  13.744  12.918 -0.0752 -0.0503  0.3099
13367W        W32221   4.687  14.856   9.659  0.1534  0.2182 -0.2419
13368W        W32222   7.557  15.870  11.048 -0.0401 -0.0112  0.0562
13369W        W32223  13.552   1.952  12.475 -0.2084  0.2342  0.2639
13370W        W32224   3.337  14.777  12.981 -0.1352  0.4365 -0.2504
13371W        W32225  10.295  16.896  10.601  0.0908 -0.0467 -0.1257
13372W        W32226   9.679   1.440  10.404 -0.1970 -0.0058  0.0827
13373W        W32227  15.147  10.061   1.956 -0.0038  0.0742 -0.0760
13374W        W32228  13.719  16.311  11.315 -0.1025 -0.0138  0.2139
13375W        W32229   0.688   9.311  13.347  0.1743  0.1706 -0.0625
13376W        W32230  17.000  12.277  11.705  0.1208  0.1191  0.1947
13377W        W32231  10.858  17.029   0.952 -0.2419 -0.0967 -0.1234
13378W        W32232  15.396   8.665  14.254  0.2979  0.0340  0.0309
13379W        W32233  17.952   7.753  13.774 -0.1338  0.1546 -0.2386
13380W        W32234   4.390  18.769  11.587 -0.1960 -0.1713  0.1761
13381W        W32235   4.699   9.828   0.869  0.0870  0.0380 -0.3706
13382W        W32236  10.039  12.382  13.720  0.2459 -0.1703 -0.1112
13383W        W32237   2.747  14.894   3.871 -0.1976  0.3907 -0.1073
13384W        W32238  15.981   1.797   3.343 -0.1880 -0.1583 -0.2558
13385W        W32239  16.055  16.618  10.598  0.2502  0.2595  0.0720
13386W        W32240   8.345  18.238   5.018  0.1635  0.3514 -0.1174
13387W        W32241   5.965  16.150   0.482 -0.5074  0.0962 -0.1700
13388W        W32242   2.049   7.927   2.931  0.3805 -0.1581 -0.2777
13389W        W32243   8.715   5.720   4.240  0.2170 -0.0494  0.0424
13390W        W32244   7.434  11.172   4.393 -0.1333  0.2819 -0.1078
13391W        W32245   8.405  16.028   3.504  0.0316 -0.0628  0.0517
13392W        W32246  14.138   7.777   3.571 -0.3487  0.2219  0.3681
13393W        W32247   4.667   9.228  13.395  0.1244 -0.3164  0.1430
13394W        W32248  12.816   8.079   3.420  0.0201  0.0055  0.2112
13395W        W32249   3.662  13.801  11.239  0.2604 -0.1171  0.1074
13396W        W32250  13.611   2.954   1.472  0.1708 -0.3365  0.0534
13397W        W32251  11.315  13.595  13.951 -0.3614  0.3270  0.1163
13398W        W32252   8.368  17.798   1.892  0.0666  0.2521 -0.1214
13399W        W32253  16.141  14.834   4.273  0.1316  0.1426  0.0805
13400W        W32254   5.385  10.782   4.268  0.1087 -0.1342  0.1752
13401W        W32255   2.344  17.054  12.543 -0.0289 -0.0593  0.3677
13402W        W32256   0.298  16.635  14.127  0.0722 -0.0779  0.2682
13403W        W32257   8.401   2.118   4.065 -0.0595 -0.0543  0.4164
13404W        W32258  17.628  14.557   0.236 -0.1064 -0.1078  0.0933
13405W        W32259   0.084  12.740   5.008  0.0877 -0.0051 -0.4465
13406W        W32260   2.262   8.981   2.202 -0.0788 -0.1530  0.1363
13407W        W32261  14.672   1.197  13.664 -0.1210  0.0877  0.2550
13408W        W32262   8.972  11.678  13.958 -0.3248  0.2480  0.0852
13409W        W32263  12.930   7.790  12.487 -0.0431 -0.1125  0.0743
13410W        W32264   1.576   1.948  10.735  0.2129 -0.1987 -0.1182
13411W        W32265   1.130   5.202  11.876  0.0174  0.0898 -0.0307
13412W        W32266   7.026   4.294   1.246 -0.3895  0.0723  0.1128
13413W        W32267   5.829   4.826  10.875  0.1159  0.0575 -0.0447
13414W        W32268   1.966  14.276   3.533 -0.1008 -0.1614 -0.2215
13415W        W32269   3.560  15.213   4.012  0.1329 -0.1316 -0.3942
13416W        W32270  12.965  15.053   3.644  0.0788 -0.1682 -0.0370
13417W        W32271   5.475  18.785   4.207 -0.1813 -0.1693  0.0563
13418W        W32272   4.617  15.992  10.621  0.1038  0.2199 -0.1415
13419W        W32273   8.293  14.847   3.395 -0.0552 -0.0539  0.0804
13420W        W32274   4.167   6.941   3.222  0.0929  0.2616  0.0269
13421W        W32275  16.907  16.220  14.619 -0.0276 -0.0943  0.0859
13422W        W32276  14.699  18.069  12.261 -0.0857 -0.2794  0.2093
13423W        W32277   4.567   4.987   2.067 -0.1785  0.1965 -0.0309
13424W        W32278  12.051   8.182   0.216 -0.6075 -0.0034  0.1932
13425W        W32279   8.170   2.319   1.857 -0.1153 -0.0701  0.0357
13426W        W32280  11.193   5.889   1.522 -0.0906 -0.3710 -0.0159
13427W        W32281   1.789   5.319   2.127  0.2207 -0.0281  0.0824
13428W        W32282  11.471  16.132   2.241  0.0867  0.1447 -0.2214
13429W        W32283   2.917  10.516  12.155 -0.0822  0.0624 -0.1055
13430W        W32284   5.633   1.491   1.109  0.0825  0.0372 -0.0623
13431W        W32285  17.755   4.950  12.647  0.2956  0.0728  0.2443
13432W        W32286  13.045   1.923   2.221 -0.3111 -0.1556 -0.1453
13433W        W32287   3.613  18.864  11.337 -0.1055  0.2364 -0.0199
13434W        W32288  16.737   7.192  12.255 -0.5432  0.3261 -0.1595
13435W        W32289   8.055   0.263  14.193  0.0971  0.3578 -0.3989
13436W        W32290  13.473   8.022   2.196  0.1330  0.0988 -0.1288
13437W        W32291  11.489  12.655   2.404 -0.1025 -0.2759  0.0019
13438W        W32292  12.939   3.784   2.329 -0.0578 -0.1440 -0.1660
13439W        W32293  11.877  13.486   0.310  0.2353  0.0775 -0.1168
13440W        W32294  10.927   3.587   4.107  0.0437 -0.0371  0.0452
13441W        W32295  10.872   6.355   3.597  0.0167  0.2680  0.0169
13442W        W32296   6.422   5.254  13.740 -0.1927  0.0082  0.1077
13443W        W32297   9.257  13.577  13.991 -0.0056  0.0272  0.2193
13444W        W32298  11.518   7.642  14.532 -0.0049  0.0229 -0.4454
13445W        W32299   0.320   3.522  13.141  0.0097 -0.0849  0.1171
13446W        W32300   3.038   0.192  14.366 -0.3531  0.1822  0.0692
13447W        W32301  13.424  13.303  11.623  0.0465  0.5560  0.1787
13448W        W32302   9.578  15.589  12.162 -0.0753 -0.1244  0.2341
13449W        W32303   9.725   5.669   1.974  0.1516 -0.0466 -0.0232
13450W        W32304  16.621  15.278  14.773  0.1220  0.2916 -0.0044
13451W        W32305  13.312  14.684  13.312 -0.1009  0.0051 -0.5620
13452W        W32306  10.621   8.223   1.693  0.1220  0.2382 -0.1720
13453W        W32307  10.340  16.068  14.316 -0.1358 -0.1045  0.1291
13454W        W32308   6.971  10.774  13.030  0.2436  0.2729 -0.1313
13455W        W32309   9.188   3.215  11.310 -0.2637  0.1684 -0.3529
13456W        W32310   4.630   5.213   1.141  0.0301  0.0249  0.3665
13457W        W32311  15.548  15.887  10.814 -0.0884 -0.1155  0.0043
13458W        W32312   5.783   3.947   0.987  0.2201  0.3019  0.1247
13459W        W32313  18.146   7.815   1.097 -0.1954 -0.1312  0.0738
13460W        W32314  12.716  18.103  11.746  0.0236  0.3709 -0.2739
13461W        W32315   3.345   3.153  11.068 -0.1117 -0.0912  0.1676
13462W        W32316  13.880   2.309   1.962 -0.2190  0.1962  0.1260
13463W        W32317   6.607  18.336   2.907  0.0842 -0.1947  0.0104
13464W        W32318   5.163   0.326  12.664 -0.0083 -0.1126 -0.0102
13465W        W32319  18.773   6.018  13.408  0.1706  0.0810 -0.0092
13466W        W32320   9.905  11.161   0.720 -0.0856  0.1306 -0.0711
13467W        W32321  14.552   9.183  10.220  0.1650 -0.0939  0.2628
13468W        W32322   4.022   0.740   9.996  0.2001 -0.0184  0.0863
13469W        W32323  12.414  12.358  12.890  0.2988  0.0276  0.1090
13470W        W32324  15.725  10.094   3.491  0.2105 -0.2069 -0.3820
13471W        W32325  18.564   5.881  14.753  0.4111 -0.2802 -0.0093
13472W        W32326  12.260   6.787   3.971  0.0867 -0.0275  0.0927
13473W        W32327   8.413  13.559   2.063  0.2242 -0.1212  0.2596
13474W        W32328   5.423   3.573   4.760 -0.0661 -0.0190  0.0252
13475W        W32329   9.447  11.806  14.197  0.0480 -0.1515  0.0018
13476W        W32330   7.328   8.076   3.518 -0.2820  0.1517  0.0329
13477W        W32331   8.920   8.099  11.837 -0.0704  0.1553 -0.0655
13478W        W32332  14.844   5.835   3.485 -0.2111  0.1965 -0.2308
13479W        W32333   4.596  15.644  13.011 -0.2002  0.0356  0.1595
13480W        W32334   5.031  16.415  12.012 -0.1812  0.0183  0.2216
13481W        W32335  17.453  11.316  11.198 -0.1133  0.4627  0.0183
13482W        W32336  10.949  11.812  13.683  0.0164  0.1700  0.1538
13483W        W32337  14.050  10.520   0.024 -0.1065  0.0701 -0.0094
13484W        W32338  10.831   2.126  11.118  0.1534  0.4666  0.0421
13485W        W32339   7.359  16.080   2.007  0.0438  0.1956  0.1379
13486W        W32340  16.241   3.473  13.386  0.0965 -0.1322 -0.1268
13487W        W32341  19.126   4.374   0.599 -0.0860  0.0352  0.0608
13488W        W32342  13.821  11.034   4.086  0.0385 -0.0307  0.1559
13489W        W32343  10.964   5.076   0.216  0.1417  0.1266  0.2818
13490W        W32344  15.621   0.234  10.153  0.1266  0.1354 -0.2544
13491W        W32345  14.297  13.546  13.534 -0.0680  0.0186  0.1313
13492W        W32346  13.122  15.547  10.574 -0.1561  0.0769  0.0838
13493W        W32347  17.932  14.883  13.731 -0.0772 -0.4679  0.0147
13494W        W32348   8.580  19.043  11.102 -0.1613  0.0258  0.0371
13495W        W32349  13.321   8.415   1.922 -0.2090 -0.1886  0.1994
13496W        W32350   4.580   8.595   2.951 -0.1156  0.0262 -0.0941
13497W        W32351  17.674   8.658  12.947 -0.2713 -0.0108 -0.2743
13498W        W32352   1.432  19.037   1.826 -0.0096  0.1469  0.1612
13499W        W32353   8.216   9.966  14.186 -0.4332  0.1318  0.0789
13500W        W32354  12.947   3.287  11.013  0.3274 -0.3276  0.0295
13501W        W32355   2.011   2.359   4.035 -0.1177  0.0143  0.1461
13502W        W32356  16.866  16.838  12.454 -0.1869  0.1021  0.1523
13503W        W32357   0.270   9.957  14.075  0.2457 -0.3110 -0.0023
13504W        W32358   2.886  16.902   3.772 -0.1023  0.2568  0.3628
13505W        W32359  13.863   9.614  14.371  0.1144 -0.1367  0.1318
13506W        W32360   3.802   9.186  13.777  0.0456  0.3468 -0.1163
13507W        W32361   6.615  14.794   9.560  0.2729  0.0486 -0.3648
13508W        W32362   3.649  16.117   3.268 -0.0338 -0.3623  0.0965
13509W        W32363  12.619  12.957   3.671 -0.1194  0.2277 -0.1595
13510W        W32364  14.867   0.909   9.750  0.1915  0.0453 -0.1171
13511W        W32365   3.560   2.225   3.421  0.2076  0.0002 -0.0764
13512W        W32366  18.442   2.033   1.832  0.1750 -0.2055  0.0278
13513W        W32367   1.334   2.732   0.166  0.1916 -0.0252 -0.2294
13514W        W32368  15.360   7.256  13.496  0.2433 -0.1977  0.1889
13515W        W32369  10.938  17.125   2.250  0.1526  0.0508  0.0539
13516W        W32370  13.182   2.824   1.079 -0.0790  0.1575  0.1145
13517W        W32371  17.278  10.237   2.169 -0.2127 -0.2361 -0.1044
13518W        W32372   9.078  12.850  10.275  0.0956  0.1953  0.0727
13519W        W32373  14.969  17.887  14.722  0.2190  0.0284 -0.3090
13520W        W32374   8.785  18.324   1.560  0.0330  0.0118 -0.0910
13521W        W32375   8.794  11.632  11.531  0.0529  0.0533  0.0383
13522W        W32376   7.984   7.008  12.783  0.0215 -0.2907  0.3142
13523W        W32377  10.602  16.281   2.725  0.0092  0.3545 -0.0871
13524W        W32378   4.427  15.325   2.525  0.2633 -0.3036  0.2675
13525W        W32379   3.670   0.790  11.219 -0.1251 -0.0871 -0.1167
13526W        W32380   1.662  15.844   3.743 -0.0967  0.1073 -0.0499
13527W        W32381  17.272  18.108   2.225  0.3338  0.0637  0.1465
13528W        W32382   0.093   7.638   0.408  0.1488 -0.1110 -0.1628
13529W        W32383   1.907   6.749   4.377 -0.1773  0.2621  0.2893
13530W        W32384   8.405   4.913   4.300  0.0794 -0.2551  0.0220
13531W        W32385   4.116   1.684   2.875 -0.1028  0.0079  0.1775
13532W        W32386   4.903  11.865   2.470  0.1778  0.0433 -0.3741
13533W        W32387   5.820  10.121   0.598 -0.0199 -0.0102  0.0214
13534W        W32388   0.118   9.139  14.468 -0.0925  0.1419 -0.1870
13535W        W32389   6.524   0.521   2.208  0.1525 -0.0695 -0.4196
13536W        W32390  16.882   6.258   0.859  0.1042 -0.0749 -0.1598
13537W        W32391   1.727   7.891   2.171  0.2016 -0.0811 -0.0124
13538W        W32392   8.965  12.926   5.302  0.3412 -0.0991 -0.1047
13539W        W32393  13.896   7.725   4.311  0.1959  0.2179 -0.1024
13540W        W32394   2.231   5.517  13.185  0.1858  0.2042 -0.0671
13541W        W32395  10.254  15.130  14.064 -0.2021  0.0959 -0.1262
13542W        W32396   0.886  17.193  14.615  0.4312  0.1657  0.0897
13543W        W32397  14.677  15.249   2.190  0.1422  0.0145  0.1805
13544W        W32398  10.769   5.156   3.423 -0.1264 -0.1026  0.0866
13545W        W32399  14.517  16.358   2.454 -0.0784  0.1757  0.1911
13546W        W32400  15.141   3.729   3.971  0.0407 -0.2924  0.0751
13547W        W32401   1.357   7.295  14.459  0.2717 -0.0188 -0.2631
13548W        W32402  16.141   4.374  12.270 -0.1316  0.0721 -0.0244
13549W        W32403   9.913  13.903   1.441  0.3392  0.1456  0.2273
13550W        W32404  10.526   0.755  14.271 -0.0316  0.0824  0.1663
13551W        W32405  18.557  14.449  13.198  0.2311  0.1767 -0.4055
13552W        W32406  15.916   3.591   4.135  0.0584  0.0697  0.4148
13553W        W32407  10.145   0.030  14.787 -0.0805  0.1989  0.0562
13554W        W32408  11.007  16.457   1.065  0.1949 -0.1179  0.1581
13555W        W32409   8.887   9.551  13.442  0.0513  0.0011 -0.0723
13556W        W32410  10.370  19.040   0.410  0.3035  0.0881 -0.1404
13557W        W32411  11.281   0.947  10.422  0.1452 -0.1276  0.1179
13558W        W32412  16.188  17.517  10.430 -0.1151  0.0941  0.1525
13559W        W32413   5.460   7.717   1.016  0.0240  0.0809  0.0152
13560W        W32414  18.597  10.268   0.131  0.2003 -0.4316 -0.2422
13561W        W32415  13.301   6.807   2.429  0.1055 -0.0379 -0.1699
13562W        W32416  12.740  15.296   4.604 -0.1463 -0.0478 -0.0061
13563W        W32417   6.385  13.739   3.871  0.2179 -0.0156  0.0401
13564W        W32418   6.089   8.881  13.414  0.0187 -0.2744  0.0509
13565W        W32419  13.618  13.756   2.258 -0.0300 -0.0576 -0.3009
13566W        W32420  16.849   4.761   2.490  0.0368 -0.2715  0.1690
13567W        W32421  11.709   1.501   9.655  0.0019  0.5248 -0.0733
13568W        W32422  13.725   1.156  12.220 -0.2446 -0.3253  0.2305
13569W        W32423   7.243  10.420   0.900 -0.0496  0.1366 -0.3175
13570W        W32424   5.143  15.079  12.533 -0.0679  0.1568 -0.0130
13571W        W32425  16.076   2.503  11.218 -0.1598 -0.0466 -0.2143
13572W        W32426   4.783  13.348   0.700 -0.4003  0.1656 -0.2627
13573W        W32427  10.094  13.079  12.914  0.0170  0.0390 -0.0118
13574W        W32428   0.922  11.654   2.750  0.0052 -0.0263 -0.1943
13575W        W32429   1.600   1.827   4.130  0.0164  0.3863 -0.2392
13576W        W32430  12.508   5.787  12.236 -0.0929 -0.2996 -0.1594
13577W        W32431   5.537   2.380   4.290  0.0536 -0.2759 -0.0806
13578W        W32432  14.312  10.808  13.253  0.0228  0.0682 -0.0396
13579W        W32433   9.864  15.586   3.162  0.0965 -0.0726  0.0969
13580W        W32434   7.257  14.417   2.478 -0.2429  0.1608 -0.0458
13581W        W32435  16.808  14.586   4.697  0.2682 -0.0797  0.0338
13582W        W32436  12.405  14.420   2.549 -0.0043  0.1546  0.1170
13583W        W32437   4.043   3.701   4.410  0.0127  0.3547 -0.1197
13584W        W32438  15.059   2.415  14.271  0.0981  0.0804 -0.1105
13585W        W32439  17.589   0.514   3.115 -0.1652 -0.0241 -0.2131
13586W        W32440  10.445   0.972  12.512  0.0079  0.4936  0.0461
13587W        W32441  14.837   6.174   4.295  0.1940  0.2400 -0.3142
13588W        W32442   8.895  18.775   1.274 -0.2464 -0.1703 -0.1747
13589W        W32443   3.287   5.125   3.804 -0.0491  0.4059  0.1714
13590W        W32444   3.575  17.744  14.033  0.1751 -0.1291  0.2721
13591W        W32445   2.464   2.082  11.248  0.3236 -0.1170  0.1357
13592W        W32446  18.659   6.147   3.809  0.1307 -0.0215  0.1618
13593W        W32447   2.945   4.670   0.540  0.1268 -0.0495 -0.1907
13594W        W32448  17.710   6.541  10.139 -0.0201  0.0770  0.0419
13595W        W32449  16.437   8.812   2.504 -0.0218  0.2532 -0.0961
13596W        W32450  10.080   0.047  12.313  0.4001  0.0792  0.2275
13597W        W32451   7.909  10.459  11.862  0.0417 -0.1337  0.0780
13598W        W32452   4.921   3.555   0.568 -0.2062 -0.1039 -0.1999
13599W        W32453  11.950   4.923   3.939  0.3003  0.0876  0.0391
13600W        W32454  18.524  11.401  14.029  0.1237  0.2253  0.0693
13601W        W32455   9.861   3.469   0.018  0.1141  0.2257 -0.0092
13602W        W32456   1.392   6.544   1.190  0.2157  0.5627 -0.1917
13603W        W32457   6.736  17.047   3.303  0.1113 -0.4567  0.1160
13604W        W32458  17.216   5.848   3.798  0.1721 -0.2117 -0.3664
13605W        W32459   7.026  14.027  13.852 -0.2755 -0.2139  0.0821
13606W        W32460  16.218  13.744   3.091  0.1775 -0.0041  0.3292
13607W        W32461  11.020  10.171   3.977  0.0658 -0.2572  0.1574
13608W        W32462   3.651  15.294   1.305 -0.2173  0.2526 -0.2631
13609W        W32463   1.469  11.068  13.037 -0.1433  0.1028 -0.3158
13610W        W32464  12.657   2.638   1.889  0.2206 -0.1439  0.0813
13611W        W32465  14.857  18.305   0.865  0.3442  0.1768 -0.0359
13612W        W32466   5.089   9.543   0.626  0.2540  0.2472 -0.0375
13613W        W32467   2.835  15.914   4.120  0.0279 -0.0612  0.0994
13614W        W32468  15.897   9.051   4.213  0.0999 -0.0616  0.3136
13615W        W32469  18.015   9.288   5.046  0.2925  0.1035 -0.0848
13616W        W32470   1.851  15.219   1.639  0.3007 -0.2769  0.0551
13617W        W32471  13.997   5.628  12.849 -0.0465 -0.0484  0.0580
13618W        W32472   0.382   5.488  14.697 -0.2243  0.1181 -0.0057
13619W        W32473  14.061  12.017  13.931 -0.1562 -0.0573  0.0674
13620W        W32474   3.136   7.542   4.104  0.2696 -0.0144  0.2653
13621W        W32475   7.349  15.241  14.753  0.1830  0.2044 -0.3771
13622W        W32476   2.296   7.490  12.557 -0.0825 -0.2141  0.1677
13623W        W32477  12.581   3.772  12.324 -0.1372 -0.0955 -0.0114
13624W        W32478   4.517   5.692  12.790 -0.2740  0.2450  0.1434
13625W        W32479   9.859  10.912  10.551 -0.0081  0.1634 -0.0726
13626W        W32480  16.444  11.430  12.072  0.1364 -0.3069 -0.0625
13627W        W32481  12.640  15.931  12.649 -0.1704 -0.0919 -0.4646
13628W        W32482  13.916  19.136   3.459  0.2387  0.1687 -0.2227
13629W        W32483   3.099   1.366  12.155  0.3516 -0.4176  0.0761
13630W        W32484   6.097  12.322   3.323  0.0812  0.2292  0.0230
13631W        W32485  11.501  14.577   1.830 -0.0074  0.2469 -0.2029
13632W        W32486  12.829  18.999   1.613 -0.0074  0.2414  0.1540
13633W        W32487  15.090  15.363   1.877 -0.0465  0.1082  0.1011
13634W        W32488   9.643  15.477   4.007  0.1775 -0.0131 -0.1572
13635W        W32489   3.744  13.797   1.782 -0.0636 -0.0369  0.0517
13636W        W32490  15.031   5.442   1.837  0.1653 -0.2708  0.0931
13637W        W32491  10.917   7.953   3.736  0.0917  0.2199  0.1199
13638W        W32492  12.915   0.537  10.789  0.0927  0.0610  0.1134
13639W        W32493   7.095  10.334  10.313 -0.0238  0.1061  0.1074
13640W        W32494   6.067   2.063  12.805  0.0405 -0.1141 -0.2290
13641W        W32495  15.729  11.883   2.305  0.1281  0.1210  0.0101
13642W        W32496   0.922  12.820   0.060  0.0185  0.1119 -0.1785
13643W        W32497   8.521  17.533  11.123 -0.2620  0.2641  0.1605
13644W        W32498  18.021   8.773   0.536  0.1422  0.1364 -0.2094
13645W        W32499  16.129   8.776  10.931 -0.1025  0.1440  0.1251
13646W        W32500   5.942   0.526  10.951  0.0190 -0.1194  0.1133
13647W        W32501  13.185  13.254   0.736 -0.0530 -0.0822  0.0104
13648W        W32502   4.086  14.641  13.105 -0.0637  0.0630  0.1124
13649W        W32503  12.427  18.105   3.648  0.1221 -0.2716  0.1898
13650W        W32504   5.186  17.556  10.628  0.0624  0.3995 -0.2484
13651W        W32505  12.638   5.041   0.568  0.2441 -0.1477 -0.0481
13652W        W32506  13.094   1.927  13.186  0.1949 -0.0256 -0.2469
13653W        W32507   9.421   9.803  11.151 -0.1798  0.2032  0.0585
13654W        W32508  14.728   0.617  14.488  0.1659 -0.0496  0.0044
13655W        W32509  16.580   1.842  12.046  0.1127  0.5318  0.0530
13656W        W32510  14.853  11.737  12.695  0.1579 -0.2752 -0.0642
13657W        W32511  17.515   4.763  12.214 -0.1233  0.1266 -0.0033
13658W        W32512   5.561   5.959   2.228  0.1608 -0.0764 -0.0141
13659W        W32513   7.349   4.362  11.315  0.1177  0.0685  0.3459
13660W        W32514  17.253   1.058   4.430  0.2312  0.0866  0.2067
13661W        W32515   9.461   0.512   0.622 -0.2259 -0.0681 -0.0017
13662W        W32516  12.732  14.972   1.900  0.0597 -0.1441  0.1423
13663W        W32517   8.931   5.137   2.989 -0.3795 -0.1062  0.2751
13664W        W32518   2.879   5.841   0.811 -0.3385 -0.0699 -0.1616
13665W        W32519   6.067   8.251   3.965 -0.2757 -0.0617  0.1061
13666W        W32520   6.272  13.626  13.922 -0.0537  0.2625  0.2346
13667W        W32521   4.405  15.154   3.765  0.0682  0.1366 -0.2060
13668W        W32522   6.610  16.511  13.235  0.0968 -0.1059  0.1327
13669W        W32523  15.799   5.301  14.422  0.1185 -0.0887 -0.1952
13670W        W32524  11.349   9.063   0.881 -0.1231 -0.0211  0.0288
13671W        W32525   0.154   0.036  10.936 -0.1109  0.2084  0.0561
13672W        W32526  16.417  10.114   2.191 -0.0141  0.0036 -0.3128
13673W        W32527  15.806   3.796  11.613 -0.0148 -0.0994  0.0891
13674W        W32528  15.298  18.050  12.046 -0.1343 -0.0436 -0.0671
13675W        W32529  15.513  10.972  11.473  0.0679  0.1385  0.0460
13676W        W32530  16.837   8.625  13.102 -0.4913  0.1005 -0.0462
13677W        W32531  13.789   5.676   3.819  0.1730  0.5781  0.1268
13678W        W32532   3.948   4.961   2.905  0.1232  0.2492 -0.0626
13679W        W32533   1.182  18.571   0.847 -0.0856  0.1042  0.1469
13680W        W32534   3.521   8.493   2.604  0.2392 -0.1748 -0.2445
13681W        W32535  14.688  13.057   0.001  0.0366  0.2437  0.3285
13682W        W32536  11.179  14.452   1.442  0.1504 -0.0727 -0.1072
13683W        W32537  10.815  15.578  13.294 -0.3916 -0.0887  0.3323
13684W        W32538  13.425   3.555  10.630  0.1504 -0.2854  0.0460
13685W        W32539  13.222   4.930   5.402 -0.3459 -0.0489 -0.0087
13686W        W32540  11.420   8.415   4.687 -0.2671 -0.1182  0.3403
13687W        W32541  16.144   2.348   0.580 -0.0612  0.0964 -0.1629
13688W        W32542  12.114   9.094  10.778 -0.3415  0.1260 -0.1015
13689W        W32543  12.120   3.768   0.173  0.2647  0.1786  0.0361
13690W        W32544  12.570  15.927  13.398 -0.0263 -0.0226  0.0933
13691W        W32545  19.089   1.324  13.132 -0.1130 -0.0423 -0.3192
13692W        W32546   9.664   9.927   4.050  0.0342  0.0396  0.1086
13693W        W32547   5.889  18.007  13.113 -0.2256 -0.0977 -0.1249
13694W        W32548   3.393  16.747  11.686  0.1097 -0.1551 -0.0078
13695W        W32549  11.386  16.459   3.083  0.3941 -0.1532  0.0876
13696W        W32550   3.268   0.093  10.645  0.0348  0.0196 -0.0413
13697W        W32551  13.617   5.500   3.106 -0.3167 -0.2459 -0.1958
13698W        W32552   6.826  11.706   2.611 -0.2174 -0.3108 -0.1172
13699W        W32553  17.921  13.010   2.804  0.0182 -0.3304  0.2835
13700W        W32554   8.494   2.589  12.551 -0.1978  0.1354 -0.0092
13701W        W32555   4.206   6.223  11.518 -0.0402 -0.0992  0.0765
13702W        W32556   8.985  17.710   1.981 -0.2837  0.0753  0.2662
13703W        W32557   1.145  11.664  10.785 -0.1501 -0.3504 -0.0742
13704W        W32558   4.496   5.568   0.738 -0.0512  0.1831 -0.3704
13705W        W32559   8.484  15.232   0.044 -0.0504 -0.0081 -0.1650
13706W        W32560   4.082  16.971   3.335 -0.1520 -0.1320 -0.0488
13707W        W32561   6.310  18.507   1.249  0.4351 -0.1377 -0.1193
13708W        W32562  11.086   5.900  12.647  0.1149  0.0365 -0.3013
13709W        W32563   7.570   0.520   0.375 -0.1442 -0.1042  0.4185
13710W        W32564   1.939  18.978  10.245 -0.0701  0.0492 -0.1551
13711W        W32565   5.418   6.714  11.709 -0.0302  0.3545 -0.0361
13712W        W32566   6.133   3.360  13.990  0.0563  0.2874 -0.2030
13713W        W32567  17.976   2.722   0.464 -0.2922  0.0448  0.1019
13714W        W32568  11.258   8.925  10.194 -0.0357  0.2314 -0.1117
13715W        W32569  13.762   7.397   1.659  0.1787  0.2542  0.2000
13716W        W32570   1.039  10.836  12.954 -0.2063  0.1753 -0.2282
13717W        W32571   6.476   2.156   0.953  0.2426 -0.2267  0.0932
13718W        W32572  16.695   3.022   3.481 -0.1375  0.1001  0.2151
13719W        W32573  17.064  11.137   0.959 -0.0753  0.2332 -0.1818
13720W        W32574  13.378  16.318  12.180  0.0511 -0.0484 -0.0949
13721W        W32575  15.781  18.011   0.538 -0.0500  0.1407  0.2068
13722W        W32576  16.305  17.043  10.305 -0.1250 -0.0722 -0.5091
13723W        W32577   8.287   5.202   3.270  0.1206 -0.0779  0.3132
13724W        W32578   2.326   4.449   3.065 -0.1817  0.0102 -0.1920
13725W        W32579  11.144   9.791   0.639  0.2925 -0.1739  0.0032
13726W        W32580   1.451   5.140   1.795 -0.2135 -0.2297  0.2269
13727W        W32581   0.598  12.248   0.792  0.1335 -0.1352  0.4171
13728W        W32582   5.103  11.269   0.547 -0.0290  0.0278  0.0961
13729W        W32583   6.552  13.976   4.258  0.3277  0.1242  0.1496
13730W        W32584   9.252  17.928   4.653 -0.0215 -0.0444  0.1430
13731W        W32585   9.942   4.038  14.161  0.4444 -0.1273  0.1251
13732W        W32586   6.050   2.385  11.230 -0.2021 -0.1192 -0.0731
13733W        W32587   7.121  15.241   2.662  0.0737 -0.0338 -0.0391
13734W        W32588  11.942  18.501  11.391 -0.3161  0.3333  0.1965
13735W        W32589   1.672   5.560  13.112 -0.2317  0.1124 -0.1965
13736W        W32590   2.268  10.891  13.074  0.0373 -0.5358 -0.2422
13737W        W32591  13.411  12.294  11.933  0.1925  0.2567 -0.1671
13738W        W32592   1.645   5.543  10.655  0.3547 -0.0757 -0.0327
13739W        W32593  12.860   5.986  14.190 -0.1742 -0.3061  0.4198
13740W        W32594   6.888   9.629   4.225 -0.1883  0.2102  0.1220
13741W        W32595   4.819   2.259   1.203  0.3012  0.0566 -0.0802
13742W        W32596  10.336  15.045   1.368 -0.4961 -0.0583 -0.1180
13743W        W32597  17.950  11.263  13.953 -0.0632 -0.1552 -0.2716
13744W        W32598   5.568   2.952  14.322 -0.2178  0.1798  0.1419
13745W        W32599   8.212  18.615   4.063 -0.0734  0.0141  0.1975
13746W        W32600   3.810  15.787   2.997 -0.1152 -0.0809  0.3101
13747W        W32601  16.503  11.950  13.619  0.0573 -0.0892  0.2007
13748W        W32602  17.031   8.670   1.563 -0.0324 -0.3990 -0.2472
13749W        W32603  14.034  18.024  14.490  0.1331  0.0842 -0.0793
13750W        W32604  18.872  10.460   1.133  0.2358  0.1166  0.1543
13751W        W32605   9.740   0.897  12.982 -0.1075 -0.1557  0.0431
13752W        W32606  19.043  17.291   1.364  0.0169 -0.0301 -0.0104
13753W        W32607   7.585  14.000   0.253  0.0355 -0.2983  0.0406
13754W        W32608  15.632  10.633   3.558 -0.0762 -0.0435  0.1875
13755W        W32609   9.859  18.270   1.695  0.1889  0.0178  0.1623
13756W        W32610  10.851   7.777  12.714 -0.3250 -0.0154  0.0201
13757W        W32611   3.102   4.162   3.112 -0.2374  0.0165 -0.1097
13758W        W32612  13.737   0.038   2.973 -0.3047 -0.2348 -0.1261
13759W        W32613   2.554  11.552   2.454  0.2947 -0.5588  0.2215
13760W        W32614   1.772   8.331   1.542 -0.0534  0.0101  0.0787
13761W        W32615  13.662  12.867   0.895 -0.1005 -0.2746 -0.1184
13762W        W32616  13.885   8.831   4.244 -0.0113  0.0567 -0.0641
13763W        W32617  13.225  16.788  12.473  0.0631  0.0749  0.0729
13764W        W32618  12.995  18.530   4.098  0.0140 -0.0450 -0.0527
13765W        W32619   6.981   0.778   3.063  0.0908 -0.0742 -0.0090
13766W        W32620   8.913  10.791  10.560 -0.1945 -0.0345  0.2548
13767W        W32621   3.722   9.005   1.956  0.4475 -0.0772  0.1809
13768W        W32622   8.852  10.016   3.926 -0.2026 -0.2234 -0.2355
13769W        W32623  17.999  12.016   1.966  0.2925  0.2869  0.0971
13770W        W32624   9.457  12.417  10.106  0.3462  0.1149  0.1533
13771W        W32625   5.395  12.991   3.312  0.1024 -0.1009 -0.1501
13772W        W32626   6.381   9.122  11.794 -0.0040  0.1521  0.1384
13773W        W32627  18.665   7.802  11.169  0.1228  0.0973  0.0762
13774W        W32628  10.861  10.758  11.096 -0.1477 -0.0925  0.0937
13775W        W32629  17.770  12.654   0.744  0.2910 -0.1614 -0.1717
13776W        W32630  15.640  18.454  12.116 -0.2712 -0.1480  0.1017
13777W        W32631  14.200  11.254  12.966 -0.1016 -0.1859  0.2529
13778W        W32632   9.023  15.470   2.464 -0.3134 -0.0958 -0.1232
13779W        W32633   9.957   5.273   0.157  0.0254  0.0652  0.2822
13780W        W32634  14.832   1.204   3.733 -0.0541 -0.0881  0.0277
13781W        W32635  14.618  18.962   1.512 -0.2415  0.3918 -0.4055
13782W        W32636   1.201  11.886  12.381  0.1474 -0.0521  0.3938
13783W        W32637   9.423   7.914  14.635 -0.3309  0.1383  0.0302
13784W        W32638   4.412   4.568  13.286 -0.2533  0.1892 -0.1575
13785W        W32639  12.637  19.033  10.748  0.0297  0.2336  0.0469
13786W        W32640  15.172  17.531  12.156 -0.0287  0.0622 -0.1350
13787W        W32641   4.356  18.741  12.666  0.0698 -0.0014  0.4281
13788W        W32642   2.728  13.745   3.074 -0.1573 -0.2474 -0.1385
13789W        W32643  17.513   3.194  11.392 -0.0699  0.0978 -0.2282
13790W        W32644  18.637  16.898   3.136 -0.1461  0.0445  0.0699
13791W        W32645  17.529   4.325   1.176  0.1689  0.0028 -0.0472
13792W        W32646   6.146   4.031   4.428 -0.0317 -0.2186 -0.0515
13793W        W32647  14.047   6.157   3.628  0.2921 -0.0661  0.2040
13794W        W32648  13.532   1.678   0.664 -0.1908 -0.2356 -0.0773
13795W        W32649   7.766  16.331  14.589 -0.1248  0.0251 -0.2003
13796W        W32650   9.547  17.489   1.243 -0.2813 -0.0958 -0.1717
13797W        W32651   0.965  16.156  11.332  0.0766 -0.2141  0.3008
13798W        W32652  12.105  17.684   2.604 -0.0253 -0.2210 -0.1583
13799W        W32653  14.646   2.408  14.466 -0.1446  0.4996 -0.1972
13800W        W32654   9.513   8.592   4.452  0.0849 -0.3473 -0.2163
13801W        W32655   8.161  18.486   2.153 -0.1964  0.0991  0.1076
13802W        W32656   9.869   8.237   3.454 -0.0491  0.0426 -0.2301
13803W        W32657   1.040   7.665  11.624 -0.0191  0.0133 -0.0944
13804W        W32658   6.971  12.595  13.058 -0.0887  0.3200  0.1741
13805W        W32659   3.361   9.458  13.915 -0.1086 -0.1688  0.2808
13806W        W32660   8.552  16.583   0.904 -0.2284  0.3182 -0.1049
13807W        W32661   8.099   1.783  13.446 -0.4092  0.0142  0.0269
13808W        W32662  15.290  17.065  12.457 -0.1185  0.2292  0.1498
13809W        W32663  11.714   0.304   3.680 -0.0201 -0.0786  0.0533
13810W        W32664   3.871  10.571  13.586 -0.2973  0.1314  0.0192
13811W        W32665   7.870   9.903   1.227 -0.0825 -0.4476  0.0678
13812W        W32666   1.594   9.709   0.868  0.0957 -0.2886 -0.0288
13813W        W32667  15.288  10.187   4.304 -0.3223 -0.0029 -0.0211
13814W        W32668   4.883   3.082   0.783 -0.1301  0.2647 -0.0516
13815W        W32669  15.112   7.691  14.774 -0.1678  0.1052  0.1107
13816W        W32670   3.129  11.456  10.876 -0.5040  0.0127  0.3003
13817W        W32671   2.642  13.384   2.645 -0.1798  0.2290  0.1975
13818W        W32672  10.542  15.493   1.245  0.0558  0.0501 -0.0571
13819W        W32673  13.824   9.871  12.163 -0.1260 -0.1760 -0.1478
13820W        W32674  13.296  14.164   1.209  0.2271  0.0292  0.0112
13821W        W32675  14.738   4.801   0.452  0.0158 -0.2190 -0.1094
13822W        W32676   8.405   9.497  11.079 -0.3065  0.2822  0.0072
13823W        W32677  12.117  14.813  10.467 -0.1854 -0.1176  0.0080
13824W        W32678  18.609  13.109  13.282  0.2255 -0.1555 -0.0924
13825W        W32679  12.132  14.110   4.210  0.0893  0.1083 -0.0777
13826W        W32680  12.767   3.062  14.420  0.0504 -0.0202 -0.2267
13827W        W32681  17.333   5.084   0.263  0.2239  0.1428  0.2419
13828W        W32682   2.640   6.376   4.938  0.5236  0.1422  0.0407
13829W        W32683  16.556   7.716  11.062  0.2683 -0.0608  0.0446
13830W        W32684   4.952   4.520   4.188 -0.2653 -0.2362 -0.0216
13831W        W32685   2.981   7.436   1.267 -0.0813  0.0789 -0.1181
13832W        W32686  10.196  11.551  13.826 -0.2689 -0.1368 -0.2853
13833W        W32687  14.504  16.534  11.289 -0.1055  0.1191 -0.2296
13834W        W32688   7.391  10.201   2.230  0.2182  0.0604  0.2554
13835W        W32689  15.731  13.247  11.117 -0.0447  0.0761 -0.0003
13836W        W32690  18.125   9.421   2.076  0.2459 -0.0724 -0.1214
13837W        W32691   3.734   2.351  13.667 -0.2693  0.2962  0.1766
13838W        W32692   0.397   7.631   0.787 -0.3073  0.1832 -0.2531
13839W        W32693  14.053   6.756  11.024  0.0681  0.0217 -0.0112
13840W        W32694   6.439  12.261  14.401 -0.1871 -0.0285 -0.0279
13841W        W32695   9.233   4.936  11.082  0.0705  0.0449  0.1396
13842W        W32696   8.699  13.084   3.942  0.1939  0.1756  0.2263
13843W        W32697   1.700  17.804   1.142 -0.0304  0.1902 -0.1418
13844W        W32698   2.666  14.675  11.369 -0.0035  0.1586  0.0646
13845W        W32699   8.827   0.557   4.200  0.1297 -0.1001 -0.0636
13846W        W32700  18.649  11.471   0.969 -0.0379  0.1042 -0.0507
13847W        W32701  10.022  18.730  12.062 -0.2600 -0.0834  0.3618
13848W        W32702  16.673   5.331   1.679 -0.0020 -0.0052  0.0908
13849W        W32703  14.223   4.454  12.499 -0.0046 -0.0129 -0.3260
13850W        W32704   1.566   4.825  13.724 -0.2133 -0.1884 -0.2878
13851W        W32705   1.933  15.007   2.924 -0.1689 -0.2241  0.2792
13852W        W32706  18.077  10.907  13.463 -0.0363 -0.3088  0.2222
13853W        W32707  16.987  13.931   0.657  0.1253 -0.0034 -0.0821
13854W        W32708   5.731  12.101  12.888  0.2408  0.2911  0.0831
13855W        W32709  18.049   8.245   0.836 -0.2054 -0.2027 -0.2229
13856W        W32710  14.460   9.129   0.313  0.1917  0.1290 -0.0450
13857W        W32711  12.964  12.336  13.045  0.1416  0.0881 -0.2845
13858W        W32712   0.773  15.315  14.434 -0.2544 -0.2261 -0.2243
13859W        W32713  13.675  18.242  14.149 -0.3565 -0.0005  0.0248
13860W        W32714   5.048  15.484   0.662 -0.0815  0.1327 -0.0879
13861W        W32715  17.939   5.733   4.179  0.1716  0.1286 -0.0405
13862W        W32716  17.766  17.966  11.967 -0.0519 -0.0807 -0.1416
13863W        W32717  13.919   7.219   4.269 -0.5907  0.1850  0.1654
13864W        W32718  10.021   5.398  13.120 -0.1720 -0.0303 -0.1678
13865W        W32719   5.514  10.559  12.370  0.2954 -0.1942  0.1105
13866W        W32720   1.113  17.662   0.223 -0.0040 -0.0222  0.2063
13867W        W32721   8.125  13.235  13.180  0.0452 -0.1118  0.2906
13868W        W32722  16.105  11.587  14.371  0.0702  0.2030 -0.3429
13869W        W32723   7.431   8.871   1.397  0.1413  0.0322  0.1027
13870W        W32724  18.940   5.671  12.557  0.1036 -0.0202 -0.1515
13871W        W32725  11.943  12.912   2.307 -0.0798 -0.0705  0.2257
13872W        W32726   8.354  13.658  14.401  0.0636  0.0449 -0.1371
13873W        W32727  18.053   4.646   3.830  0.1174  0.0262  0.0368
13874W        W32728   0.317  10.205  10.323 -0.1160 -0.1825  0.0163
13875W        W32729   8.704  15.928   3.124  0.1656  0.2428 -0.1686
13876W        W32730   9.332   0.545  12.982 -0.0336  0.2717 -0.2743
13877W        W32731  12.517   2.170  13.545  0.3784  0.0779  0.1246
13878W        W32732  13.826  10.906   3.591 -0.0396  0.0601 -0.0799
13879W        W32733  13.605  11.045   1.015 -0.1988  0.1685  0.1598
13880W        W32734   7.541  17.714   5.201  0.0730 -0.0016 -0.0089
13881W        W32735  18.587  15.553  13.581  0.1164  0.2212 -0.2875
13882W        W32736  13.076  12.191  14.285 -0.1487 -0.1914  0.1178
13883W        W32737   4.394  16.885  12.442  0.2655 -0.2497  0.1647
13884W        W32738   1.075   4.054  14.016  0.3777  0.2420 -0.0606
13885W        W32739   4.660   4.779  12.902 -0.4793  0.0890  0.2170
13886W        W32740  17.323  13.109   0.552  0.1584  0.1792  0.0764
13887W        W32741  10.077  11.979  13.427  0.3790 -0.4406 -0.0608
13888W        W32742  11.705  14.851   9.333 -0.0052 -0.1042 -0.0758
13889W        W32743   9.477  10.805   0.477  0.4491 -0.0704  0.0801
13890W        W32744  16.746   7.396  10.725 -0.3019 -0.1830 -0.0533
13891W        W32745  12.045   4.907  12.006  0.0785  0.1692 -0.2610
13892W        W32746  15.906  16.650   3.351 -0.1887 -0.0751  0.0123
13893W        W32747   9.907   1.698   2.049  0.2518 -0.1355 -0.3946
13894W        W32748   6.479   5.884  10.444 -0.3330  0.1567 -0.2923
13895W        W32749   1.765  18.748  13.090  0.0644 -0.2297 -0.0405
13896W        W32750  12.417  18.910  14.071 -0.0208  0.2966  0.2170
13897W        W32751  18.710  17.836  12.994  0.1662 -0.0429  0.2837
13898W        W32752   1.711  10.171   2.688 -0.0417 -0.0001  0.1694
13899W        W32753   0.273   4.795   5.609 -0.0241 -0.1671  0.4936
13900W        W32754   3.158  16.226  14.080 -0.2095 -0.2485 -0.3900
13901W        W32755  11.306   8.178  13.574  0.0631 -0.2664  0.0891
13902W        W32756   4.589  18.733   3.176  0.1481  0.0275  0.0113
13903W        W32757  17.855   5.890   3.113  0.2242 -0.2027 -0.1293
13904W        W32758   2.157  11.092   3.897  0.1310 -0.1522  0.1218
13905W        W32759  12.074  14.031   3.711  0.0603 -0.3001  0.1687
13906W        W32760   8.298  11.039  14.242 -0.1504 -0.1411  0.3585
13907W        W32761   0.533  18.560   1.174  0.2116  0.0155 -0.0343
13908W        W32762   7.084  17.147   2.988 -0.3335  0.0007  0.3716
13909W        W32763   5.603   0.424   3.034  0.2056 -0.2894 -0.2266
13910W        W32764   7.664  18.027   2.514  0.1345 -0.0840 -0.1549
13911W        W32765  16.501   4.491  14.705  0.0091 -0.2242  0.1889
13912W        W32766  13.784   2.691   0.541 -0.0043  0.0430 -0.0268
13913W        W32767   5.575   3.875  12.581  0.0518 -0.1393 -0.4917
13914W        W32768  10.315  16.684   0.093  0.0475 -0.5614 -0.2700
13915W        W32769  18.796   1.225   4.237  0.0749  0.0086  0.1538
13916W        W32770  11.691  19.126  13.733 -0.1242 -0.0609  0.0465
13917W        W32771  11.893  15.980   3.860 -0.1993 -0.1653 -0.0736
13918W        W32772   4.587  13.667   2.149  0.4410 -0.0726  0.2924
13919W        W32773  12.753   2.197  13.981 -0.0595 -0.2554 -0.1556
13920W        W32774  14.532  15.371  13.167  0.1159  0.0045  0.1615
13921W        W32775  16.692  12.583   3.455 -0.3208 -0.2401  0.4083
13922W        W32776   3.363  13.863   2.125 -0.0830  0.3348 -0.1101
13923W        W32777   6.406  18.091   1.582 -0.1385  0.3997 -0.0442
13924W        W32778  13.778  11.497   0.893  0.1279  0.1185 -0.1444
13925W        W32779   8.849  12.822   0.697  0.0052 -0.0344  0.0085
13926W        W32780  17.490  17.186   2.382 -0.4676  0.4337 -0.1081
13927W        W32781   0.432   8.156   4.702  0.0807 -0.1881 -0.1675
13928W        W32782   8.715  11.163  13.879 -0.4800  0.1910 -0.0520
13929W        W32783  17.442  18.836  10.614  0.4120 -0.0674  0.3689
13930W        W32784   6.391   4.702   0.672 -0.1240  0.1666 -0.1656
13931W        W32785   5.384   8.820   3.492  0.4097 -0.1526 -0.1721
13932W        W32786  14.064  10.643  14.315  0.0186  0.1809  0.2028
13933W        W32787  14.046  15.474  14.011  0.0498  0.2054 -0.1600
13934W        W32788   1.237  12.061   1.854  0.1075 -0.0589 -0.0144
13935W        W32789  14.186  14.610  11.417 -0.2557  0.2510  0.3223
13936W        W32790  10.327  17.637   0.259 -0.0825 -0.2305  0.0604
13937W        W32791  12.268   8.546  14.730 -0.3786  0.1370  0.1756
13938W        W32792  15.450  16.294   1.405  0.2075  0.1081 -0.0071
13939W        W32793   9.416   2.687   1.776  0.2259 -0.5447 -0.1405
13940W        W32794  12.760   1.479   2.145  0.1513  0.1509 -0.1701
13941W        W32795  17.028  18.294  12.240 -0.2401  0.1425  0.2831
13942W        W32796  13.157   9.795  12.458 -0.1312 -0.4560  0.3497
13943W        W32797   3.109  10.155  12.540 -0.0061  0.1677  0.3005
13944W        W32798   6.132  16.227  11.134 -0.1374 -0.1041 -0.0306
13945W        W32799  12.000  16.101   1.868  0.0069  0.0748 -0.0060
13946W        W32800   3.846   3.479  10.930  0.0926  0.2324 -0.1157
13947W        W32801   5.643   0.365   0.435  0.2165 -0.1321 -0.3577
13948W        W32802   1.917   8.409   2.101 -0.1209 -0.0883  0.4348
13949W        W32803   9.954   1.439   0.145 -0.0195 -0.0650  0.0776
13950W        W32804   5.177   0.177   3.302  0.2955 -0.2102  0.1355
13951W        W32805  14.880   0.624  11.107 -0.0114  0.0355 -0.0902
13952W        W32806  15.691  14.202  13.576  0.0230 -0.2706 -0.0287
13953W        W32807   9.430  12.920   3.788 -0.1528 -0.0129  0.1499
13954W        W32808  17.655  16.116   3.589  0.1043 -0.5516  0.0166
13955W        W32809  14.953  12.702  13.628  0.3902  0.2223  0.2126
13956W        W32810  11.819   9.944  12.624 -0.1419 -0.1378  0.1477
13957W        W32811  18.673   0.308  14.681 -0.0570  0.1993 -0.1252
13958W        W32812  17.150   5.052  11.138 -0.0007 -0.0660 -0.1320
13959W        W32813   8.609  14.682   1.741  0.1428 -0.2073 -0.3114
13960W        W32814   8.091  18.724   0.175 -0.0145  0.0647 -0.0290
13961W        W32815  11.948   2.194   4.126  0.0608 -0.2709 -0.1302
13962W        W32816  12.868   1.268  12.616  0.0316 -0.0291  0.5267
13963W        W32817  11.772  13.433   3.292 -0.0411 -0.3344 -0.2203
13964W        W32818   5.978  14.156  13.177 -0.0974 -0.1119 -0.0379
13965W        W32819   0.348  19.039  14.668 -0.0245 -0.1747 -0.2645
13966W        W32820   8.709  10.206  14.065  0.0407 -0.2883  0.2135
13967W        W32821   2.339   6.654  11.107 -0.2518  0.2391 -0.2416
13968W        W32822  17.791   1.484  12.028 -0.1954  0.2708  0.0676
13969W        W32823  11.619  11.840  14.230 -0.0557 -0.3599  0.0262
13970W        W32824  12.732   0.310   4.378 -0.0741  0.1780  0.0333
13971W        W32825   5.510   2.605   2.919  0.0961  0.1511 -0.0289
13972W        W32826  16.442   1.278   0.441 -0.0207  0.2757 -0.0848
13973W        W32827   4.881   8.938  14.105 -0.0953  0.2959 -0.0353
13974W        W32828   7.669   9.983   1.815  0.1249  0.2084  0.2212
13975W        W32829   6.955  17.123   1.547  0.1989  0.3104 -0.0221
13976W        W32830   6.012   4.780  11.358 -0.1582 -0.0215 -0.0014
13977W        W32831   4.756  16.467  11.559  0.1538 -0.1609 -0.0589
13978W        W32832   1.481  10.075  11.379  0.0082  0.0349 -0.0305
13979W        W32833   2.294  16.525   3.545  0.3036  0.2895 -0.0190
13980W        W32834   4.662   4.411   3.795  0.4063  0.2108 -0.0038
13981W        W32835  15.491  15.812   0.187  0.5654  0.1940  0.0176
13982W        W32836   8.062   9.447   3.243  0.0180  0.2405  0.2413
13983W        W32837   1.589   4.633   1.530 -0.3815  0.0549 -0.0394
13984W        W32838   3.597   5.216   4.500 -0.2662  0.0683  0.2452
13985W        W32839  10.487   8.434  11.835  0.0569  0.0119  0.0931
13986W        W32840   6.642  14.833  14.285  0.0960  0.2896  0.2420
13987W        W32841  18.630   0.125   0.850  0.1251  0.2362 -0.1948
13988W        W32842   4.917  19.010   0.446  0.2190  0.0654 -0.0979
13989W        W32843   3.364  11.449   9.915  0.0711  0.1142  0.0328
13990W        W32844  11.372   5.256   1.374  0.2599  0.2664  0.0733
13991W        W32845   0.336  16.918  11.309  0.2311  0.2492 -0.2006
13992W        W32846  19.086   1.495   1.148  0.1682 -0.1764  0.3869
13993W        W32847   7.159   4.500   5.146 -0.1157 -0.0763 -0.2805
13994W        W32848   8.186   6.543   3.946  0.4818  0.0557 -0.0403
13995W        W32849  17.490   2.799   2.458 -0.0006  0.0544 -0.0859
13996W        W32850  15.162  15.989  13.569 -0.1804  0.1534 -0.0403
13997W        W32851  15.230  15.496  10.883 -0.3890  0.1289  0.0637
13998W        W32852  10.900   4.130  11.858  0.0362 -0.0339 -0.4123
13999W        W32853   7.007  13.105  11.213  0.0455  0.1153  0.1723
14000W        W32854  13.937   4.597   2.904 -0.0710  0.1386  0.1028
14001W        W32855   6.294   5.263   0.558 -0.0915  0.0573 -0.1368
14002W        W32856  18.261  15.712  11.109 -0.1398  0.3299  0.1074
14003W        W32857   9.879  11.495  11.011  0.1484 -0.3879  0.2702
14004W        W32858  19.000  11.882   0.608  0.2456  0.2527 -0.1436
14005W        W32859   3.657  16.303  14.296 -0.1268 -0.0162 -0.4280
14006W        W32860  14.043  10.180   2.846 -0.1224 -0.0914  0.0486
14007W        W32861   6.439  13.909   9.692  0.0980  0.1280  0.4347
14008W        W32862   7.745   1.634  12.495 -0.1732  0.2738  0.0949
14009W        W32863  13.409  13.503   3.842  0.1854 -0.1562 -0.0599
14010W        W32864  15.598   4.371   3.031 -0.1505 -0.3616  0.2998
14011W        W32865   2.472  16.748  11.540  0.0399 -0.0493 -0.1791
14012W        W32866  13.097  10.984  10.440  0.0755  0.2859  0.1385
14013W        W32867   7.170  15.060   3.475 -0.0406  0.0398  0.0273
14014W        W32868   7.132  10.313   3.552 -0.3506  0.3404  0.1008
14015W        W32869   7.963   7.258  11.905 -0.4353 -0.1587 -0.0696
14016W        W32870  17.868  11.459  11.391  0.3222  0.0804 -0.0457
14017W        W32871   9.761   4.957  13.095  0.1541  0.1582 -0.2829
14018W        W32872   3.604  11.099  13.191  0.1897  0.1356 -0.2176
14019W        W32873  16.302  10.778   1.477  0.0420 -0.0360  0.2511
14020W        W32874  10.384   9.038   0.089 -0.1607 -0.1408  0.1866
14021W        W32875   1.823   5.299  14.017 -0.0308 -0.2365  0.2191
14022W        W32876   0.587  11.740   1.520 -0.3866 -0.2512  0.1156
14023W        W32877   0.029   4.563   2.941  0.0197  0.1110  0.2789
14024W        W32878  12.886  18.690   0.057  0.4358 -0.5286 -0.0886
14025W        W32879  15.163  18.739   2.854  0.0212  0.1397 -0.0072
14026W        W32880   1.710   3.584  11.186  0.0676  0.0979 -0.1359
14027W        W32881  10.608  16.872   3.360  0.2554  0.0444 -0.0694
14028W        W32882   9.930  13.271  12.488  0.3616 -0.0502 -0.2846
14029W        W32883  13.759  12.013   3.963  0.1731  0.2549 -0.1919
14030W        W32884   8.144   0.718   2.646  0.0991 -0.0691  0.0265
14031W        W32885  12.690   9.323   0.881 -0.1126  0.0924  0.0008
14032W        W32886  12.465  15.967   3.223 -0.3387 -0.1330 -0.0206
14033W        W32887   7.895  15.927   3.645 -0.0492 -0.0038 -0.1229
14034W        W32888  16.502   3.239  11.441  0.2648 -0.0401  0.0337
14035W        W32889   3.079   3.524   0.383  0.2654 -0.3372  0.1142
14036W        W32890   2.165   3.723  12.862 -0.2017 -0.1314 -0.2829
14037W        W32891  10.533   4.274   1.995  0.1387 -0.3047  0.3177
14038W        W32892   7.177  12.682   3.729 -0.0591  0.2376  0.3772
14039W        W32893   4.480  12.818  10.800 -0.1679 -0.1134 -0.0628
14040W        W32894  14.983  10.012  12.421 -0.1011 -0.0351  0.2879
14041W        W32895  13.369   1.087  12.857  0.0201 -0.2505 -0.0247
14042W        W32896   1.318  12.608   2.700  0.2758 -0.0390  0.2681
14043W        W32897   0.612   2.600  11.551 -0.2309  0.0319 -0.2668
14044W        W32898   0.305  10.227  10.825  0.1690 -0.0016  0.0123
14045W        W32899   9.464   6.051  10.027  0.1502 -0.0849 -0.2838
14046W        W32900  16.972   2.536  14.126  0.3894  0.1053 -0.1303
14047W        W32901   6.125  16.701   2.248  0.0806  0.0065  0.0169
14048W        W32902  17.882  18.304  12.809 -0.0960 -0.0042  0.1158
14049W        W32903   1.212   8.890  13.873  0.0326 -0.0963 -0.0600
14050W        W32904  10.397   5.091   3.747 -0.1015  0.1777 -0.0226
14051W        W32905  15.450  17.196  14.421 -0.0379  0.0633  0.0235
14052W        W32906  12.108  14.706   0.435  0.2098 -0.1124 -0.2465
14053W        W32907  13.668   9.136  11.802 -0.1377  0.0003 -0.2964
14054W        W32908  15.482   2.418   4.121  0.1126  0.0474  0.0088
14055W        W32909  12.576   8.889   3.062 -0.0510  0.0076  0.0826
14056W        W32910  14.925  14.989   2.693 -0.0171 -0.0182  0.1445
14057W        W32911  16.069   4.603   3.017 -0.1034 -0.3353 -0.1738
14058W        W32912  14.206  11.473   2.934  0.0487  0.0995 -0.0348
14059W        W32913  11.356  13.501   0.427 -0.4559 -0.1305  0.2639
14060W        W32914  18.395  18.702   3.543  0.1238  0.2552  0.0405
14061W        W32915   8.176  16.124  10.270 -0.0958  0.1056  0.5736
14062W        W32916  15.986  15.341   1.791  0.1391 -0.2594  0.2437
14063W        W32917   8.600   2.020   2.069 -0.0079 -0.0948 -0.1153
14064W        W32918   4.181   4.404   3.784  0.2773 -0.0299 -0.0582
14065W        W32919   6.436   9.441   2.910  0.1685 -0.0281  0.0113
14066W        W32920  18.914   8.224  14.137 -0.1988 -0.4685 -0.1178
14067W        W32921   0.418   6.844   2.131  0.0871 -0.0984  0.1171
14068W        W32922   0.588   8.923   3.473 -0.1332  0.0229  0.3407
14069W        W32923  11.065   0.509  13.061 -0.4204  0.0132  0.0271
14070W        W32924   4.961   7.974  12.753  0.2760  0.1119  0.2221
14071W        W32925  10.481   2.376   9.059  0.3835  0.1658  0.0126
14072W        W32926  13.760  14.259   2.250 -0.2063  0.4054  0.0444
14073W        W32927  12.614   7.088  12.687  0.0995  0.0807 -0.0453
14074W        W32928   9.304   9.487   2.490 -0.0142  0.1305  0.1623
14075W        W32929   9.254  11.681  11.247  0.2450 -0.1057 -0.0042
14076W        W32930   7.059  12.607   3.221 -0.1083 -0.0619  0.2357
14077W        W32931   0.109   0.117   1.392 -0.5118  0.2412  0.0422
14078W        W32932  18.214  12.193   3.146 -0.0019 -0.0472  0.2121
14079W        W32933  16.977   3.778   0.394  0.0535  0.0112  0.1942
14080W        W32934   9.520   3.809   3.488 -0.1032 -0.2199 -0.1785
14081W        W32935  15.960   7.301   1.628  0.0225  0.1952 -0.0233
14082W        W32936   8.311   9.027  13.191  0.0347  0.0614  0.1787
14083W        W32937  17.648  15.039  12.644  0.2351  0.0400 -0.3901
14084W        W32938  14.205  15.850   3.694  0.2762 -0.0629  0.0374
14085W        W32939  17.427  18.099   1.152 -0.0087 -0.0696  0.0522
14086W        W32940   5.663  14.877   4.561 -0.1367  0.3204 -0.2926
14087W        W32941  15.625   5.704  12.465 -0.0606 -0.4488 -0.2909
14088W        W32942   7.156  16.719  14.617  0.1038 -0.0256  0.1338
14089W        W32943   2.320   6.656   4.642  0.1200 -0.3741 -0.1808
14090W        W32944  13.403  17.258  10.551 -0.0950 -0.0992 -0.2621
14091W        W32945   0.062   8.134   3.680  0.3414  0.0875 -0.0823
14092W        W32946   6.036   6.094   1.194  0.1311  0.1437  0.3108
14093W        W32947  16.218  15.590   1.392  0.1962  0.1765 -0.2690
14094W        W32948  14.947  17.002  11.988 -0.0796  0.1186 -0.0589
14095W        W32949   0.433   0.745  12.450 -0.1945 -0.2395 -0.1607
14096W        W32950  17.037   6.836  12.552 -0.2394 -0.0083 -0.2172
14097W        W32951   8.476  12.074  10.261  0.0533  0.0343 -0.4397
14098W        W32952  12.426  10.225   0.897  0.1022 -0.2472 -0.0351
14099W        W32953  15.827   3.727   4.623  0.1062 -0.0923 -0.1288
14100W        W32954   1.690   5.285  10.219  0.0790  0.4208 -0.0410
14101W        W32955   2.507   4.513  14.478 -0.0461  0.1332  0.1808
14102W        W32956   3.265  18.144   3.655 -0.2636  0.0651 -0.0195
14103W        W32957   6.406  11.081   3.192 -0.0624  0.3157  0.2650
14104W        W32958   8.194  12.381   3.955  0.3815 -0.0599 -0.0322
14105W        W32959   6.439   6.229   1.900 -0.0447 -0.0848 -0.2952
14106W        W32960  12.803   2.154   0.515  0.1805 -0.3825  0.2616
14107W        W32961  10.310   5.171  14.609  0.4675 -0.0659 -0.0328
14108W        W32962   2.558   9.225  14.751  0.1353 -0.2494 -0.1908
14109W        W32963   9.982  14.050   2.160 -0.0408 -0.1437  0.0590
14110W        W32964   2.187  18.566  12.131 -0.2045 -0.0440 -0.2141
14111W        W32965   3.737  10.842   0.531  0.1139 -0.1420 -0.1459
14112W        W32966   1.171  18.851  13.790  0.0434 -0.1067  0.2235
14113W        W32967   9.739   6.358   0.452  0.2321 -0.2018 -0.0173
14114W        W32968   3.777  18.949   3.591 -0.3087  0.0002  0.3548
14115W        W32969  14.176  13.949   1.485 -0.0251  0.0010 -0.1063
14116W        W32970  17.658  17.343  10.613 -0.1209 -0.2614 -0.0349
14117W        W32971  14.617  14.434   0.173 -0.2975 -0.1093 -0.0382
14118W        W32972   5.727  15.168  13.351  0.1697  0.1932  0.2282
14119W        W32973   7.581   3.121   1.109  0.0501 -0.2057  0.3347
14120W        W32974   5.627  12.800  10.686  0.0591 -0.0243  0.2231
14121W        W32975  14.472  17.607   4.151 -0.2711  0.0685  0.1053
14122W        W32976  13.259   9.757   1.049  0.1012  0.0029 -0.4546
14123W        W32977  12.576   9.705  14.459  0.0739 -0.0940 -0.2444
14124W        W32978   0.417  18.446  10.602  0.2773  0.0766 -0.1158
14125W        W32979  16.139  18.432  12.050 -0.3252  0.0754 -0.0142
14126W        W32980  16.420  11.424  12.573  0.0089 -0.1194 -0.2473
14127W        W32981  15.599  18.526   3.625 -0.1941 -0.0569  0.0559
14128W        W32982  10.151  11.497  12.905 -0.0446 -0.0226 -0.0685
14129W        W32983   8.842   2.472   2.977 -0.1660  0.0009 -0.1396
14130W        W32984  15.274  18.890  10.563 -0.0508  0.0348 -0.1502
14131W        W32985   0.850  18.423  11.864  0.1940 -0.2106 -0.0311
14132W        W32986  18.526   3.341  11.644 -0.0868 -0.0567 -0.0587
14133W        W32987   1.310  13.072   3.788 -0.0233 -0.4490  0.0474
14134W        W32988  10.613  15.248  11.123  0.1488 -0.0564 -0.2043
14135W        W32989   7.448   4.981   1.777 -0.3001 -0.0482 -0.0398
14136W        W32990   7.917  16.481  11.510 -0.0152  0.1700 -0.0314
14137W        W32991  12.117   0.501   1.250  0.0860  0.1507 -0.0697
14138W        W32992   0.295  13.430  13.296 -0.0403  0.0160 -0.1563
14139W        W32993  15.448   7.833   1.516 -0.0354  0.4135 -0.1956
14140W        W32994  14.486  14.072   2.739  0.4451  0.0738  0.1316
14141W        W32995   7.189   1.024   3.483  0.0194 -0.2419 -0.0685
14142W        W32996  12.946   6.009  13.671  0.0148  0.0404 -0.0735
14143W        W32997  17.635   1.581  11.354 -0.0902  0.1518  0.3446
14144W        W32998  11.587   2.972  12.875 -0.3510 -0.1626  0.1508
14145W        W32999   6.128  13.082  13.017 -0.1973  0.1248  0.4552
14146W        W33000   1.432   1.546   3.717  0.0724  0.0997 -0.0851
14147W        W33001  18.392   9.614   2.969 -0.1353 -0.0622 -0.2089
14148W        W33002  11.063   0.669  13.936  0.0331 -0.0160  0.1376
14149W        W33003  16.527   1.163   1.900 -0.1842  0.2401  0.2570
14150W        W33004   9.276   4.707  13.263 -0.0573  0.2200 -0.0878
14151W        W33005   7.897   3.523  14.611  0.0209 -0.0426 -0.1971
14152W        W33006   9.903   0.290   1.286 -0.0917  0.4215  0.0338
14153W        W33007  13.758  18.923  11.850 -0.0194  0.3462 -0.4057
14154W        W33008   1.375   8.194   5.364  0.1405  0.0096  0.1453
14155W        W33009   6.495   1.511   2.459  0.2264 -0.2050  0.1867
14156W        W33010   2.777  13.187  11.920 -0.3417  0.0295  0.2296
14157W        W33011  12.614  16.152  13.883  0.0783  0.2478 -0.0304
14158W        W33012  18.620  12.497   3.204 -0.3697 -0.0049  0.0256
14159W        W33013   8.983  13.161  12.773  0.2335  0.0505 -0.1094
14160W        W33014  18.697  17.766   2.165 -0.0708  0.1530  0.1163
14161W        W33015   6.502  13.353  11.060  0.2538  0.1891 -0.2456
14162W        W33016   6.687   9.840  13.204 -0.3982  0.1660 -0.0008
14163W        W33017   0.844  13.265   3.586  0.1466  0.0706  0.3480
14164W        W33018  12.235   5.812  11.775  0.0461  0.2441  0.0014
14165W        W33019  16.428  13.649  10.971 -0.1498  0.0999 -0.2317
14166W        W33020  13.126  17.465   0.687 -0.3211 -0.1067  0.0526
14167W        W33021  17.328  11.286   1.441 -0.0171  0.2429 -0.0722
14168W        W33022  10.957   0.384   3.644  0.0840 -0.0424  0.0094
14169W        W33023  14.073   2.867   2.314  0.2817  0.0984 -0.4574
14170W        W33024   9.200  10.263   1.888  0.1248  0.2760 -0.1688
14171W        W33025   5.964  13.470   3.775  0.2669  0.0485  0.0781
14172W        W33026   9.590   5.243  13.978 -0.2317 -0.1657 -0.0320
14173W        W33027   1.521   4.608   0.533  0.0430 -0.1616  0.1517
14174W        W33028   9.184  14.848  13.615  0.1565  0.0621 -0.3175
14175W        W33029   0.849   9.222   0.260  0.3791  0.0072 -0.1311
14176W        W33030   5.471   7.800   2.049 -0.2196  0.2687  0.1354
14177W        W33031  18.311   2.959  14.607 -0.3661  0.2221  0.3637
14178W        W33032   8.006   6.647  13.869  0.0137 -0.4806 -0.1420
14179W        W33033   8.394  18.986   4.348 -0.1445  0.3541 -0.0894
14180W        W33034   9.910   6.280  12.105  0.1044  0.0570 -0.2614
14181W        W33035   1.708  12.368  13.103  0.1672 -0.3476 -0.1609
14182W        W33036  16.500   6.589   1.598 -0.4194 -0.1874  0.3642
14183W        W33037  11.322   3.753  13.865 -0.0509 -0.0707 -0.0838
14184W        W33038   9.365   2.770  12.092  0.0753 -0.3685  0.0822
14185W        W33039   4.760   3.322   2.944  0.3560 -0.0926 -0.2123
14186W        W33040  11.044   7.244   0.982  0.0068  0.1920  0.1248
14187W        W33041  11.359  12.302   1.101  0.0172  0.2344 -0.2994
14188W        W33042   1.235  10.781   0.544 -0.4506  0.4168  0.0268
14189W        W33043  18.168   0.705  11.594 -0.1721 -0.2690  0.0447
14190W        W33044   0.521   8.728  13.870 -0.3028 -0.0689  0.0443
14191W        W33045   5.325  15.681  11.703  0.2313 -0.1224 -0.3313
14192W        W33046   6.909  15.575  13.052 -0.1558  0.0576 -0.0888
14193W        W33047   7.409   9.615  11.517  0.1669  0.0648  0.0162
14194W        W33048   9.722   8.245   5.348 -0.0866 -0.0146  0.2843
14195W        W33049  16.029   6.149   0.393  0.3403  0.1262 -0.0664
14196W        W33050   0.685   1.127  13.147 -0.1226 -0.2126  0.1777
14197W        W33051  13.602  12.365   4.389  0.0018 -0.0124  0.2726
14198W        W33052   8.269  15.536   3.724 -0.0105 -0.2396  0.0165
14199W        W33053   2.449  12.593   2.268 -0.1051  0.2758  0.1169
14200W        W33054  16.680   4.470   1.447  0.2728 -0.1419  0.0017
14201W        W33055  16.070  10.854   3.695  0.0749 -0.0507 -0.2035
14202W        W33056   8.074   5.589  13.894  0.1749 -0.0613  0.0752
14203W        W33057   8.429   1.386  11.726  0.1059  0.0848 -0.0715
14204W        W33058  18.654  18.251   3.553  0.3381 -0.0579 -0.3110
14205W        W33059   9.216   7.769  12.113  0.0875 -0.1498  0.2228
14206W        W33060  13.213   8.427  11.292 -0.0997  0.0836 -0.5070
14207W        W33061   0.061  15.880  12.335  0.1230  0.3604  0.0324
14208W        W33062   8.506   2.850  10.125 -0.0711  0.2972  0.2199
14209W        W33063   9.792  13.750  14.100  0.1929 -0.5406  0.0073
14210W        W33064   6.504  11.292  11.014  0.0235  0.2084 -0.1897
14211W        W33065   9.828   8.119  13.785  0.0288 -0.0035 -0.0173
14212W        W33066  18.582   3.510   4.144 -0.0692  0.0769  0.3339
14213W        W33067   8.153   9.974   4.782 -0.0766  0.2880  0.1396
14214W        W33068   1.994   4.229   3.377  0.2835  0.2317  0.0422
14215W        W33069   0.635   8.329  12.434 -0.0632 -0.1182 -0.0917
14216W        W33070   4.250  14.655  14.281  0.0973  0.0303  0.1940
14217W        W33071   1.453   2.591  12.468  0.0169 -0.2281 -0.3072
14218W        W33072   7.227  17.726   3.231 -0.1532  0.2900 -0.2503
14219W        W33073  14.562  16.628  10.752  0.1999  0.3390 -0.5377
14220W        W33074   7.626   3.347   0.166  0.0698 -0.0220 -0.2863
14221W        W33075  14.989  17.067   2.702  0.1455  0.0416 -0.0142
14222W        W33076  15.539  15.917  10.269  0.2588 -0.0093 -0.2330
14223W        W33077   7.177  19.004   0.750  0.1367  0.0595  0.2109
14224W        W33078   7.121   7.007  12.408 -0.1077  0.1931 -0.0077
14225W        W33079  16.241  18.537   3.887 -0.2619 -0.1856  0.4461
14226W        W33080   8.523  16.132   2.315 -0.2983 -0.0459 -0.1312
14227W        W33081   5.147   5.514   3.925 -0.1072 -0.2480 -0.0965
14228W        W33082  18.555  14.913   0.140 -0.2669  0.1113 -0.1559
14229W        W33083   0.348   9.415  12.829  0.1822  0.1067  0.1862
14230W        W33084   1.975   8.400   3.107  0.0262  0.0322 -0.2012
14231W        W33085  13.694  13.651   9.536 -0.0946 -0.1541  0.1217
14232W        W33086  18.490  18.202  10.749  0.2152  0.1700 -0.0766
14233W        W33087  10.262   6.612   4.314  0.1650 -0.1379  0.1612
14234W        W33088  13.770  13.913   0.378  0.1262  0.0671 -0.0771
14235W        W33089  11.814   6.769  12.105 -0.2390 -0.0018  0.3049
14236W        W33090  11.741   7.767   1.092  0.1992  0.1160 -0.4536
14237W        W33091   0.704  14.605  11.705  0.2655 -0.0574  0.0873
14238W        W33092   5.725  18.100  13.603 -0.2297  0.0196  0.2741
14239W        W33093  12.064  15.722  13.323  0.1470  0.1503 -0.0418
14240W        W33094   1.710   3.980  14.652  0.1328  0.1908  0.1624
14241W        W33095   2.653  15.957  11.380  0.1859 -0.0698 -0.3300
14242W        W33096  14.951   3.669   1.466 -0.0368 -0.1707 -0.0140
14243W        W33097  16.639   0.955  11.694  0.2451  0.2731 -0.1297
14244W        W33098   3.892   6.275   4.228  0.2188  0.0493 -0.1426
14245W        W33099   3.203   6.361  12.662  0.3951 -0.2714  0.1133
14246W        W33100  17.585   9.883  13.814 -0.1893 -0.1508  0.0707
14247W        W33101  14.371   7.273  13.439  0.1760 -0.1463 -0.0682
14248W        W33102  17.990  10.158  12.118  0.0723 -0.1332 -0.2377
14249W        W33103   9.352   0.822  13.814 -0.0864  0.2433  0.2175
14250W        W33104  18.638   1.226   3.479  0.0901 -0.0683 -0.0803
14251W        W33105  15.818   4.198  11.243  0.1016  0.0730 -0.0587
14252W        W33106   7.168  15.395   0.800 -0.1227 -0.0157 -0.0488
14253W        W33107   1.519   0.856  11.698  0.1915  0.1042 -0.2997
14254W        W33108   9.896   6.536   4.636 -0.0662 -0.0436 -0.0520
14255W        W33109   6.156  17.732  13.524 -0.1509  0.2518  0.0037
14256W        W33110  17.820   7.716   1.519 -0.1030 -0.0409 -0.0085
14257W        W33111   0.255   2.953  11.549 -0.1548  0.1241  0.2195
14258W        W33112   9.579  10.028  12.124 -0.1740 -0.2094  0.0922
14259W        W33113  16.844   1.544   0.564 -0.4324 -0.2634 -0.0367
14260W        W33114   2.912   2.571   3.181  0.0828  0.1353  0.1328
14261W        W33115  17.800  13.214   0.661  0.2090  0.0798 -0.0238
14262W        W33116   0.782   8.856  13.428  0.0071  0.0859  0.0423
14263W        W33117  18.071  16.828  12.378  0.2593 -0.0965  0.2716
14264W        W33118  17.577  11.326   2.338 -0.3929  0.4130 -0.0161
14265W        W33119  17.583   3.992   4.218  0.0455 -0.1780  0.0525
14266W        W33120  11.290   3.337   3.801 -0.2516  0.3255  0.4590
14267W        W33121   0.792  14.605   0.219 -0.1047  0.1793  0.5027
14268W        W33122   5.039  10.866   1.385 -0.0850 -0.2887 -0.0603
14269W        W33123  15.298   6.100   4.075  0.1552  0.1329 -0.1510
14270W        W33124   2.075   9.387   0.093 -0.0337 -0.0417  0.2528
14271W        W33125  15.746   0.883   2.448  0.1883  0.0885 -0.1335
14272W        W33126  16.771  18.921   1.935  0.0931 -0.2531 -0.2186
14273W        W33127  11.322  19.011   0.274  0.0616  0.2812  0.0961
14274W        W33128   1.518   8.373   0.700  0.1514 -0.0087 -0.2983
14275W        W33129   3.703   0.962   4.211  0.0403  0.2332 -0.2573
14276W        W33130  17.698   5.438   3.185 -0.3549  0.2068 -0.1341
14277W        W33131  15.718   2.221  13.347 -0.1469  0.2024  0.1214
14278W        W33132  11.499  12.346  12.420 -0.0738 -0.2088  0.0878
14279W        W33133  16.541  16.383  14.219 -0.2192 -0.1060  0.0708
14280W        W33134  11.896   3.014   3.070  0.2402  0.0199 -0.0211
14281W        W33135   5.342  16.400   1.712 -0.2732  0.0870 -0.2572
14282W        W33136   7.424  14.875   2.518 -0.0454  0.0640 -0.1587
14283W        W33137  15.157  11.401  13.013 -0.0320 -0.2200  0.0930
14284W        W33138   2.757  10.987  12.126  0.2162 -0.2257  0.1186
14285W        W33139  12.284   6.577  11.404 -0.0257 -0.0135 -0.2237
14286W        W33140  11.191   1.928   0.570 -0.0910 -0.4927  0.0190
14287W        W33141  15.559  18.360  13.067 -0.1082 -0.1010 -0.1355
14288W        W33142   7.603  10.119  11.646 -0.3203 -0.0616  0.1172
14289W        W33143  12.775   5.373  14.188  0.1778 -0.1580 -0.1696
14290W        W33144   8.210   7.974  10.790  0.1205 -0.3670 -0.2400
14291W        W33145   9.365   4.151  11.596  0.0900 -0.3541  0.1027
14292W        W33146  17.978  16.517   1.335 -0.0092 -0.0818  0.3114
14293W        W33147   8.677   7.852  12.268 -0.0541 -0.0935 -0.1486
14294W        W33148   4.494   1.485   0.383 -0.1638 -0.1255  0.1157
14295W        W33149  11.248   9.762   3.671 -0.0682  0.0868 -0.0720
14296W        W33150   7.850  12.632   9.757 -0.0962 -0.4489  0.0604
14297W        W33151  18.544  16.801  12.642 -0.1862 -0.2280 -0.0940
14298W        W33152   2.717   5.415  13.978  0.3303 -0.0065  0.1350
14299W        W33153   8.166   6.634   1.768  0.1534 -0.1550  0.0665
14300W        W33154   2.055   2.630  14.334  0.4149  0.0345  0.0095
14301W        W33155  12.729  14.459  12.734 -0.0375  0.1177  0.2648
14302W        W33156  13.177  15.908  13.899 -0.2217  0.3522 -0.1735
14303W        W33157  18.477  17.420  14.362  0.0073  0.1583 -0.0431
14304W        W33158   1.102   1.672   1.761  0.4165 -0.3824  0.2556
14305W        W33159  12.168  11.229  13.761  0.1121 -0.0176  0.2963
14306W        W33160  13.401  14.985  12.892 -0.0158 -0.0254 -0.0789
14307W        W33161   4.670   3.620  12.893  0.1127 -0.2308  0.0165
14308W        W33162   0.883  11.992   1.117  0.0009 -0.1145  0.1190
14309W        W33163  12.109   7.379   3.321  0.0340  0.0460 -0.1424
14310W        W33164  12.351  12.319   1.683  0.0748  0.0863 -0.3498
14311W        W33165  11.568   0.519   2.236  0.0949  0.1646  0.0264
14312W        W33166  13.270  12.762   0.616  0.1659  0.0069  0.0405
14313W        W33167   2.266  15.257  11.460  0.2585  0.0222  0.0829
14314W        W33168  11.992  10.744  12.879  0.0554 -0.0488 -0.0783
14315W        W33169  14.222   6.346  14.266 -0.0884 -0.2466 -0.2281
14316W        W33170   4.247   6.597   4.443 -0.2064 -0.0032 -0.0743
14317W        W33171  13.112   2.082  12.047  0.2102 -0.0829  0.4355
14318W        W33172   2.326  12.388   2.818 -0.4977 -0.1120  0.0948
14319W        W33173   9.832   8.011  12.104  0.1678 -0.0735  0.0350
14320W        W33174   0.796   2.287   2.874 -0.1997  0.0122 -0.0552
14321W        W33175   6.196   7.600  12.304 -0.1720 -0.1238  0.4874
14322W        W33176  12.525   2.025  12.356 -0.0703  0.1416 -0.0100
14323W        W33177  14.564  10.814   2.192  0.1684  0.1598 -0.2312
14324W        W33178   3.493  15.622  11.891  0.0242 -0.2371  0.0137
14325W        W33179  16.491  13.604   0.263  0.1769  0.1001  0.0561
14326W        W33180  18.560  10.773   1.632 -0.2607  0.0591  0.2483
14327W        W33181   4.383  17.233   1.434 -0.2336 -0.4707  0.2176
14328W        W33182   0.444   3.550  14.614 -0.1445  0.0566 -0.1004
14329W        W33183   4.177   8.627  11.471  0.2186  0.2071 -0.0095
14330W        W33184  13.804  16.396  13.615 -0.1373 -0.1180 -0.2076
14331W        W33185  11.099  17.650   0.257  0.0127  0.0504 -0.5198
14332W        W33186   9.727   0.347   3.702  0.0449  0.2308  0.4264
14333W        W33187  14.132   2.997  13.274  0.0119  0.0998 -0.0168
14334W        W33188  16.930  18.545   9.371 -0.2279  0.0174  0.2587
14335W        W33189   6.983   3.108  11.057  0.1228 -0.3868  0.1626
14336W        W33190  11.630  16.594  11.930  0.0319  0.2340  0.1394
14337W        W33191   6.026  18.305   0.746  0.1357  0.2768 -0.0507
14338W        W33192  16.441   6.551  11.762  0.3167 -0.1442 -0.0097
14339W        W33193  17.400   2.264   2.396  0.0560 -0.2676  0.0963
14340W        W33194   5.308  11.803  14.037  0.3767 -0.1962 -0.2144
14341W        W33195  13.206  10.655   2.771  0.1354  0.2571 -0.0783
14342W        W33196  10.422  14.960   3.534  0.0550 -0.0373  0.0576
14343W        W33197   3.770  17.956   4.033  0.1798 -0.3340 -0.0854
14344W        W33198  14.693  10.388  13.890 -0.0040 -0.0330  0.1637
14345W        W33199   0.786   4.678  12.674 -0.0943  0.4807 -0.1726
14346W        W33200   7.178   5.734   1.016  0.5292  0.0544 -0.1607
14347W        W33201   2.656  17.721  12.386 -0.0875 -0.2665  0.3292
14348W        W33202  18.620  14.096   3.419  0.2920  0.0705  0.1156
14349W        W33203  10.337  11.455  10.717  0.2037  0.0360  0.1305
14350W        W33204  18.974   6.487   0.984 -0.2015 -0.0511 -0.1777
14351W        W33205  12.519   0.661   2.263  0.2338 -0.0100  0.0833
14352W        W33206  15.022   6.310   3.247 -0.1011  0.3301  0.1248
14353W        W33207  16.363   3.967  10.872  0.1257  0.0718  0.2549
14354W        W33208  17.328   9.283  14.167  0.1544 -0.2462  0.0611
14355W        W33209   3.420   8.991  12.110  0.5339  0.1576  0.0244
14356W        W33210  10.137   6.483   3.292  0.1610  0.0829 -0.0183
14357W        W33211   7.130   4.852   3.775  0.1294 -0.1587 -0.1592
14358W        W33212  11.935  16.500   3.760  0.0927 -0.1767  0.1053
14359W        W33213   8.266  15.935  10.744 -0.1444  0.1689 -0.0896
14360W        W33214  10.881  14.633   1.959 -0.1344 -0.0301  0.0718
14361W        W33215  13.640   8.046  11.263  0.0683  0.0567  0.0844
14362W        W33216  11.605   4.757  13.720 -0.1797  0.2648  0.0457
14363W        W33217   3.086  13.259   0.775  0.0529  0.0284 -0.3190
14364W        W33218  18.073  15.773   3.498 -0.0538 -0.0133  0.3716
14365W        W33219   2.190   9.319   3.438 -0.1665 -0.2301 -0.0720
14366W        W33220   3.567  11.993   3.806  0.0693  0.0610 -0.0493
14367W        W33221  10.255   8.882  13.600  0.0286  0.0230 -0.3925
14368W        W33222  12.123  10.148  13.412  0.0625 -0.0638 -0.1480
14369W        W33223   2.632  14.504   4.167 -0.0445 -0.1122 -0.0305
14370W        W33224  15.085   1.920  11.015  0.1649 -0.1148 -0.1442
14371W        W33225  16.144  12.972   2.712  0.0696  0.1877  0.0848
14372W        W33226  14.575  13.850   1.809  0.1513 -0.1209  0.0673
14373W        W33227  13.457  15.808   3.065 -0.1842 -0.1364 -0.3307
14374W        W33228  19.140   6.667   5.907  0.2068  0.0516 -0.0123
14375W        W33229   8.895   5.397   1.025 -0.2964 -0.2254  0.2858
14376W        W33230   9.981  13.926  12.006 -0.4190  0.0623 -0.0812
14377W        W33231   9.050  18.607   1.885 -0.2620  0.1405 -0.2288
14378W        W33232  13.285   7.804  11.482  0.0095  0.0084  0.2433
14379W        W33233  16.641  15.322   0.470 -0.0222 -0.1401  0.0479
14380W        W33234  11.148   5.584   4.141  0.2818 -0.1646  0.1650
14381W        W33235  14.492   0.863  10.783  0.1305  0.0477 -0.1348
14382W        W33236   6.665   0.731  10.941 -0.1348 -0.1224 -0.0507
14383W        W33237   1.617  10.165  13.674  0.0313  0.0000 -0.2280
14384W        W33238   3.758  10.919  10.897 -0.1388  0.1621 -0.4270
14385W        W33239  18.105   9.313   0.314  0.2693 -0.0430  0.1699
14386W        W33240  16.494  14.478   0.378  0.0146  0.4033  0.0662
14387W        W33241   8.701   4.303  14.146  0.3514 -0.0888 -0.2303
14388W        W33242   8.292   0.145   3.582 -0.2781  0.0895 -0.1134
14389W        W33243   6.307  10.157   2.627  0.1466 -0.1078  0.0840
14390W        W33244   9.253  15.304  11.792 -0.1911  0.0788 -0.0357
14391W        W33245   2.456   5.819  13.682  0.2210  0.2525 -0.1038
14392W        W33246   6.100   0.675  12.580  0.0166  0.2503  0.0412
14393W        W33247   0.156   9.614   1.507 -0.0887  0.0462 -0.1133
14394W        W33248  18.154  15.377   1.719  0.1417 -0.2131 -0.0247
14395W        W33249   9.821   6.705   3.891  0.2043  0.0643 -0.2633
14396W        W33250   8.128  15.370  13.053 -0.2295  0.2196 -0.1481
14397W        W33251   8.805   3.153   2.926 -0.0726  0.3172  0.2240
14398W        W33252  17.276  11.274   4.372  0.0086  0.1316  0.1416
14399W        W33253  16.505   6.748  14.629 -0.3101 -0.0641  0.2897
14400W        W33254  13.644   6.449   1.518  0.0132  0.0170 -0.2877
14401W        W33255   8.063   5.304   2.058 -0.3355 -0.0523 -0.1451
14402W        W33256  10.684   7.886  11.927 -0.0017 -0.0660 -0.1206
14403W        W33257  16.627   3.897   4.018 -0.3804  0.1263 -0.0044
14404W        W33258  16.663   6.247  13.908 -0.0115  0.4021  0.1849
14405W        W33259  17.469   8.932  12.440 -0.0098  0.3762  0.1898
14406W        W33260  13.982   3.067   0.783 -0.1611 -0.2354 -0.1877
14407W        W33261   0.917   7.915   4.483 -0.0438  0.0736 -0.0127
14408W        W33262   3.713   1.600   0.687 -0.1418  0.2326 -0.0089
14409W        W33263   0.285  18.848  12.577  0.2996 -0.1946  0.0156
14410W        W33264   1.686  13.041   1.093  0.0062 -0.0402  0.0134
14411W        W33265  17.364   5.279   3.847  0.0960  0.2060 -0.2065
14412W        W33266   4.419  13.488   9.388 -0.1736 -0.0398 -0.1234
14413W        W33267   3.987   3.274   4.086 -0.3344  0.4165 -0.1429
14414W        W33268  18.696  10.879  10.995  0.0344 -0.0296 -0.0179
14415W        W33269   0.822  18.711   3.813 -0.0491 -0.1245  0.2331
14416W        W33270  10.139   2.475   9.840  0.3735  0.3485 -0.0836
14417W        W33271   2.383   3.446  12.339 -0.5820 -0.0517 -0.1144
14418W        W33272  10.833   9.916   2.045  0.2996  0.0775 -0.2876
14419W        W33273  13.245   1.843  10.861 -0.0402  0.3483  0.1312
14420W        W33274   1.417  16.079  11.483  0.0332 -0.0568  0.3182
14421W        W33275   6.601   6.308  12.444 -0.0200 -0.1884 -0.0776
14422W        W33276  13.038   2.485   3.667  0.0609 -0.0085 -0.2723
14423W        W33277   5.356   5.244   1.910 -0.0217 -0.2147  0.1010
14424W        W33278   0.696   5.086  13.040 -0.1151 -0.0697  0.2002
14425W        W33279  14.349  16.642   2.052 -0.2054 -0.0983  0.0371
14426W        W33280   3.835  18.676  12.547 -0.0928 -0.1554 -0.3198
14427W        W33281  14.245   4.791  11.012  0.2446 -0.1539  0.0331
14428W        W33282   7.648   8.460   1.332 -0.0772  0.0416 -0.1507
14429W        W33283   7.995   6.351  12.229 -0.4240 -0.0802  0.1187
14430W        W33284   1.002  13.118  14.000 -0.4188  0.1239  0.0913
14431W        W33285  15.120  13.195  14.551 -0.1034 -0.0433 -0.0299
14432W        W33286  18.284  18.240   3.219  0.3318  0.2846  0.2041
14433W        W33287  14.505   9.450   1.438 -0.2005  0.1169  0.1760
14434W        W33288   3.906   2.808   1.458 -0.0615 -0.1106 -0.0010
14435W        W33289   2.912  17.154   3.312 -0.1973 -0.1153  0.2862
14436W        W33290   4.294   1.253   1.450  0.4248 -0.2765  0.1376
14437W        W33291  12.471   4.526  14.694  0.2088 -0.1380  0.2645
14438W        W33292   7.074  10.054  11.383 -0.3634 -0.0822  0.1963
14439W        W33293  18.078  10.884   2.479 -0.0444  0.0869  0.3164
14440W        W33294   6.095  10.122  10.238 -0.1459 -0.0968 -0.0070
14441W        W33295   0.398  11.881   1.054  0.1948 -0.0712 -0.1197
14442W        W33296   0.917  11.374  11.606 -0.0461 -0.1223 -0.1465
14443W        W33297   1.755   9.505  14.475 -0.0406 -0.1668 -0.4438
14444W        W33298  10.005   2.717   3.758 -0.1749  0.0319  0.0254
14445W        W33299   9.515   9.826  11.633 -0.1091  0.0230 -0.0104
14446W        W33300  12.662  18.033   1.397 -0.1717  0.0569  0.2414
14447W        W33301  19.082  11.254   2.135 -0.0690 -0.1387 -0.1640
14448W        W33302  13.656  19.132  10.427  0.0570  0.2464  0.0005
14449W        W33303  12.070  16.883   1.732 -0.1977 -0.0089  0.1120
14450W        W33304   1.890  11.057  10.867 -0.0282  0.3392  0.2348
14451W        W33305  10.158  16.008  12.396  0.0661 -0.1238  0.2238
14452W        W33306  17.134   3.193  14.622  0.0240 -0.0342 -0.2398
14453W        W33307   0.845   3.493  13.453 -0.0846  0.1029 -0.4792
14454W        W33308   8.987   6.786   4.499 -0.1042 -0.0453 -0.2447
14455W        W33309   8.845  18.398   0.500 -0.0959  0.1039  0.2111
14456W        W33310  13.140   6.605  12.612  0.0843 -0.0882  0.0162
14457W        W33311  14.947  15.086   1.291 -0.2191 -0.0004  0.2018
14458W        W33312   5.452   0.799  12.673 -0.4751  0.1746  0.0772
14459W        W33313   1.209  11.167   1.971 -0.0340 -0.0154  0.1388
14460W        W33314   5.546   2.061  12.477 -0.0781 -0.1600  0.1821
14461W        W33315  11.159  11.042   0.947 -0.0661  0.2080  0.1654
14462W        W33316   4.599  17.917   3.769 -0.1732 -0.0482  0.0412
14463W        W33317  12.699   6.911  11.158 -0.1538  0.1905  0.1717
14464W        W33318  11.009   5.738   1.005  0.1540  0.2088 -0.1380
14465W        W33319  14.786  18.566  13.415  0.0484  0.2690 -0.0327
14466W        W33320   1.203   5.944  13.093  0.3015 -0.0259 -0.2855
14467W        W33321   1.875  16.682   2.492 -0.0870 -0.0009  0.1449
14468W        W33322   9.711  15.498   1.767  0.3003 -0.1984 -0.1743
14469W        W33323   9.588  16.712   2.378 -0.0500 -0.1795 -0.0572
14470W        W33324   7.523  16.153  12.470 -0.0602  0.0543  0.2139
14471W        W33325   5.231   4.657  11.919 -0.0777  0.0403 -0.3087
14472W        W33326  15.549   5.173   1.265 -0.1282  0.0667 -0.3980
14473W        W33327   9.160   1.200   3.513 -0.4186  0.1282  0.1346
14474W        W33328  15.714  12.851   0.979  0.0163  0.0663 -0.1854
14475W        W33329  12.624  14.424   1.585  0.2965 -0.0952  0.1540
14476W        W33330   5.825   0.221  10.073 -0.0312  0.0624  0.3279
14477W        W33331   1.686  15.705  14.102 -0.1744 -0.0894  0.1263
14478W        W33332   9.198   9.677  12.044 -0.1666 -0.0315 -0.0955
14479W        W33333   1.129  18.682  14.680 -0.4434 -0.0004 -0.0060
14480W        W33334   4.202   6.641   3.638  0.1575 -0.1719  0.1234
14481W        W33335   8.173   8.212   2.233  0.2583  0.0323  0.0641
14482W        W33336  15.226  19.124  14.054 -0.2410  0.2600 -0.1962
14483W        W33337  17.906  13.513   4.067  0.2843  0.1774 -0.0384
14484W        W33338  10.353  16.845  11.598 -0.1243  0.2854 -0.0962
14485W        W33339  12.323   2.432   0.375  0.0262 -0.1841  0.1335
14486W        W33340  12.779  13.032  11.491 -0.1748  0.3071  0.0803
14487W        W33341  16.220  14.240  12.883 -0.0001 -0.1851 -0.0020
14488W        W33342  12.925   9.304   3.990 -0.1136 -0.0995 -0.1887
14489W        W33343  12.595   9.950  10.889  0.0859  0.2306  0.0290
14490W        W33344   7.987   6.642   0.838  0.0068 -0.0226  0.1658
14491W        W33345  10.709   6.894   2.273 -0.0359  0.0732  0.3871
14492W        W33346  11.682  12.275  14.622  0.0658 -0.0893  0.0367
14493W        W33347  12.415  11.925   1.280 -0.1320  0.0937  0.0407
14494W        W33348   1.180   5.706   3.636  0.2662  0.1000  0.6629
14495W        W33349  13.828  13.362  12.305 -0.2339  0.0733  0.1763
14496W        W33350   4.236  10.076  10.963 -0.0140  0.0212  0.0088
14497W        W33351  10.467  19.105   5.060 -0.2615 -0.0611 -0.0734
14498W        W33352  10.609  14.837   3.092  0.0150 -0.2014 -0.1666
14499W        W33353  15.645   3.001  12.873  0.0560  0.0427  0.0959
14500W        W33354   9.063  11.182  11.308 -0.0830  0.0281 -0.1768
14501W        W33355   5.222  18.742  12.857  0.0432  0.1346 -0.0694
14502W        W33356   7.120  10.791   3.668 -0.1161  0.2597  0.1769
14503W        W33357  13.429  14.236  14.416 -0.2886 -0.1739  0.0276
14504W        W33358   4.444  13.213   2.241  0.0391  0.1420  0.0030
14505W        W33359  10.038  16.473  10.750 -0.4706  0.2222  0.1356
14506W        W33360  11.517  12.201  11.897 -0.4387 -0.1152 -0.0553
14507W        W33361   0.982   2.525  14.655 -0.0042 -0.1720  0.2312
14508W        W33362  16.229  14.601  14.559  0.0964 -0.0438  0.1541
14509W        W33363   7.244  12.597  12.637  0.1579 -0.3177  0.0747
14510W        W33364  12.964  17.225  12.356  0.0826  0.2353  0.0381
14511W        W33365   5.173   0.663  10.261  0.1244 -0.0090  0.1241
14512W        W33366   1.984  12.029   0.055 -0.0173  0.0693  0.2033
14513W        W33367   7.044  18.572   2.845  0.2316  0.2177  0.2968
14514W        W33368  10.831  14.660   3.623  0.2994  0.1116 -0.5710
14515W        W33369  15.667  15.384   4.083  0.3004 -0.1037  0.0567
14516W        W33370   0.653   9.983  14.377 -0.2390  0.2120 -0.0748
14517W        W33371  13.633  11.989  13.248  0.1114 -0.1261  0.0216
14518W        W33372  12.278   6.888  11.827  0.5126 -0.3378  0.1233
14519W        W33373   8.850   9.330  11.981 -0.0728  0.0406 -0.2066
14520W        W33374  13.261   4.391  14.336  0.1126  0.1502  0.0680
14521W        W33375   5.239  15.002  10.580  0.3609 -0.1636  0.0740
14522W        W33376   2.254  13.089  13.348  0.1985 -0.0099  0.0476
14523W        W33377  15.876  12.987   3.633  0.0193 -0.2136 -0.1122
14524W        W33378   6.253   4.377  13.454 -0.2037  0.0228  0.2638
14525W        W33379  13.708   9.119   3.313  0.0865  0.1585  0.2146
14526W        W33380   6.071  12.654   5.247 -0.0333  0.1604  0.1441
14527W        W33381  10.260   6.451   3.854 -0.0374 -0.2723  0.0273
14528W        W33382   1.965   0.287   0.186 -0.2350  0.1021  0.2688
14529W        W33383   1.842   9.219   1.053  0.2101  0.1215 -0.4015
14530W        W33384  17.865  16.424   5.066  0.2627  0.1451  0.1059
14531W        W33385   4.426   8.680   0.447 -0.3053  0.2629 -0.0265
14532W        W33386   4.465  11.228  11.553 -0.0837  0.2477  0.0655
14533W        W33387  18.455  13.700  11.586 -0.0504 -0.0505 -0.1560
14534W        W33388   8.302   0.144   2.642  0.0186  0.1531  0.0684
14535W        W33389   8.914   6.347   2.495  0.2402 -0.0358  0.0679
14536W        W33390  18.758   6.537  12.179  0.4763  0.0527  0.1592
14537W        W33391  14.647   9.980  13.334  0.1914 -0.1053  0.0840
14538W        W33392   3.159  13.068   1.762  0.2825  0.2298  0.0402
14539W        W33393  11.417   8.659   2.112  0.2129 -0.0903  0.0614
14540W        W33394   2.936   4.213   0.247  0.1696 -0.7673  0.1269
14541W        W33395  12.461  16.742  10.463 -0.1779  0.0958 -0.3565
14542W        W33396   8.102  16.178   2.676  0.0826  0.1853  0.0985
14543W        W33397   3.401   4.969  14.673 -0.0645 -0.0880 -0.2415
14544W        W33398   5.731  14.968  11.385 -0.0115 -0.0759  0.0250
14545W        W33399   5.084   6.581  13.412  0.2692 -0.0405 -0.1054
14546W        W33400   5.084  12.304  14.172 -0.1621  0.4856 -0.0731
14547W        W33401   6.107  15.055   2.397  0.0349  0.1918  0.4006
14548W        W33402  10.545  18.580   1.986  0.3117 -0.1107 -0.1211
14549W        W33403   0.101  16.688   0.035 -0.0818  0.3436 -0.0723
14550W        W33404  16.896   1.156  12.204 -0.1174 -0.1276  0.0675
14551W        W33405   6.245   3.475   2.037  0.1215 -0.4091  0.1582
14552W        W33406   6.771   5.218  11.560  0.1827 -0.0002 -0.0083
14553W        W33407  19.053   2.199   2.332 -0.0479 -0.3360 -0.2519
14554W        W33408  14.179   5.866  12.298  0.0540  0.0510  0.0300
14555W        W33409  13.731   1.736   2.555  0.1402 -0.0319 -0.0679
14556W        W33410   9.153  18.013  14.033 -0.1038  0.0508 -0.0046
14557W        W33411   3.380  11.574   0.983  0.0788 -0.0095 -0.0205
14558W        W33412  16.124   6.359  10.844 -0.1209 -0.3116 -0.0521
14559W        W33413  11.283   6.593   2.273 -0.1120 -0.0084  0.0571
14560W        W33414   0.122   6.163   0.554 -0.0180 -0.1678  0.0329
14561W        W33415   0.808  19.054  11.313  0.1432  0.5254 -0.0876
14562W        W33416  18.706   9.503  14.139 -0.0297 -0.0608 -0.0118
14563W        W33417  14.033   3.333   1.657  0.0598  0.2968  0.1257
14564W        W33418   6.085   7.777   4.111  0.0132  0.1610  0.3483
14565W        W33419  13.713  12.232  10.596  0.2122  0.1783 -0.4616
14566W        W33420   2.964   5.751   4.107 -0.0039 -0.0056 -0.0832
14567W        W33421  14.927  18.027  13.430  0.0448  0.0069 -0.3991
14568W        W33422  10.722   7.566   1.192  0.2267 -0.2296 -0.0577
14569W        W33423   5.064   8.007   3.977  0.2794 -0.0691 -0.0862
14570W        W33424  18.764  17.954   1.288 -0.3256  0.0159 -0.0906
14571W        W33425  12.573   4.542   1.300 -0.4421  0.1467 -0.2580
14572W        W33426   1.854  12.212   4.272  0.0858 -0.1574 -0.0208
14573W        W33427   8.432  16.202   1.823 -0.2708 -0.1104 -0.1405
14574W        W33428  10.014   8.753  10.823 -0.0667  0.0782 -0.0748
14575W        W33429   0.234  15.306   2.661 -0.1938  0.1766  0.1077
14576W        W33430   9.372  19.076   0.493  0.4081 -0.0462 -0.0002
14577W        W33431   8.946   2.329  12.199 -0.0570  0.0730  0.1300
14578W        W33432  11.272  15.277  11.886 -0.1705 -0.0113  0.3749
14579W        W33433  12.891  17.159  10.502  0.3558  0.2133  0.1608
14580W        W33434  17.723   0.124  12.753 -0.2364  0.1697  0.2252
14581W        W33435  13.717   4.099   0.016 -0.0491 -0.0143  0.0259
14582W        W33436   7.455  16.350   5.206  0.0948  0.0855  0.1555
14583W        W33437  10.626   3.519  14.518 -0.0390  0.1235  0.2077
14584W        W33438  18.920  15.272   0.343  0.0883  0.3087  0.0476
14585W        W33439   3.564  18.420  12.931 -0.1551  0.3040  0.0389
14586W        W33440  15.830   4.905   1.978 -0.0688 -0.2345  0.1388
14587W        W33441  18.676   8.453   1.189 -0.2304  0.1919  0.3093
14588W        W33442   7.714   5.499  11.856 -0.0673  0.1320 -0.1472
14589W        W33443  10.694  16.117   1.772 -0.1286  0.0793  0.2848
14590W        W33444   9.147   8.271   1.654  0.0911 -0.2513  0.3700
14591W        W33445   7.085   0.706  11.875 -0.0398  0.0382  0.2870
14592W        W33446   4.297  15.214  13.911  0.0925  0.2688  0.1154
14593W        W33447   8.667   5.932  14.523  0.0770  0.1785 -0.2213
14594W        W33448   6.892   6.478   1.232 -0.2901  0.1190 -0.0655
14595W        W33449  13.696   9.836   1.629  0.2237 -0.2530 -0.1390
14596W        W33450  12.200   4.134   1.503  0.1635 -0.7588 -0.2579
14597W        W33451   7.865  12.063  13.247  0.0184 -0.1551 -0.1794
14598W        W33452   2.978  17.757   2.167 -0.0057  0.0813 -0.0520
14599W        W33453  13.700  17.348   2.847  0.2303  0.0795  0.1541
14600W        W33454   5.216  13.238   1.081 -0.2940 -0.2668  0.0703
14601W        W33455   4.531   8.368  11.292  0.2002  0.4230 -0.1180
14602W        W33456   8.238  14.369  12.153 -0.0895  0.3582  0.1266
14603W        W33457  12.782  16.684  13.782 -0.0812  0.1238 -0.0716
14604W        W33458  17.398   3.776   0.820  0.1972  0.2100 -0.2415
14605W        W33459   0.538  11.872  13.629  0.0427  0.1273  0.0849
14606W        W33460   8.388  11.863  11.718  0.1444 -0.0927  0.2057
14607W        W33461  18.362  18.731  11.541  0.3926  0.1371 -0.1086
14608W        W33462   7.959   3.986  11.160  0.1871 -0.0487 -0.3304
14609W        W33463  19.127  18.678  14.437  0.3127  0.1813  0.1691
14610W        W33464   0.288   6.395   2.311  0.0767  0.3794 -0.1332
14611W        W33465  13.690   5.029   2.665 -0.2056  0.3715 -0.4178
14612W        W33466   4.141   4.699   1.099  0.0077 -0.1581  0.2889
14613W        W33467  11.054  13.505  11.737 -0.0524 -0.1721 -0.4371
14614W        W33468   2.475   1.289  13.467  0.1972 -0.1567  0.1095
14615W        W33469  13.294  11.482   1.967 -0.1497  0.0381  0.0686
14616W        W33470  14.144   8.088   1.474 -0.3450 -0.0062  0.2839
14617W        W33471   5.847  14.461  11.509 -0.3023 -0.2198  0.0859
14618W        W33472  14.095  18.389   1.949 -0.1157 -0.1534 -0.0815
14619W        W33473  14.594   2.054   1.528  0.2509  0.0175 -0.3370
14620W        W33474   6.331  17.886   0.703  0.0148 -0.0457 -0.3888
14621W        W33475  10.184  17.083   3.174 -0.0739  0.1419  0.0512
14622W        W33476   2.946   9.152   3.438  0.0046  0.3404 -0.2327
14623W        W33477   5.061   7.817   0.455  0.1296  0.2197 -0.1668
14624W        W33478   7.696   5.516  10.118 -0.0322 -0.0228  0.1110
14625W        W33479  11.757   4.709   2.266  0.0843  0.2146 -0.0879
14626W        W33480  10.065   4.307   1.726 -0.3514 -0.1009 -0.0959
14627W        W33481   3.398  10.502   1.366  0.0962 -0.0204  0.5002
14628W        W33482   2.441  10.109   2.915 -0.0403  0.1014  0.1802
14629W        W33483   4.520   6.207  11.937  0.0814  0.0755  0.1216
14630W        W33484  10.307   0.452   4.298  0.1124  0.1355 -0.0693
14631W        W33485  17.817  15.221   0.804  0.0100  0.0618  0.0085
14632W        W33486   1.149   8.165  14.787 -0.0664 -0.2148 -0.3541
14633W        W33487  15.452  17.496   2.034 -0.2088 -0.0083  0.0299
14634W        W33488   2.508   4.881  12.351  0.0126 -0.0043  0.1982
14635W        W33489   7.746  12.060   3.964 -0.1185  0.2516 -0.2172
14636W        W33490   7.354   0.338  12.610 -0.0295  0.0732  0.2297
14637W        W33491  11.652   0.243  10.501 -0.2695  0.0714  0.0785
14638W        W33492  12.723  15.207  10.372  0.1326 -0.0241  0.3835
14639W        W33493  12.996  18.455  13.323  0.0135  0.2245 -0.1678
14640W        W33494  14.184   3.225  12.633  0.0102 -0.1988 -0.2376
14641W        W33495   5.971  14.133  12.140 -0.2260  0.3261 -0.1307
14642W        W33496  16.827  14.589  14.088 -0.0048  0.1913 -0.0733
14643W        W33497  10.579  11.358   4.294 -0.0726  0.2743  0.0228
14644W        W33498   1.859   7.007   3.867 -0.0623 -0.2450 -0.2237
14645W        W33499   0.503   8.401   5.674  0.0148  0.1575  0.3909
14646W        W33500   5.319   2.857   4.097 -0.1500 -0.0295  0.1719
14647W        W33501   0.021  10.205   3.585  0.4586  0.2100 -0.4255
14648W        W33502  16.274   0.558  11.825 -0.0442  0.0344  0.1678
14649W        W33503   8.451  11.755  14.695  0.0663 -0.1108 -0.1151
14650W        W33504  10.429   8.129   0.426  0.0491  0.2393 -0.1196
14651W        W33505   7.576  13.747  13.837  0.1762  0.1630 -0.0079
14652W        W33506  12.835  15.150   3.113 -0.0660  0.0228 -0.2951
14653W        W33507  17.190  13.507   1.789  0.2772 -0.1412  0.1209
14654W        W33508   2.641  13.450   0.745  0.3101 -0.1420 -0.0350
14655W        W33509   5.711  14.954   0.183  0.1208  0.3787 -0.1757
14656W        W33510   9.525   2.907  14.000 -0.2480  0.1663 -0.0703
14657W        W33511   0.093  11.241  14.691 -0.0348  0.0436  0.1525
14658W        W33512   3.056  17.144   2.536  0.1337  0.1784 -0.1382
14659W        W33513  19.079   3.694   4.199 -0.1605  0.1769 -0.0264
14660W        W33514  12.026  14.619   3.390 -0.2268 -0.3052  0.1849
14661W        W33515   0.826   5.864   4.943 -0.0743 -0.0589  0.0864
14662W        W33516   0.733   5.203  13.495  0.4294 -0.0784  0.2657
14663W        W33517   4.698  13.772  10.759  0.3872 -0.0936  0.1160
14664W        W33518  12.789   5.135  10.908 -0.0282 -0.0701  0.2892
14665W        W33519  15.665  17.877   1.758 -0.0975 -0.1459  0.2337
14666W        W33520   0.143  17.860  11.318  0.3884  0.1837 -0.1256
14667W        W33521  12.612  11.704  12.456  0.1547 -0.0299  0.1733
14668W        W33522  16.469  13.888   0.709 -0.2418 -0.2193  0.1390
14669W        W33523  10.542  11.695  11.562  0.1956 -0.1247  0.0805
14670W        W33524  11.861  16.768   2.365 -0.1122 -0.1015  0.3554
14671W        W33525  17.445  13.609   2.771  0.0240 -0.0231 -0.2698
14672W        W33526   3.414  10.027  10.460  0.3779  0.0125 -0.2019
14673W        W33527   8.598   3.972   2.400  0.3427 -0.2498  0.1517
14674W        W33528   7.713   9.066   2.322  0.2628 -0.0757 -0.0093
14675W        W33529   0.975   8.423  13.674  0.2936  0.2592  0.1945
14676W        W33530   4.502  10.698  12.724  0.2412 -0.3463 -0.1537
14677W        W33531   1.275   0.636  10.283  0.1410 -0.0341 -0.1180
14678W        W33532  16.096   6.413  14.302  0.1346 -0.0678  0.0424
14679W        W33533   3.316  15.580  14.278 -0.2674 -0.1503 -0.3466
14680W        W33534   5.917  11.917  13.634  0.0405 -0.2691  0.1587
14681W        W33535   7.362  12.100   0.160 -0.0069 -0.2351 -0.1229
14682W        W33536  12.454   0.644  13.584  0.2875 -0.0256  0.2325
14683W        W33537   5.996  12.474  14.415  0.2617  0.1443 -0.2959
14684W        W33538  11.894   9.913   2.463  0.0526 -0.0597 -0.1104
14685W        W33539  16.279  10.998  12.900  0.0944  0.4013 -0.0642
14686W        W33540   1.186   7.160   3.934  0.3437 -0.1461  0.0069
14687W        W33541  17.314   0.246  12.491  0.1674  0.0297 -0.1376
14688W        W33542  10.922  17.887   4.301 -0.0405 -0.2319 -0.0039
14689W        W33543  15.447   3.906  13.852  0.2005 -0.1157  0.2548
14690W        W33544   6.780   8.654  10.943  0.0620 -0.0041  0.1005
14691W        W33545   2.232  13.372   1.713  0.1691  0.3082 -0.0223
14692W        W33546  11.784  12.716   4.055  0.0515  0.0813 -0.1036
14693W        W33547   7.632   4.141  10.727 -0.0959 -0.0168 -0.0766
14694W        W33548   2.967  17.861  11.136 -0.2735 -0.0075 -0.0216
14695W        W33549  17.104   5.625   1.874 -0.0015  0.1785 -0.0722
14696W        W33550  18.209  13.742  11.103 -0.1492  0.1132 -0.0359
14697W        W33551   2.923   0.689   3.135 -0.2233  0.1919 -0.4200
14698W        W33552  16.674   8.067  11.908  0.1608  0.0820  0.2333
14699W        W33553  18.245   0.124   0.053  0.0932  0.2687  0.2136
14700W        W33554   0.063  18.011  12.732 -0.0013  0.1680 -0.0031
14701W        W33555   1.224   7.990   1.528  0.1577  0.0688 -0.3130
14702W        W33556  10.385  12.744   3.044 -0.0789  0.0290  0.0993
14703W        W33557   7.821  13.572  11.383 -0.4154 -0.0499  0.0290
14704W        W33558  14.188   1.981   4.028 -0.0527  0.1542  0.2252
14705W        W33559  14.193  14.115   1.978  0.0761  0.1114  0.3387
14706W        W33560  10.646  13.231   0.243  0.1810  0.1875 -0.1171
14707W        W33561   3.732  11.012   2.992  0.0602 -0.0323  0.0134
14708W        W33562   0.769   3.660  13.914 -0.1485  0.0772 -0.3345
14709W        W33563   8.042   9.786  12.948 -0.2699 -0.1479  0.0661
14710W        W33564  17.097  10.854  12.360 -0.0698 -0.2858 -0.0377
14711W        W33565   4.292   5.200  13.258  0.0582  0.1317 -0.1245
14712W        W33566  17.795  11.771   2.364  0.0979  0.0464  0.2326
14713W        W33567   4.186  10.342   2.493 -0.0564 -0.2417  0.1760
14714W        W33568  15.540   2.417   1.519  0.3552  0.2234 -0.2810
14715W        W33569  19.125  10.250  12.129  0.0594  0.1141  0.0534
14716W        W33570  16.288   7.153   3.826  0.3638  0.2877 -0.1308
14717W        W33571  13.858   6.863   0.682 -0.1439 -0.2059  0.2134
14718W        W33572   7.417   0.626   3.237 -0.0715 -0.0281 -0.1868
14719W        W33573  11.464  17.004  14.572 -0.0771 -0.0340 -0.3787
14720W        W33574  12.246   6.295   3.763 -0.0343  0.0122  0.1740
14721W        W33575  16.367  13.523  13.362  0.3040  0.3098 -0.0755
14722W        W33576  15.026  10.076  14.147  0.1126 -0.0519 -0.2218
14723W        W33577  12.827   3.002  12.254 -0.0223  0.1258  0.2085
14724W        W33578  11.637   4.196  12.632  0.1823  0.0680 -0.0080
14725W        W33579   6.111  18.750  10.705 -0.1283 -0.5834  0.2905
14726W        W33580  15.753   8.464   0.236  0.1069 -0.2805  0.1871
14727W        W33581  17.382   4.616   1.966  0.0099 -0.2617  0.0504
14728W        W33582  17.118   3.451   3.488 -0.3068 -0.2026 -0.0040
14729W        W33583   5.655  11.933   1.571  0.0462 -0.0638 -0.0039
14730W        W33584   0.182   2.515  14.627  0.2211  0.0628 -0.1016
14731W        W33585   3.295   5.045  12.562 -0.0792  0.2441  0.0071
14732W        W33586   3.752  18.482   3.783  0.0813  0.1810 -0.3136
14733W        W33587  17.788  14.260  11.635  0.0650 -0.0756  0.3756
14734W        W33588  14.367  10.782  13.785  0.3340 -0.1009  0.0155
14735W        W33589   8.146  17.293   3.715 -0.0676 -0.1486 -0.1320
14736W        W33590   8.193   8.307  14.179  0.1933 -0.0374  0.2494
14737W        W33591  14.435   0.794   0.855 -0.0337  0.0055 -0.0304
14738W        W33592  14.045   8.567  13.256 -0.0412 -0.0763  0.1277
14739W        W33593   7.132   8.833   0.865 -0.1475  0.0110  0.2407
14740W        W33594   2.516  10.323  14.589 -0.1452 -0.1298 -0.0769
14741W        W33595  14.123   8.691   0.304  0.1524 -0.1142 -0.2495
14742W        W33596  10.420  16.547  12.455  0.0582 -0.2375  0.2914
14743W        W33597  12.430  18.989  14.556  0.1382 -0.1077 -0.2769
14744W        W33598  12.704  11.076   1.405  0.3948  0.1299  0.2435
14745W        W33599  17.591   6.069  14.671  0.0971  0.0379  0.4975
14746W        W33600   9.818   0.895  10.496 -0.0394 -0.0051  0.3496
14747W        W33601  11.796   6.809   4.293 -0.0993 -0.1713  0.0505
14748W        W33602   5.725  14.885  10.709  0.1412 -0.0015  0.2321
14749W        W33603   7.894  15.593   3.316  0.4930 -0.0308  0.1420
14750W        W33604   6.204   0.605   2.689 -0.2472  0.1391  0.1517
14751W        W33605   6.919   7.959   3.180 -0.0930  0.5147 -0.0971
14752W        W33606   4.143  17.710  13.117  0.1989  0.0317 -0.0234
14753W        W33607  15.891  12.164   1.834  0.1366  0.0851 -0.1561
14754W        W33608   0.128   3.293   3.391 -0.0715  0.2858  0.0039
14755W        W33609  18.048   7.575   3.348  0.0700  0.2101  0.1541
14756W        W33610   9.403  14.922   1.222  0.0735 -0.0723  0.0674
14757W        W33611   0.163   7.781   2.519 -0.0816  0.0453 -0.0768
14758W        W33612   3.793   1.439  13.742  0.1214 -0.0021 -0.0849
14759W        W33613   8.620   7.035  11.959  0.1444  0.2454 -0.0232
14760W        W33614   0.907   3.436   1.227 -0.3149  0.1429 -0.2118
14761W        W33615   6.393  15.882   0.474 -0.1538  0.0312  0.1467
14762W        W33616  16.959   7.190  14.480  0.1955 -0.0027  0.1538
14763W        W33617  11.413   9.329   4.530  0.2214 -0.2330  0.0688
14764W        W33618   9.760  15.382  11.642 -0.3559  0.0557  0.0008
14765W        W33619  13.329   3.060  11.401  0.2136 -0.0794 -0.1362
14766W        W33620   0.821   3.830  14.418  0.1662 -0.0381  0.1989
14767W        W33621  13.611  17.534  13.667 -0.0225  0.1003  0.2511
14768W        W33622  15.850  11.370   2.047  0.4357 -0.0493 -0.0503
14769W        W33623  12.561   0.131  12.935 -0.1287 -0.1892  0.0576
14770W        W33624  15.524   7.572   4.109 -0.2405  0.0853 -0.4520
14771W        W33625   9.006   4.020  11.914  0.2782  0.4444  0.2636
14772W        W33626  15.761  13.101  12.786 -0.1614  0.2016 -0.0241
14773W        W33627  12.472   3.641   1.718 -0.1778 -0.1630  0.1693
14774W        W33628  10.239   7.974  11.644 -0.0949 -0.0147  0.0771
14775W        W33629  11.387  16.824  11.511  0.2224  0.0904 -0.1222
14776W        W33630  15.968   1.167  13.350  0.0876 -0.0773 -0.2016
14777W        W33631  13.292  17.337  14.034  0.0222 -0.0758 -0.2127
14778W        W33632  18.561  12.700   0.247  0.2090 -0.3958 -0.3666
14779W        W33633   1.258   4.165  10.772  0.1962 -0.0032 -0.1847
14780W        W33634  17.934   5.034   3.531  0.1391  0.0351 -0.1787
14781W        W33635   5.723  19.112   0.861  0.3239 -0.0091 -0.0549
14782W        W33636  15.766  15.420  14.351 -0.0330 -0.1266 -0.1103
14783W        W33637   0.753   5.628  12.178  0.2315  0.3235  0.3338
14784W        W33638  10.798  12.135  11.838  0.1719 -0.3805 -0.0351
14785W        W33639  14.189   7.226   4.804  0.2119  0.0372 -0.2606
14786W        W33640   2.811  18.418  11.706  0.2170 -0.0267  0.4256
14787W        W33641   2.352  14.296   0.156  0.0159 -0.3552  0.2130
14788W        W33642  10.693   3.032  10.381  0.2281 -0.1775  0.1134
14789W        W33643  11.563  16.928   3.894 -0.0783 -0.3877 -0.0258
14790W        W33644  12.662   6.926  14.710  0.1583  0.1868  0.1336
14791W        W33645   4.441  11.207  14.700  0.1466 -0.2920 -0.2895
14792W        W33646   6.472   0.189   1.597  0.2582 -0.0884 -0.1804
14793W        W33647   6.728  14.247   3.677  0.0141  0.2131 -0.1748
14794W        W33648   8.189   3.041   2.666  0.0194  0.3663  0.0027
14795W        W33649   6.934   9.578  11.522  0.1495 -0.0633  0.0667
14796W        W33650   2.615  14.716  13.464 -0.0406  0.1305  0.1333
14797W        W33651  13.603   7.989   4.695 -0.1019 -0.0087 -0.0855
14798W        W33652   9.874  12.030   1.583  0.1185 -0.0041  0.4003
14799W        W33653   3.630  14.183  13.529 -0.0969 -0.0862  0.0522
14800W        W33654  16.157  13.755   1.140 -0.1638  0.0217 -0.1257
14801W        W33655  10.789  16.977  13.528 -0.0470 -0.1597  0.0387
14802W        W33656   4.071   3.141   3.589  0.3507  0.0496  0.1193
14803W        W33657   7.732  10.376   1.433  0.0268  0.0877 -0.0526
14804W        W33658  10.217  14.299  14.110 -0.1199 -0.1280  0.3012
14805W        W33659  18.901   3.537  13.962  0.0523 -0.1913 -0.2139
14806W        W33660  14.802   7.030  13.378 -0.3034 -0.5110 -0.2320
14807W        W33661   0.835  16.378  12.977  0.0045  0.1228  0.0203
14808W        W33662  16.332   2.994  13.007  0.0113 -0.0055  0.0382
14809W        W33663   4.260  13.668   1.523  0.3447 -0.1056  0.2296
14810W        W33664   0.866   9.642   1.835  0.0443  0.1575  0.1749
14811W        W33665   2.266   7.512   2.583  0.3564  0.1914  0.0538
14812W        W33666   5.936   7.116   9.985  0.1235 -0.3141  0.3231
14813W        W33667   7.832   4.357  11.470  0.1853 -0.0347  0.2174
14814W        W33668   6.532  11.210   0.217  0.1303  0.2176  0.1000
14815W        W33669  14.237  10.763  12.299  0.2407  0.1261  0.0285
14816W        W33670   5.229  12.827   0.814  0.2469  0.0033  0.0808
14817W        W33671   0.463  14.957   0.695  0.0810  0.0539 -0.0935
14818W        W33672  12.019   3.683   1.599  0.0593 -0.0686  0.1288
14819W        W33673   4.504   6.660  13.175  0.1592  0.1972  0.2170
14820W        W33674   8.709  11.343   0.026  0.0532 -0.0497  0.1036
14821W        W33675   4.671   0.808   1.698 -0.1816 -0.3168 -0.0003
14822W        W33676  13.744  11.351   3.350 -0.1228 -0.2656  0.0211
14823W        W33677  18.090  11.358   2.248  0.2508 -0.0410  0.4083
14824W        W33678  18.547  16.775  11.520 -0.2672  0.2262 -0.0435
14825W        W33679   5.496  12.213   3.137  0.2704  0.2818 -0.0843
14826W        W33680  17.734   5.793  10.865 -0.2561 -0.2771  0.2443
14827W        W33681   4.840  10.298   2.149  0.0732  0.1077 -0.1625
14828W        W33682   0.153   1.070   0.590  0.0827  0.0085  0.2901
14829W        W33683  15.162  17.641   1.421 -0.1898  0.2357 -0.0708
14830W        W33684   0.730   7.689   2.168 -0.0201 -0.1600  0.0950
14831W        W33685  17.527  12.246  13.242  0.3734 -0.2769  0.0892
14832W        W33686  13.240  18.068   1.689  0.0976  0.0466 -0.1910
14833W        W33687   9.511   0.650  11.750 -0.1108 -0.1271  0.0440
14834W        W33688   8.639   0.107   1.769  0.0479 -0.1617 -0.0416
14835W        W33689  10.796  18.191   1.429 -0.1048 -0.1771  0.2255
14836W        W33690   7.406  13.473  12.922 -0.0776 -0.1814  0.1891
14837W        W33691  18.760   4.991  10.752  0.0939 -0.0801 -0.1855
14838W        W33692   1.746  14.727  10.904  0.1635  0.1054 -0.2995
14839W        W33693   1.627   1.716  14.648 -0.0979 -0.1108  0.1281
14840W        W33694  19.115  17.019   4.175  0.1070  0.0152 -0.3467
14841W        W33695  18.351   6.820  11.372  0.0468  0.1215  0.0629
14842W        W33696   1.968  18.288  12.751  0.1734 -0.1651 -0.0377
14843W        W33697   6.105  16.798  13.415  0.0868  0.0652 -0.0361
14844W        W33698   1.633   0.358  11.636 -0.0087 -0.0811 -0.1334
14845W        W33699  16.692  11.959  13.136  0.1551 -0.0075  0.1746
14846W        W33700   0.012   8.381   2.427  0.2789 -0.2564 -0.1979
14847W        W33701  12.679  19.071   0.991 -0.2075 -0.0104 -0.2663
14848W        W33702   9.050  16.132  13.405 -0.3948 -0.2307  0.0861
14849W        W33703  12.394  16.065   2.197 -0.0050 -0.1707  0.1734
14850W        W33704  11.293   4.235   3.774  0.0901  0.1998 -0.0337
14851W        W33705  16.573  18.582   3.480  0.2388  0.0635 -0.0946
14852W        W33706   5.023   5.899   3.634 -0.2739 -0.0214  0.1049
14853W        W33707   4.170  13.003   2.841  0.0080  0.0166  0.0369
14854W        W33708   4.950  18.933  14.147  0.1695 -0.2962 -0.1570
14855W        W33709   8.463   6.115   2.728 -0.2619  0.0254  0.2314
14856W        W33710  14.809   6.058  11.309  0.3725  0.1073  0.0369
14857W        W33711   5.750  15.698  11.063  0.0651 -0.0807 -0.0037
14858W        W33712   5.802   9.674   1.918  0.1191  0.0888 -0.1029
14859W        W33713   8.619  14.833  11.446  0.2649 -0.1026 -0.1395
14860W        W33714  10.890   2.157  12.512 -0.0416 -0.0290 -0.0484
14861W        W33715   9.595  19.155  12.251  0.0808 -0.3279 -0.1491
14862W        W33716   0.240  16.491   1.117 -0.0066  0.0208  0.2491
14863W        W33717   3.963  17.715  12.118 -0.1240 -0.1187  0.1341
14864W        W33718   5.564  11.715   2.949  0.1205  0.2997 -0.0199
14865W        W33719   0.971  11.446  12.570  0.2888  0.1647 -0.2211
14866W        W33720  13.653   7.948   1.694 -0.1695 -0.0619  0.0611
14867W        W33721   3.111   1.641  14.783  0.3173 -0.0459 -0.0191
14868W        W33722   3.622  15.768  10.926 -0.0996 -0.2996  0.1483
14869W        W33723   1.213   9.469   0.575 -0.0173  0.0071 -0.2061
14870W        W33724  18.122   4.069  12.182 -0.1442  0.2679 -0.1542
14871W        W33725  16.083   4.326  12.854 -0.0642 -0.0211  0.3212
14872W        W33726  11.061  10.241   1.047 -0.5533 -0.0496  0.3306
14873W        W33727  13.237   2.898  13.607 -0.1354  0.4074  0.0386
14874W        W33728  14.831   8.211   0.070 -0.0617 -0.0594  0.1866
14875W        W33729   0.381  14.363  10.708 -0.1042  0.3601  0.2781
14876W        W33730   6.444   8.803   0.916 -0.1251 -0.0684  0.0378
14877W        W33731  15.648  17.196   2.446  0.0634  0.0813  0.0629
14878W        W33732  17.163   6.003  11.584 -0.0086  0.5014 -0.1338
14879W        W33733   1.386   0.057  12.036 -0.1138 -0.1689 -0.1645
14880W        W33734  17.163   1.244   2.369  0.0491  0.2446 -0.1152
14881W        W33735   1.011   1.658  14.637  0.1469  0.3450  0.1851
14882W        W33736  17.762   7.345   1.183  0.1973 -0.3309  0.1049
14883W        W33737  10.732   7.721   2.175 -0.1013 -0.0428 -0.0386
14884W        W33738   6.020   9.510   0.486 -0.3533 -0.3741 -0.2191
14885W        W33739  16.214   1.732  12.386  0.0916  0.0019  0.2135
14886W        W33740   6.129   1.074   1.674  0.1603  0.2397  0.1176
14887W        W33741  12.761   5.728  10.518  0.2606  0.1914  0.0293
14888W        W33742  14.379  13.456  14.557  0.3715 -0.0162 -0.2198
14889W        W33743  11.170  13.822  13.028  0.4548 -0.2035  0.1243
14890W        W33744  14.613   2.696   4.620  0.3692 -0.1045  0.0343
14891W        W33745  16.235   4.927   4.201  0.1399 -0.0963  0.1146
14892W        W33746  12.440  10.094   0.062  0.0013 -0.0756 -0.3126
14893W        W33747  15.547   3.954  12.239  0.2374 -0.3819 -0.2455
14894W        W33748  18.189  11.667   9.894  0.3596  0.2325 -0.1729
14895W        W33749  19.064   8.915   0.074  0.2486  0.0595  0.0375
14896W        W33750  11.781  13.774  13.868 -0.1970 -0.0358 -0.1736
14897W        W33751   5.034   2.892   2.750 -0.1012  0.3575  0.0091
14898W        W33752  12.134   3.689  12.005 -0.0671 -0.1301 -0.0845
14899W        W33753   8.078   1.422   3.190  0.1673  0.0593 -0.0732
14900W        W33754   3.886  16.290   2.847 -0.0037  0.1846 -0.1554
14901W        W33755   9.475  10.592   2.254  0.0065 -0.0715 -0.0105
14902W        W33756   6.246  11.933   1.554  0.0866 -0.2142 -0.0492
14903W        W33757   7.324   6.039   5.254 -0.0039 -0.0785 -0.0894
14904W        W33758   8.070   8.446  10.905  0.0503  0.0047 -0.0230
14905W        W33759   8.025  14.497  14.037 -0.0646 -0.1496 -0.4272
14906W        W33760  12.374   9.091   2.601 -0.0295  0.0922 -0.0392
14907W        W33761  13.614  12.990   1.737 -0.0528  0.2064  0.0832
14908W        W33762   9.004   1.910   3.170  0.1343  0.2223 -0.0517
14909W        W33763   0.038   9.382   2.857  0.0978 -0.1861 -0.2801
14910W        W33764   5.698  18.792  10.912 -0.0597 -0.1084  0.0578
14911W        W33765  15.846   3.061   4.179 -0.3032  0.3891 -0.0458
14912W        W33766   1.344  13.460   1.200 -0.0621 -0.1448  0.2959
14913W        W33767  15.481   5.543  12.925 -0.1079  0.1473  0.1998
14914W        W33768   8.742  15.269  14.363 -0.1830 -0.1044 -0.1096
14915W        W33769   9.310  12.173   1.429  0.4488 -0.0980 -0.1747
14916W        W33770  16.173   2.894  13.648 -0.2365 -0.4337  0.2383
14917W        W33771  18.456  14.974   1.998  0.5989  0.1778 -0.0958
14918W        W33772   3.555   0.871  13.110  0.0504 -0.1109 -0.0772
14919W        W33773   8.014   4.115   4.077 -0.3028 -0.0696  0.1704
14920W        W33774  12.514   9.947  13.709 -0.0544  0.1564 -0.0502
14921W        W33775   2.996  12.914   2.982 -0.2491  0.2053 -0.3974
14922W        W33776  17.221  16.514   0.148 -0.0216  0.2371  0.0089
14923W        W33777   9.209  11.056  10.103  0.1645 -0.1163  0.2957
14924W        W33778  10.466   9.151   1.661 -0.1909 -0.0521 -0.3048
14925W        W33779   0.458  10.052   0.134 -0.1524  0.3796 -0.0714
14926W        W33780  10.647   8.841  13.938 -0.4205 -0.1542  0.1964
14927W        W33781  10.795   8.250   3.180 -0.2930 -0.1869  0.3979
14928W        W33782   3.545  18.709   0.793 -0.3789 -0.0785 -0.1479
14929W        W33783  15.553   8.437   0.739 -0.1162  0.0847  0.0843
14930W        W33784  13.456   5.600   2.109  0.0458  0.1352 -0.0668
14931W        W33785  10.299  13.106  12.094 -0.1801  0.1118 -0.1114
14932W        W33786  16.856  10.540  11.296 -0.0794  0.1339  0.3678
14933W        W33787  16.589   5.600   9.861 -0.2516  0.1193  0.2817
14934W        W33788   4.296  10.379   1.501 -0.2720  0.0754 -0.3248
14935W        W33789   6.453  16.405   0.650  0.0353  0.1079  0.3400
14936W        W33790  13.529  11.602   3.798  0.0077 -0.2071  0.0849
14937W        W33791   2.777  11.366  13.651 -0.1562  0.0780 -0.3557
14938W        W33792   2.505  18.966  12.302 -0.0514  0.1449 -0.2544
14939W        W33793   4.791  16.196   1.703  0.0679  0.0026 -0.1200
14940W        W33794   3.298  18.667   3.893 -0.2338 -0.0526  0.1229
14941W        W33795   3.815   2.915   0.696  0.4892  0.4072 -0.0190
14942W        W33796   4.517  14.171   0.164 -0.2169 -0.0675 -0.0876
14943W        W33797  18.140  12.102   3.652  0.0953 -0.1422  0.0063
14944W        W33798   9.958  11.645  12.338 -0.4739 -0.2808  0.0873
14945W        W33799  18.987  17.139  12.591  0.0591 -0.0797 -0.1416
14946W        W33800  11.410   6.459  14.543  0.0301  0.4522 -0.0545
14947W        W33801  10.279   8.016  13.976 -0.2904  0.1128  0.1314
14948W        W33802   9.000  10.396  14.443  0.0444 -0.0411  0.1979
14949W        W33803  10.329  13.569   9.588  0.3324 -0.2902  0.0901
14950W        W33804  10.559   0.007  11.973 -0.2276 -0.0132 -0.1497
14951W        W33805  13.182   8.714  10.884  0.0822 -0.0805 -0.0819
14952W        W33806   5.824  12.540   4.509 -0.2111 -0.0544  0.0673
14953W        W33807   7.964  11.517   1.989 -0.0128  0.0630 -0.2542
14954W        W33808   2.162  11.479  13.240 -0.3006  0.0465 -0.1746
14955W        W33809   0.790  18.250   0.829  0.0696 -0.1068 -0.0421
14956W        W33810   3.572   4.549  14.470 -0.1562 -0.1384  0.4681
14957W        W33811  17.227   4.432   2.389 -0.1764  0.2470 -0.0619
14958W        W33812   6.728  10.262   2.394 -0.0763  0.3016 -0.1248
14959W        W33813  15.297  14.669  10.873 -0.3516 -0.0929 -0.0621
14960W        W33814  15.776   9.400   1.972  0.0807 -0.1187  0.1253
14961W        W33815  13.471  10.799  13.088 -0.1336 -0.1881  0.0559
14962W        W33816  10.512  10.966   3.993 -0.0373  0.1085  0.2732
14963W        W33817   5.927  11.605   0.313 -0.1874  0.0348  0.2031
14964W        W33818   1.567   5.573   0.592  0.2194  0.0426  0.2881
14965W        W33819  14.782   0.970  10.267 -0.0682 -0.3046 -0.2246
14966W        W33820   4.588   9.250   0.716  0.2371 -0.1006 -0.1516
14967W        W33821   8.626  14.950   2.310 -0.1668 -0.1235 -0.3913
14968W        W33822   2.143  15.063  12.222 -0.4578 -0.3097  0.2540
14969W        W33823   1.331   3.386   2.380  0.0053 -0.0794 -0.3398
14970W        W33824  13.696   0.227  13.380  0.1336  0.2001  0.0178
14971W        W33825   5.848   9.015   2.296  0.1293  0.2157  0.0378
14972W        W33826  13.374  15.930  11.446 -0.0076 -0.0126  0.0869
14973W        W33827   0.310  16.453   3.583  0.0295 -0.3351  0.1127
14974W        W33828   9.226   4.477  11.995  0.2784 -0.1748 -0.0305
14975W        W33829   2.470   9.151   3.890 -0.3059  0.0093  0.1756
14976W        W33830   9.877  16.172   3.247  0.0813  0.5485 -0.3189
14977W        W33831  12.514   2.584  14.361 -0.0650  0.0351 -0.0986
14978W        W33832  16.308   4.989   3.192  0.1497 -0.2421 -0.1494
14979W        W33833   3.802  14.464  13.989  0.0383 -0.3895  0.0100
14980W        W33834   6.141   9.684   4.439 -0.0179  0.1767 -0.4045
14981W        W33835  15.376   0.427   2.298 -0.1641 -0.1924  0.1687
14982W        W33836  11.265  18.538  12.017  0.2501  0.3244  0.3446
14983W        W33837  18.067   1.712   1.897 -0.0571 -0.0575 -0.0392
14984W        W33838  17.970  10.828  11.397 -0.3104  0.3494 -0.0080
14985W        W33839  17.332  18.548  13.549  0.4189 -0.0865 -0.2758
14986W        W33840  18.602  11.849   2.968  0.1921 -0.1651  0.2425
14987W        W33841  15.455   2.150   5.109  0.1352 -0.1732 -0.3180
14988W        W33842  15.639  17.756  12.229  0.0849 -0.2849  0.0509
14989W        W33843   5.862   8.418   0.341  0.3635 -0.0067 -0.4004
14990W        W33844  16.299  18.422  14.087  0.1384  0.1150  0.2117
14991W        W33845  16.444   1.749   2.465 -0.1101 -0.0458  0.0055
14992W        W33846   2.411   9.953  12.102  0.0509 -0.0557  0.1325
14993W        W33847  17.014   9.184  13.270 -0.1601 -0.0743  0.1811
14994W        W33848   0.931   7.203  13.855  0.1714  0.0483  0.0401
14995W        W33849  17.503   0.991   1.875 -0.1235  0.1181  0.0687
14996W        W33850  15.253  13.172   9.891  0.1426  0.0266  0.0702
14997W        W33851   7.646  16.893  14.486  0.5974  0.0002 -0.0482
14998W        W33852   0.897   4.985  12.266  0.1852 -0.1824  0.1366
14999W        W33853  11.705  10.958  11.441  0.1292  0.3189 -0.1441
15000W        W33854  19.095   2.092  11.735  0.2869  0.0080  0.0686
15001W        W33855  17.342  14.395   1.193  0.4208  0.1113 -0.1536
15002W        W33856   9.226   8.988  14.644 -0.2278 -0.3066  0.0449
15003W        W33857  17.681  10.953   2.054 -0.0294 -0.0262 -0.0170
15004W        W33858   9.101   7.583  11.311 -0.0555 -0.3915 -0.2628
15005W        W33859   2.223  14.448   2.601 -0.1814 -0.2662  0.3034
15006W        W33860   9.700  12.976   1.882 -0.0063  0.2182 -0.1030
15007W        W33861  16.069   5.004  11.008 -0.5302 -0.1540 -0.1833
15008W        W33862   5.793   3.070   1.260 -0.1644  0.2719 -0.0478
15009W        W33863  11.466  17.863  13.307  0.0652  0.1067  0.1581
15010W        W33864  13.118   6.633  10.905 -0.1967  0.2114 -0.0935
15011W        W33865   4.669   7.957  13.143 -0.0955 -0.0736  0.1152
15012W        W33866   4.812   7.880  13.768  0.3073  0.2459  0.0396
15013W        W33867  15.259   5.031   3.198  0.2431 -0.3728  0.0180
15014W        W33868   9.958  15.932  14.783 -0.1090 -0.0954  0.0687
15015W        W33869   3.086   3.529   1.783  0.0579 -0.0430  0.1884
15016W        W33870   2.993   5.389   0.747 -0.4006 -0.2576 -0.0237
15017W        W33871  16.746   0.939  13.468  0.1647 -0.2819 -0.0887
15018W        W33872   9.416  14.309   4.118  0.0137  0.1760 -0.1867
15019W        W33873  14.127  12.234   0.267 -0.0184  0.0086 -0.0567
15020W        W33874   7.535  17.627   3.776 -0.0767  0.2297  0.2816
15021W        W33875  10.361   1.757  10.348  0.0462 -0.1705  0.3059
15022W        W33876  16.672   0.638  13.044 -0.1985  0.0174 -0.0814
15023W        W33877  12.094   4.106   0.542  0.2901 -0.2208  0.0114
15024W        W33878   0.382  12.075  11.141 -0.1486  0.0331 -0.0186
15025W        W33879  18.120  16.967   2.342  0.1104  0.0157 -0.2689
15026W        W33880   7.612  10.468  12.236 -0.2797  0.2526  0.1519
15027W        W33881  12.361   0.967   5.217  0.2293 -0.0895 -0.0073
15028W        W33882  14.130   3.871   1.563  0.5135 -0.0480 -0.0606
15029W        W33883  11.080   2.943  12.818 -0.1079 -0.2459  0.1336
15030W        W33884   7.878  11.005  14.544 -0.0064  0.0281 -0.0897
15031W        W33885   8.437   6.345  11.468 -0.1303 -0.2346 -0.0996
15032W        W33886  14.224   8.657   1.136  0.3148  0.0393  0.3076
15033W        W33887   8.949  10.590   0.564  0.0851  0.0598  0.1827
15034W        W33888   8.673  12.611  13.980  0.2935 -0.2461  0.0115
15035W        W33889   5.780  13.999   3.635 -0.0504  0.0479  0.1010
15036W        W33890   3.183   8.628  13.184  0.3992 -0.0937 -0.1115
15037W        W33891   0.098  13.628  11.236  0.0165  0.0128 -0.0508
15038W        W33892  18.705  18.676  13.075 -0.1455 -0.0204 -0.1934
15039W        W33893  14.510   7.493   2.156  0.0209 -0.4638  0.3423
15040W        W33894   9.078   8.112  12.428  0.0178 -0.1678  0.1654
15041W        W33895   5.408   0.240  13.436 -0.2354 -0.2171 -0.0053
15042W        W33896   8.847   1.136   2.649 -0.1975  0.1818 -0.1632
15043W        W33897   8.867   7.248   3.619  0.0564 -0.0958  0.1366
15044W        W33898  17.113   7.690  10.982  0.1843  0.2030 -0.0865
15045W        W33899   9.589  14.794  13.992  0.2798  0.1992  0.2298
15046W        W33900  13.388  16.804  12.000  0.0698  0.1832 -0.2018
15047W        W33901  12.161   0.296   2.515  0.1549  0.0061  0.2679
15048W        W33902   2.847  10.004  11.274 -0.1318 -0.2532 -0.0882
15049W        W33903   9.472   6.037   1.792 -0.1901 -0.2761 -0.3028
15050W        W33904   5.775  17.977  11.837 -0.1835 -0.0039  0.2966
15051W        W33905   1.498   0.568  13.403  0.1417 -0.1961 -0.0077
15052W        W33906  12.336  15.525  13.712  0.0311  0.0187 -0.0328
15053W        W33907   4.561  13.966   1.273 -0.0081  0.2585  0.2782
15054W        W33908  12.966  13.765   2.079 -0.1451  0.2472 -0.3192
15055W        W33909  16.986  12.453   1.757  0.1151 -0.1008  0.0505
15056W        W33910  14.817   0.451  12.428  0.1521  0.3169  0.3381
15057W        W33911  18.019  14.899   1.656 -0.1819 -0.2367  0.1512
15058W        W33912   1.970   5.760  14.115 -0.2349  0.0770 -0.2251
15059W        W33913   3.852   7.144  11.151 -0.1294  0.1193  0.0329
15060W        W33914   7.186  15.326  11.738 -0.0659  0.1942  0.0803
15061W        W33915  12.906   1.902   1.257 -0.1319  0.1263 -0.3463
15062W        W33916   3.171  15.179   0.816 -0.2815  0.1071  0.1138
15063W        W33917   6.500   9.806   0.642  0.3528  0.0001 -0.0992
15064W        W33918  15.733  15.967   1.089 -0.0023  0.1207 -0.1585
15065W        W33919  11.345  14.890   0.569  0.2588 -0.1593 -0.2072
15066W        W33920   5.096  16.897  13.909 -0.0307  0.1053  0.0577
15067W        W33921   2.994   8.419  12.446  0.3318 -0.1187  0.2138
15068W        W33922  18.526  16.941   1.259 -0.1580 -0.0623  0.0093
15069W        W33923  18.663  17.884  14.524  0.0122 -0.2425 -0.4741
15070W        W33924   9.927  15.788  11.371 -0.1725  0.1157  0.0754
15071W        W33925   4.803  12.665  14.372  0.1567 -0.1519  0.1268
15072W        W33926  15.529   0.188  12.152  0.0741 -0.1382  0.1353
15073W        W33927  16.867  17.445   4.308 -0.0663  0.3846 -0.1467
15074W        W33928  15.817  12.469   4.257  0.1136  0.0612 -0.1379
15075W        W33929  17.909  18.041  13.757  0.0470  0.3448  0.3064
15076W        W33930   1.971  16.609  11.639 -0.0928 -0.3221  0.3294
15077W        W33931   4.328   8.370   2.377  0.1458  0.3956  0.2685
15078W        W33932  11.666  14.269  11.235  0.1564  0.1262  0.0683
15079W        W33933   7.595   5.729  12.540  0.1544  0.1508 -0.0876
15080W        W33934  13.089  12.336  14.759  0.0698 -0.3344  0.0424
15081W        W33935   9.579   2.319   1.499 -0.0474  0.3189  0.1216
15082W        W33936  13.963  18.964  12.284  0.0370  0.0579  0.0401
15083W        W33937   0.590  15.354   3.136 -0.0825  0.2199 -0.2195
15084W        W33938   7.886   8.973   1.100  0.0126  0.1673 -0.3472
15085W        W33939   8.055   8.289  12.811 -0.0312 -0.2161 -0.2240
15086W        W33940   2.430  17.473  11.238  0.0188 -0.3071 -0.1250
15087W        W33941   6.501  13.432   1.994  0.2656 -0.1365  0.2149
15088W        W33942   1.899  18.582   1.244 -0.0969 -0.3683  0.0560
15089W        W33943  15.083   3.376  11.512 -0.1072 -0.2056 -0.3149
15090W        W33944  12.061  10.328  11.087 -0.2656 -0.3147  0.0228
15091W        W33945  10.657   2.015   2.089  0.2949  0.0021 -0.0970
15092W        W33946  16.571  14.146  11.588  0.1490 -0.0537 -0.0809
15093W        W33947   8.216   5.098   2.500  0.0004 -0.0775  0.3410
15094W        W33948   3.448  15.090  11.813  0.0475  0.2811  0.2659
15095W        W33949   7.554   9.947  11.175 -0.1667  0.0221  0.4691
15096W        W33950  15.934  11.365   1.477 -0.1262 -0.0382  0.4394
15097W        W33951   1.514   0.359  14.382  0.2258  0.0108 -0.2009
15098W        W33952   5.375  14.606   0.407 -0.1491  0.1918  0.1586
15099W        W33953  11.307  17.237   4.364  0.1947 -0.0217 -0.1091
15100W        W33954   9.949   9.436   1.513  0.2466 -0.0702  0.1779
15101W        W33955  10.944  14.416   2.906 -0.3154 -0.0350  0.1871
15102W        W33956   9.525   7.906  12.483 -0.1175  0.0936 -0.0053
15103W        W33957   5.786   0.391  13.946 -0.0717  0.0263  0.2409
15104W        W33958   8.455  15.698  11.746 -0.0852 -0.0592  0.1578
15105W        W33959   7.327  12.888   4.783  0.1020  0.2142  0.1833
15106W        W33960  14.729  18.639   3.867 -0.0019  0.0721  0.0684
15107W        W33961   3.258  17.067   0.603 -0.1319  0.3143 -0.0315
15108W        W33962  14.033  13.721   3.093 -0.2522  0.0501 -0.1182
15109W        W33963  11.089   0.925   2.992 -0.0079  0.0081 -0.0288
15110W        W33964  13.198   2.040   0.816  0.1254 -0.0093  0.0852
15111W        W33965   9.030   6.770  10.925 -0.2386  0.1138 -0.5521
15112W        W33966   8.811  13.330  11.220 -0.1177  0.0447  0.0206
15113W        W33967  16.946  10.307  11.749 -0.0274 -0.1189 -0.1784
15114W        W33968  12.117  12.512  11.869 -0.1758 -0.2025  0.0033
15115W        W33969  13.549  14.449  10.000  0.1053 -0.2299 -0.1465
15116W        W33970   7.816  10.760  12.864  0.1620 -0.1513  0.0820
15117W        W33971   8.426   9.723   1.796  0.0211  0.0110  0.1151
15118W        W33972   9.534  11.129  13.537 -0.0983 -0.0434  0.1178
15119W        W33973  10.061   0.936  12.182 -0.2419  0.1581 -0.1321
15120W        W33974   5.998   5.280  12.076  0.0769 -0.1815 -0.1730
15121W        W33975  14.156  12.164  11.635  0.0042  0.3249 -0.1589
15122W        W33976  11.876   7.545   3.846 -0.0880 -0.0902  0.0632
15123W        W33977  17.083  13.647  14.162  0.1342 -0.0550 -0.1055
15124W        W33978   8.174  11.839   3.202 -0.0109  0.1834  0.3560
15125W        W33979  13.796  10.393  13.886  0.3238  0.1774  0.0539
15126W        W33980   9.215  14.041  14.157 -0.2270 -0.0923 -0.0989
15127W        W33981   4.202   1.750   0.787 -0.0384  0.1095  0.0902
15128W        W33982   9.681  12.338   4.206  0.0237  0.0624 -0.0055
15129W        W33983   8.954   8.197  13.703 -0.0676 -0.1726 -0.1734
15130W        W33984  10.085   4.069   1.262 -0.0897 -0.1748  0.2304
15131W        W33985  15.156  12.212   1.253  0.4003  0.2230 -0.0957
15132W        W33986   3.557   5.459  13.554 -0.1327  0.4807 -0.0533
15133W        W33987   2.537   5.949  14.168 -0.0948 -0.1881  0.0633
15134W        W33988   6.558  14.765  12.532  0.0762 -0.0224  0.2545
15135W        W33989   4.471   9.865   3.369 -0.0749  0.1244 -0.2182
15136W        W33990  14.980   2.849  13.089 -0.2016 -0.0226  0.0955
15137W        W33991   4.112   6.435   4.940  0.0009 -0.1023 -0.3122
15138W        W33992   7.733  14.435  10.841 -0.3000 -0.1753  0.0336
15139W        W33993   9.965  15.834  11.880  0.0921  0.0898  0.0277
15140W        W33994   1.153   2.336   1.614 -0.0068 -0.0993  0.0073
15141W        W33995   3.372  18.262   4.143  0.2490  0.1515 -0.0318
15142W        W33996  16.287  14.401   3.953  0.0997 -0.0435 -0.0285
15143W        W33997  14.747   1.415   0.398 -0.0859 -0.1087  0.0633
15144W        W33998   4.036   8.866  14.274 -0.0045  0.0719 -0.0972
15145W        W33999   4.538   5.492  10.936 -0.0321 -0.2948 -0.0682
15146W        W34000   3.472  14.214   4.057 -0.0576 -0.1400  0.1624
15147W        W34001  13.004   3.772  13.734 -0.1307  0.2950  0.2262
15148W        W34002   5.842   3.594  13.540  0.1959  0.4390 -0.0894
15149W        W34003  15.161   8.255   2.872 -0.1911  0.1602  0.0629
15150W        W34004   2.236   9.587  13.617 -0.0726 -0.2426 -0.0945
15151W        W34005   2.896  18.064   4.001  0.2520 -0.0822 -0.1077
15152W        W34006  11.074   6.919  12.681  0.0530 -0.0334 -0.0493
15153W        W34007   1.612   9.616   1.358 -0.5403 -0.0168 -0.1692
15154W        W34008   4.872   8.563   0.594  0.1550  0.0014  0.0668
15155W        W34009  15.453   2.944   2.875  0.3319  0.3952 -0.2759
15156W        W34010  11.595  17.536   2.277 -0.6897 -0.4411  0.2183
15157W        W34011  19.030  10.720   1.518  0.0537  0.3531 -0.0461
15158W        W34012  11.558  18.183  11.812 -0.0805  0.1450 -0.3631
15159W        W34013  15.162  15.716  12.046  0.0920 -0.1178  0.0047
15160W        W34014  17.623   4.545   3.371 -0.3918 -0.0882  0.0442
15161W        W34015  11.396  15.889   3.967  0.1204  0.2790 -0.1283
15162W        W34016  12.222   2.476   3.830  0.1693 -0.1393  0.0415
15163W        W34017   9.010  16.549  10.575 -0.2539  0.0542  0.1732
15164W        W34018   2.677   6.560   2.602  0.1107  0.1612 -0.2339
15165W        W34019   2.334  16.117  14.426  0.0842 -0.1108  0.0303
15166W        W34020  12.080   3.697  11.250  0.2219 -0.2697  0.2162
15167W        W34021  10.975   4.514   4.503  0.0796 -0.2938 -0.1856
15168W        W34022   4.424  16.279   1.970  0.2759 -0.0654 -0.2603
15169W        W34023   5.924  18.860   5.485  0.0971  0.0567  0.1947
15170W        W34024   4.875   2.083  14.565  0.2354  0.1686 -0.0088
15171W        W34025   2.031   0.460  13.444 -0.2949 -0.0955 -0.0863
15172W        W34026  13.308  15.994  10.444  0.0121 -0.1159  0.3189
15173W        W34027  10.397   1.291   1.149 -0.3810 -0.0630 -0.1306
15174W        W34028  18.443   7.417   2.092 -0.2828 -0.3618  0.2614
15175W        W34029  12.821  18.691  11.801  0.0816  0.0496 -0.1609
15176W        W34030   5.380   0.148  10.278  0.1699  0.1920  0.0693
15177W        W34031   2.903   9.402  11.004  0.3105 -0.0977  0.0198
15178W        W34032   5.745   4.481  13.489  0.3311 -0.0588 -0.1266
15179W        W34033   5.032   5.225  14.229 -0.1239 -0.0792 -0.3050
15180W        W34034  15.799   5.454  10.346  0.0249  0.2148 -0.2419
15181W        W34035  17.632  13.214   1.950  0.1894 -0.1206 -0.1112
15182W        W34036   5.408   9.539   3.098 -0.5499 -0.1175  0.0208
15183W        W34037  11.122  14.314  12.251 -0.1900 -0.2325 -0.1012
15184W        W34038  15.273   4.576  14.396 -0.0614  0.3783  0.1912
15185W        W34039   1.552   8.102   0.266 -0.0683  0.2011 -0.0257
15186W        W34040  16.873  13.186   3.714  0.0515 -0.3187 -0.0941
15187W        W34041  11.409   4.491   0.500  0.0597 -0.3301  0.2043
15188W        W34042  15.684   8.296  14.469 -0.1430  0.1564  0.0571
15189W        W34043   2.502  16.483  13.524 -0.1057  0.0321 -0.1781
15190W        W34044   6.948  10.300  13.182  0.2840 -0.0942 -0.2074
15191W        W34045   2.992   1.823  12.111 -0.0921  0.0672 -0.1182
15192W        W34046   0.700   3.670   9.458  0.0564  0.0062  0.0417
15193W        W34047   6.953   0.488  12.860 -0.0497  0.2693 -0.1030
15194W        W34048   7.488   7.005  12.718  0.0163  0.2418  0.2556
15195W        W34049  19.098   2.382  14.220  0.2952 -0.0584  0.0545
15196W        W34050  11.256   8.402  12.250 -0.4870  0.0560  0.4164
15197W        W34051   4.074  14.336  11.934  0.2076  0.1249  0.2124
15198W        W34052  11.971   2.655   0.625 -0.2764 -0.0152  0.1093
15199W        W34053   0.716   2.925  10.850  0.0395  0.3517  0.1024
15200W        W34054   9.337   0.880   1.832  0.0974 -0.0903 -0.5953
15201W        W34055  12.599  14.706   3.951 -0.0301 -0.0677  0.2318
15202W        W34056   7.711   8.203   2.446  0.0645  0.0148  0.0393
15203W        W34057   3.065   9.058   1.195  0.2733  0.0297 -0.2492
15204W        W34058   1.171  14.996   0.491  0.1847  0.0005  0.0877
15205W        W34059  18.691   8.271  10.823  0.0784 -0.0919  0.0684
15206W        W34060   8.212   6.109  13.209 -0.2014 -0.3386 -0.0042
15207W        W34061   0.381  18.921   3.693  0.0093  0.1579 -0.0757
15208W        W34062   3.291   0.939  13.546 -0.2205  0.0663  0.0530
15209W        W34063  12.398   4.622   1.733  0.2379 -0.2342 -0.0807
15210W        W34064   0.831  18.393   4.866  0.0527  0.2103 -0.1844
15211W        W34065   3.246  10.737   0.544  0.0001  0.0794 -0.1102
15212W        W34066  15.671   5.536   2.938 -0.2796  0.1896  0.2289
15213W        W34067  14.593  16.460   3.452  0.0232  0.0520  0.0570
15214W        W34068   6.499   9.129  13.771  0.0719  0.0335  0.0537
15215W        W34069  16.894   5.546  13.291 -0.1966 -0.0411 -0.2282
15216W        W34070  14.255  10.583  10.779  0.2026  0.0395  0.1352
15217W        W34071  15.007  18.433   2.461 -0.0381  0.2295  0.2021
15218W        W34072  18.156  16.086   1.111  0.2269  0.1996 -0.0110
15219W        W34073  13.930  10.064  13.482  0.4516  0.0616 -0.1949
15220W        W34074   2.158   1.005   2.467  0.0217  0.2065 -0.1648
15221W        W34075   1.878  17.064  10.866  0.1828 -0.1910 -0.3623
15222W        W34076  15.094   9.491   2.537  0.1811  0.0732 -0.2430
15223W        W34077  11.035   2.433   0.479  0.1041  0.0332  0.0388
15224W        W34078  13.898   3.262  12.087 -0.1296  0.0329 -0.0169
15225W        W34079  13.372   5.362   4.289  0.1017  0.3486 -0.0728
15226W        W34080  13.047   0.680   4.467 -0.1551  0.2363 -0.3760
15227W        W34081   6.085   5.554  12.459  0.0705  0.2973 -0.0896
15228W        W34082  11.219  16.375  14.283 -0.0033  0.0353  0.2388
15229W        W34083   5.193  14.241  13.822 -0.0177 -0.0978 -0.1971
15230W        W34084   6.475   4.096   2.275 -0.4425 -0.2775  0.2861
15231W        W34085   7.821  11.237   0.300 -0.0405 -0.3601 -0.0337
15232W        W34086  18.288   8.938  14.191  0.1399  0.0950  0.1073
15233W        W34087  11.847   6.975   3.242 -0.0351 -0.0673 -0.0990
15234W        W34088  18.138   7.203   1.504 -0.0325  0.0906 -0.1494
15235W        W34089   0.499  16.689   2.050  0.1886  0.1326  0.0713
15236W        W34090  17.615   9.526  11.535 -0.0962 -0.2228 -0.2650
15237W        W34091  12.185   0.216  13.915  0.1727 -0.1347 -0.0595
15238W        W34092   0.850   9.354  12.651  0.1293 -0.2232  0.2615
15239W        W34093  18.858  10.282  13.875 -0.1537 -0.3644 -0.0731
15240W        W34094   6.126  11.219  12.887  0.0575  0.2288  0.0609
15241W        W34095   2.508  11.625   0.190  0.0003 -0.1373  0.2496
15242W        W34096   4.983  10.318   1.587  0.2730 -0.3730 -0.0060
15243W        W34097  17.017  15.125  13.924  0.1105 -0.0010  0.3505
15244W        W34098  16.052   0.972   0.232  0.0968  0.1394 -0.0878
15245W        W34099  14.165   6.953   3.895  0.1748 -0.1446  0.2208
15246W        W34100  17.677   1.378   4.060  0.0139 -0.0295  0.2288
15247W        W34101   8.706  14.164   9.356 -0.1694 -0.0785  0.3945
15248W        W34102  17.054   0.381  14.019 -0.0549  0.1761  0.0313
15249W        W34103   1.733  18.265  12.308 -0.4359  0.2415 -0.1596
15250W        W34104   0.624  17.869  11.211  0.0784 -0.0273 -0.1751
15251W        W34105  12.270  16.032   0.615  0.1530  0.2758  0.0292
15252W        W34106  16.745   3.372  14.314  0.2620  0.3862 -0.0868
15253W        W34107  13.294   8.160  14.251 -0.1478  0.0727 -0.1177
15254W        W34108  14.745  17.698   3.104 -0.2206  0.2646  0.0314
15255W        W34109  17.695   8.572  13.484 -0.1437  0.2296 -0.0551
15256W        W34110   4.770  13.756   3.881 -0.0259 -0.0801  0.3186
15257W        W34111  11.596  10.217   1.352  0.2265 -0.0203  0.0073
15258W        W34112  12.464   6.041   2.924  0.0337  0.1775  0.0574
15259W        W34113  12.438  10.117   3.731 -0.3032 -0.4771 -0.0003
15260W        W34114   3.796  13.829   0.679  0.2733  0.1396 -0.0299
15261W        W34115   7.888   7.962   1.537 -0.0449 -0.0293  0.1747
15262W        W34116   7.779   6.322   1.963  0.1540 -0.0588 -0.0694
15263W        W34117   8.002  11.139   4.429 -0.0432  0.2001 -0.0815
15264W        W34118   3.170  16.007   3.439  0.2154  0.2184 -0.1569
15265W        W34119   3.124   7.451   0.047 -0.2662  0.0141 -0.0280
15266W        W34120  10.697   3.870  10.858 -0.2555  0.2357 -0.1937
15267W        W34121   4.843  11.143  10.840 -0.1280 -0.1061 -0.1669
15268W        W34122  18.629   6.548   4.126  0.2494  0.0020 -0.6334
15269W        W34123  13.325   7.684   1.449  0.1088 -0.1578  0.1292
15270W        W34124  16.716  18.059  12.654 -0.2445  0.0487 -0.0234
15271W        W34125   9.468   2.291  11.434  0.1246 -0.3198  0.2792
15272W        W34126   6.465   5.448  11.265 -0.1280  0.0690  0.1360
15273W        W34127  10.742  10.902  12.413  0.0168 -0.2184 -0.1702
15274W        W34128   6.671  13.182   2.871  0.3379 -0.1739  0.2197
15275W        W34129  18.862   6.487  11.435  0.0869  0.1282 -0.3326
15276W        W34130   8.289   4.035   4.499 -0.0854  0.1153  0.1077
15277W        W34131  13.980   5.451   3.447 -0.1697  0.0507  0.1584
15278W        W34132  11.955   0.007   1.558  0.1194  0.0797  0.2040
15279W        W34133  13.942   8.939   1.494  0.0213  0.0025  0.2258
15280W        W34134   5.323  12.672  11.110 -0.1122  0.0908  0.0359
15281W        W34135   4.589   8.449  12.004  0.1834  0.1253  0.1978
15282W        W34136  11.484   0.913  13.682 -0.1436  0.0259  0.1587
15283W        W34137  11.462  13.852  10.959 -0.3560  0.4073  0.0690
15284W        W34138   8.676   7.037  13.445  0.0681 -0.1296  0.0226
15285W        W34139  11.628   1.848   0.291 -0.0691  0.0086 -0.0864
15286W        W34140   3.002  14.441  12.294 -0.0483  0.0695  0.0844
15287W        W34141   5.837   5.933   3.616 -0.0853 -0.0156  0.1462
15288W        W34142  14.945  15.278  13.351  0.3136 -0.1414  0.0308
15289W        W34143   5.462   4.711   3.397 -0.1056 -0.1963 -0.2985
15290W        W34144  17.987  10.720  12.966 -0.3055  0.1060 -0.0603
15291W        W34145   4.045  13.573   2.126 -0.1555  0.2640 -0.0760
15292W        W34146   7.336  16.498  12.843 -0.3365  0.1563 -0.0561
15293W        W34147   7.064  17.506  13.418 -0.0031 -0.0669 -0.0047
15294W        W34148   2.702   4.948   3.647 -0.0722  0.0720  0.0395
15295W        W34149   7.683   4.840   3.605  0.0413 -0.1843 -0.1942
15296W        W34150   3.547   4.678   1.249  0.4975  0.2736 -0.2368
15297W        W34151  14.547  11.486  10.584 -0.1620 -0.0981 -0.2514
15298W        W34152  18.434   1.728   4.817 -0.0154 -0.1273 -0.5485
15299W        W34153   2.931  17.330   4.611 -0.0104 -0.2465  0.0578
15300W        W34154  16.872   6.989   1.776  0.0175 -0.0921  0.0672
15301W        W34155   6.549   2.994   2.442 -0.0370  0.1192  0.0440
15302W        W34156  15.607   4.951  11.247  0.4271  0.0226  0.0551
15303W        W34157   7.519   1.352   2.382 -0.1737 -0.0203 -0.3465
15304W        W34158  18.797   8.869   1.852 -0.2855 -0.3407  0.1383
15305W        W34159  15.341   5.952  13.151 -0.1243  0.2462 -0.2127
15306W        W34160   4.394   8.874  14.708 -0.4462  0.2489  0.0280
15307W        W34161   7.809   2.883  13.256  0.2149  0.0499  0.0280
15308W        W34162   3.957   8.060   0.991 -0.1174  0.1464 -0.2666
15309W        W34163   2.681   2.739   1.462  0.4951  0.2305  0.0156
15310W        W34164  18.154  11.481  10.944  0.3878  0.0856  0.1439
15311W        W34165   3.359  12.911  12.564  0.0360 -0.1734 -0.1013
15312W        W34166   1.337  10.603   3.453  0.0153  0.3743 -0.1568
15313W        W34167   3.364   1.542   4.149 -0.4182 -0.3121  0.3766
15314W        W34168   8.308   0.703  13.640  0.0643 -0.4414  0.2212
15315W        W34169  15.301   3.709  10.782  0.3344  0.0249 -0.0011
15316W        W34170   8.685  17.084   0.665  0.0455 -0.0398 -0.2506
15317W        W34171  14.531  13.722   2.352 -0.1520  0.2250 -0.0586
15318W        W34172   8.572  11.608   2.837 -0.2505 -0.1339  0.0134
15319W        W34173  17.557  10.087   3.832  0.1289  0.1245 -0.3632
15320W        W34174  18.284  11.273  10.284 -0.0175 -0.0942 -0.4037
15321W        W34175  18.863   3.862   3.765  0.3678  0.1241  0.1527
15322W        W34176   0.812  18.131  10.685  0.1527  0.0529 -0.2004
15323W        W34177   1.851  10.993   1.106 -0.2349  0.0910 -0.0329
15324W        W34178  12.103   7.259  12.140  0.1593 -0.1426 -0.1139
15325W        W34179   2.908   9.598   3.229  0.2700  0.2741  0.3866
15326W        W34180   5.276   1.039  10.616  0.3417 -0.4608  0.0834
15327W        W34181  17.001   0.119   0.160 -0.2479 -0.4850  0.0180
15328W        W34182   8.290   5.146  12.750 -0.1572 -0.1448  0.3627
15329W        W34183  15.850  17.624  11.649 -0.1046  0.3113 -0.0556
15330W        W34184   6.002  16.616   3.970 -0.1404 -0.1043  0.5280
15331W        W34185   7.306  18.002   2.008 -0.3095  0.0522  0.1419
15332W        W34186  10.649  18.242  12.561 -0.4291  0.2132 -0.3627
15333W        W34187   9.135   8.694  13.140 -0.0569  0.0699  0.1389
15334W        W34188  18.720   1.171   5.026 -0.3442  0.2478  0.0716
15335W        W34189   8.346   3.596   3.611 -0.1231 -0.0281 -0.2757
15336W        W34190   6.441  14.728  13.776  0.2970 -0.0341  0.3626
15337W        W34191  10.596  10.859  13.958 -0.1443  0.6489  0.0728
15338W        W34192   4.517   1.756   3.213 -0.2706  0.0853  0.0941
15339W        W34193  17.967  17.047  10.886 -0.6323  0.2031  0.0936
15340W        W34194  14.717  13.082  14.278 -0.1459  0.0222  0.1040
15341W        W34195  18.766  18.694   2.586 -0.0550  0.0719  0.1072
15342W        W34196  18.945  13.892   2.453  0.1901  0.2795  0.0390
15343W        W34197  11.662  12.058  13.341  0.1176 -0.2219 -0.0689
15344W        W34198   4.302  13.304  13.547 -0.1301 -0.3481  0.1934
15345W        W34199  11.099  11.312   2.168 -0.2723 -0.1087 -0.0284
15346W        W34200   9.009   0.702  10.945 -0.1777  0.1217 -0.2359
15347W        W34201   1.716  18.013  13.982 -0.1222 -0.3076  0.1657
15348W        W34202   8.999   0.611  11.697 -0.0614  0.0313 -0.1252
15349W        W34203   5.709   7.063   1.532  0.1281 -0.0553 -0.1915
15350W        W34204  14.833   2.684   9.461 -0.0174 -0.1006 -0.4436
15351W        W34205   4.049  15.372   4.167  0.1735  0.2923 -0.0019
15352W        W34206  16.415   9.528  13.019  0.1754  0.1409  0.2096
15353W        W34207  17.294  14.489   2.255  0.0463  0.0284 -0.1660
15354W        W34208   3.359   8.684   0.437 -0.0525 -0.0111 -0.2146
15355W        W34209   7.188   9.262   1.740 -0.0562  0.2449  0.0107
15356W        W34210   1.405  17.817  10.576 -0.0073 -0.2008  0.3190
15357W        W34211  10.596  15.781  12.451 -0.0887  0.2016 -0.3339
15358W        W34212   9.418  10.637   5.267  0.1154 -0.0515 -0.1669
15359W        W34213  12.109  16.181   1.054 -0.0780 -0.0047 -0.1801
15360W        W34214  11.476   2.049   9.900  0.0293 -0.0355 -0.1145
15361W        W34215  10.183  14.831  12.336 -0.2444  0.4269  0.1625
15362W        W34216   0.382   3.642  13.586  0.1831  0.2056 -0.1079
15363W        W34217   0.492   7.355   3.436 -0.0937 -0.0379 -0.1137
15364W        W34218   8.764  11.335  12.449  0.2267 -0.1374 -0.3367
15365W        W34219   5.801   0.041   3.874  0.1606  0.3810 -0.0019
15366W        W34220   2.396   6.241   4.363  0.3525  0.0820 -0.0181
15367W        W34221  10.434   2.430   3.033  0.0090 -0.0426  0.2213
15368W        W34222   7.175  14.838   0.834  0.2060 -0.2294 -0.1165
15369W        W34223  18.474  15.803   3.783  0.2868  0.3286 -0.1998
15370W        W34224   4.132  13.196   1.778  0.0148 -0.1775 -0.1274
15371W        W34225  14.289   6.333  12.408  0.0702 -0.2122  0.2178
15372W        W34226   5.056   1.695   3.327  0.0928 -0.3227 -0.0101
15373W        W34227   8.642  11.220   3.937 -0.0247  0.0948  0.0102
15374W        W34228  12.188  16.201  10.056 -0.3998 -0.1840 -0.0163
15375W        W34229  15.685   0.628  13.295 -0.2874  0.2132  0.2356
15376W        W34230  17.304  12.808   1.907 -0.1157  0.0756 -0.2249
15377W        W34231   9.485  15.960   1.526 -0.1075 -0.1651 -0.0369
15378W        W34232   3.616   2.383   0.563  0.2098 -0.0612  0.4817
15379W        W34233   1.690  10.269  14.217  0.2781 -0.0721  0.0432
15380W        W34234  15.036  10.996   0.340 -0.0350 -0.3090  0.0003
15381W        W34235   9.867  16.779  10.396 -0.2293 -0.3122 -0.0135
15382W        W34236   8.630   5.342  13.196 -0.0728  0.1377  0.1120
15383W        W34237   5.523  16.105  11.290 -0.0540  0.0582 -0.0331
15384W        W34238   9.956   0.123   4.112 -0.1477 -0.0618  0.0471
15385W        W34239  18.724  14.084   2.020 -0.0554  0.0420 -0.0554
15386W        W34240  10.916  11.579  10.117  0.0353  0.0724 -0.2342
15387W        W34241   7.520   5.866  12.066  0.1669 -0.1650  0.1571
15388W        W34242   8.667   7.600   3.928  0.0147 -0.1169 -0.4036
15389W        W34243   0.344   1.565   3.875 -0.1901 -0.1388  0.3435
15390W        W34244  14.407   1.886  12.239 -0.1018 -0.0183  0.1998
15391W        W34245   2.117  15.012  13.703 -0.0936  0.0912 -0.1227
15392W        W34246   7.186   6.471   3.090  0.0613 -0.1322 -0.1857
15393W        W34247   2.560   6.856   4.213 -0.0339  0.1974  0.1628
15394W        W34248   8.187   1.776   1.901  0.0746 -0.4644  0.1098
15395W        W34249   5.265  17.689  13.832 -0.0622 -0.3068  0.1033
15396W        W34250  17.547   2.307   0.850  0.0322 -0.0436 -0.1964
15397W        W34251  16.147   6.947  14.215 -0.3393 -0.0817  0.0702
15398W        W34252   8.051   4.993  14.472  0.1518  0.0114  0.0369
15399W        W34253  15.890  17.198  14.124  0.1874 -0.4381 -0.2783
15400W        W34254   3.714  17.201   3.514  0.1737 -0.1924 -0.4580
15401W        W34255   6.696   2.385  12.399 -0.0375  0.0219 -0.1229
15402W        W34256   6.557   9.126  12.304  0.1568  0.1019  0.0398
15403W        W34257  16.554   4.762   3.771  0.2974  0.3911 -0.1603
15404W        W34258   5.886   0.807  13.599 -0.1514 -0.2350  0.0805
15405W        W34259   0.589   7.611  13.794  0.1065  0.0638 -0.3907
15406W        W34260  17.509  12.752  12.948  0.1626  0.3337 -0.1325
15407W        W34261  17.158   3.613  12.049  0.1523  0.1469  0.0201
15408W        W34262  18.021   8.019   1.871 -0.2267 -0.0723 -0.1265
15409W        W34263  14.987  10.390   2.350 -0.2157 -0.0673 -0.2268
15410W        W34264   4.036  12.609  13.873  0.0372  0.1428 -0.0127
15411W        W34265   7.508   3.778  13.324 -0.1655  0.3464  0.1109
15412W        W34266  13.450  15.098  12.409 -0.1268  0.1943 -0.2890
15413W        W34267   7.219  13.758   2.350  0.3674  0.0254  0.0072
15414W        W34268   7.556  12.484   1.676 -0.5557  0.0005 -0.0439
15415W        W34269   7.586   6.680   0.540 -0.0741  0.1381  0.0170
15416W        W34270   9.232  13.057   2.081 -0.1766 -0.0189  0.1299
15417W        W34271   4.873  12.340   2.319  0.1776 -0.0797 -0.1734
15418W        W34272   9.846   6.075  14.475 -0.1445 -0.0260 -0.0184
15419W        W34273   9.796  17.403   5.136  0.1384 -0.0025  0.0381
15420W        W34274  16.613   5.933   0.274 -0.1575  0.0072  0.0678
15421W        W34275  14.838   5.148   0.716 -0.1884  0.1784 -0.1952
15422W        W34276   4.804   5.381   5.490  0.1112  0.3298  0.0531
15423W        W34277   5.583   5.241   1.472  0.3638 -0.3805  0.1886
15424W        W34278  15.113   8.973   1.214  0.0897  0.1715  0.0169
15425W        W34279   1.231  17.076  11.781 -0.1901  0.0191  0.0237
15426W        W34280  14.148  15.869  10.914 -0.2263  0.0403 -0.0654
15427W        W34281   4.713   8.500  12.949  0.0946  0.1403  0.1806
15428W        W34282   8.512  12.943  12.998 -0.0256 -0.1630 -0.0080
15429W        W34283  16.540   8.558  11.159  0.0291  0.1899  0.2456
15430W        W34284   8.551  16.760  14.052  0.0575  0.1903 -0.1619
15431W        W34285   2.617  14.406  12.628 -0.2187 -0.2030  0.1760
15432W        W34286  15.081   2.450  11.140 -0.0719  0.3292  0.1113
15433W        W34287   1.271  12.134   1.347  0.0251  0.2535 -0.0932
15434W        W34288   0.274  13.881   1.556  0.0841  0.3396 -0.0724
15435W        W34289   5.852  16.868   3.560 -0.1577 -0.1637 -0.0248
15436W        W34290  17.804   2.048  14.509  0.0641 -0.0874 -0.0567
15437W        W34291   3.424  13.115  13.929 -0.0135  0.1519  0.3309
15438W        W34292  16.142  15.931   5.125 -0.3404  0.1262  0.0116
15439W        W34293  16.159  11.931  13.972 -0.0691  0.1278  0.2549
15440W        W34294   3.307  10.023  10.956 -0.2618  0.1903 -0.1950
15441W        W34295   3.757  18.088  10.300 -0.1450 -0.1977 -0.3018
15442W        W34296  10.771   7.980   0.826 -0.1822  0.1181 -0.1527
15443W        W34297   7.878   6.396  13.423 -0.5097  0.0872 -0.0911
15444W        W34298   3.325  15.673   3.101  0.3937 -0.0567 -0.1524
15445W        W34299   2.608   6.019  10.827 -0.0069 -0.2437 -0.0402
15446W        W34300  14.120   9.577  10.811 -0.1721  0.2262 -0.1331
15447W        W34301  13.501   8.640   2.800 -0.1304  0.1949  0.1385
15448W        W34302   4.964  10.010  13.989  0.1089 -0.0619  0.0807
15449W        W34303   3.963   8.234  12.322  0.2017  0.0108  0.0161
15450W        W34304   7.031  17.214  14.663  0.1653 -0.1936  0.1430
15451W        W34305  11.511  13.198   2.383  0.1350 -0.4938 -0.0071
15452W        W34306   4.295  18.224  13.709  0.3236 -0.0766  0.2765
15453W        W34307  11.137  10.358  11.225  0.4425 -0.2431  0.2536
15454W        W34308   9.823  15.856  13.245  0.0673 -0.0714 -0.0737
15455W        W34309   9.521   1.901   2.957  0.0928  0.1718 -0.3038
15456W        W34310   8.796  11.257   2.513 -0.0872  0.1480  0.0523
15457W        W34311   4.447  10.904  11.104  0.1423 -0.0553 -0.1234
15458W        W34312  15.064   1.569  13.345 -0.3895 -0.0528 -0.1669
15459W        W34313   7.935  13.309  11.811 -0.2117 -0.0368  0.0396
15460W        W34314  15.260  11.266  14.397 -0.0305 -0.2990  0.0353
15461W        W34315   2.802   5.707  14.482 -0.1752 -0.1002 -0.2390
15462W        W34316   4.981   8.237   3.117 -0.2734 -0.1902 -0.0085
15463W        W34317   0.949   0.012   3.962 -0.2661  0.1227 -0.0046
15464W        W34318  16.508   1.759  11.577  0.1389  0.1175  0.3406
15465W        W34319   9.115   9.632   1.254 -0.2808 -0.0854  0.1195
15466W        W34320   1.662  15.461   4.122 -0.0735 -0.2250  0.0525
15467W        W34321  15.431   4.224   3.492 -0.2614 -0.3744  0.1528
15468W        W34322  17.266  17.974   3.260  0.0444 -0.1879  0.2578
15469W        W34323  17.789   9.655   2.397  0.1905  0.1564  0.1949
15470W        W34324   1.934  13.331  11.296  0.2062 -0.0099  0.1290
15471W        W34325   3.023   4.112  14.451  0.0639 -0.0338 -0.1169
15472W        W34326  10.524   5.330   0.230 -0.0721  0.1271 -0.0065
15473W        W34327  12.230   6.586  10.356  0.1380  0.0734  0.2190
15474W        W34328  17.369   7.398  14.335  0.1973 -0.0739  0.0459
15475W        W34329   3.969   5.763   0.770  0.0626  0.1497 -0.2052
15476W        W34330   7.671   7.242   2.152  0.0230  0.2114  0.0012
15477W        W34331  12.843   1.537  10.605 -0.2304 -0.0753  0.1989
15478W        W34332   9.768  10.367  13.980 -0.0315  0.2390  0.0796
15479W        W34333   3.107   7.318   2.309 -0.0876 -0.3090 -0.0284
15480W        W34334   3.810  13.334  12.494 -0.0071 -0.0685 -0.3262
15481W        W34335  10.622   0.257  13.007 -0.1968  0.0096  0.1195
15482W        W34336   6.230   6.970   3.697  0.1500  0.2581  0.0769
15483W        W34337  15.333   8.855   0.724  0.2368  0.2089  0.0069
15484W        W34338  17.344  14.900  13.209  0.0059  0.1497  0.2494
15485W        W34339  11.262   4.606   1.159  0.1222  0.4597  0.0640
15486W        W34340   2.659   4.095   1.242 -0.2143  0.0265 -0.5106
15487W        W34341  13.487   2.221   3.384  0.0802 -0.2510  0.0602
15488W        W34342   4.305   3.100  13.909  0.1718  0.0468 -0.1434
15489W        W34343  14.057  18.447  12.180 -0.2035 -0.0119 -0.0216
15490W        W34344   2.985   8.779   3.820  0.0142  0.3286  0.3725
15491W        W34345  11.822   2.801  12.478  0.0825 -0.1209 -0.2163
15492W        W34346  11.847   7.059   3.772 -0.2223 -0.1673  0.2492
15493W        W34347   2.696   2.252  12.287 -0.0792 -0.2052 -0.2486
15494W        W34348   7.270  15.184  13.033  0.1471 -0.0514 -0.0666
15495W        W34349  18.164   0.046   0.608  0.1287 -0.2172 -0.2439
15496W        W34350  13.127  11.162   1.068 -0.1014  0.0189 -0.1375
15497W        W34351   4.330  13.409   1.139 -0.0681 -0.1498 -0.1558
15498W        W34352  15.994  12.074   4.585 -0.0682  0.0513  0.0803
15499W        W34353  11.945  10.130  14.766  0.0311 -0.1911  0.2558
15500W        W34354  15.271   5.079   2.577 -0.1096 -0.1284 -0.0018
15501W        W34355   7.885   3.162   9.723  0.1607 -0.2499  0.3578
15502W        W34356  11.318  16.071   1.505 -0.1402 -0.0745  0.2651
15503W        W34357  10.778  17.501   0.671 -0.0939 -0.0826 -0.0985
15504W        W34358   4.288  18.751   0.015 -0.2021  0.2470  0.0439
15505W        W34359  11.932   8.224   3.885 -0.1537 -0.1575  0.2110
15506W        W34360   0.438  19.084   9.444 -0.1005 -0.0252 -0.1784
15507W        W34361  13.567   8.735  12.382  0.1708 -0.0218 -0.0807
15508W        W34362   7.252  14.346   0.595 -0.1197 -0.2742  0.1451
15509W        W34363  13.261   1.450   2.326 -0.2948  0.0537 -0.3237
15510W        W34364  14.820   5.060   1.627 -0.0386  0.0076  0.0685
15511W        W34365   3.521   5.759  10.184  0.0986  0.0608  0.2703
15512W        W34366  12.445  18.101   2.559  0.2782 -0.2162  0.3912
15513W        W34367  17.471  18.684  11.216 -0.0321  0.1409 -0.2963
15514W        W34368  12.702   2.096   3.172 -0.3131  0.1190 -0.2703
15515W        W34369  12.586  13.282  12.843 -0.0469  0.1444 -0.3917
15516W        W34370  14.657  16.638   1.457 -0.0836  0.1302 -0.1231
15517W        W34371  18.941  10.922   2.540  0.1245 -0.1330 -0.2393
15518W        W34372   7.503   3.700   9.627  0.4616  0.1400  0.1260
15519W        W34373  11.387  12.815   1.164 -0.2023 -0.0840 -0.0985
15520W        W34374  17.737   7.561   4.679 -0.1791 -0.1878 -0.1938
15521W        W34375   7.392   4.987  13.641 -0.1067 -0.2114 -0.0779
15522W        W34376   6.662  11.007   1.488  0.0076  0.0965 -0.1136
15523W        W34377   3.222  13.245  12.205  0.1251 -0.0465  0.4948
15524W        W34378  13.156   9.310  12.575 -0.0445 -0.0360  0.2028
15525W        W34379  14.019  13.169   2.725 -0.0561  0.2259  0.1756
15526W        W34380  12.935  13.734  12.026  0.0482 -0.0017 -0.0962
15527W        W34381   3.950   3.499   2.196  0.3653 -0.1795 -0.0070
15528W        W34382  11.659  14.060   1.856 -0.0640  0.1500 -0.2179
15529W        W34383  18.335   7.927  11.552  0.2421  0.0384 -0.3747
15530W        W34384   9.507  11.741  11.896 -0.1535 -0.1723  0.1197
15531W        W34385   7.255  15.239   2.118 -0.0187  0.2108  0.1699
15532W        W34386   7.574   7.967  11.669  0.2490  0.0123 -0.0480
15533W        W34387   5.041   4.605   3.584 -0.1633 -0.2913  0.0995
15534W        W34388   6.165   0.211   1.917  0.0691  0.2655  0.0690
15535W        W34389   4.246  11.180   4.365 -0.0574 -0.2683 -0.2866
15536W        W34390  16.330   0.001   1.981  0.1683 -0.3817  0.3326
15537W        W34391  18.363  13.013  14.691 -0.2271 -0.0894  0.0859
15538W        W34392  13.081   7.911  13.005 -0.2140  0.0977 -0.0285
15539W        W34393  17.668  18.811   1.734  0.1676  0.0529 -0.1210
15540W        W34394  17.514   1.398   3.449 -0.1092  0.1923  0.0444
15541W        W34395   4.716   6.361   2.313  0.0789 -0.0422 -0.3798
15542W        W34396   7.627   2.846  10.019  0.0227 -0.2866 -0.0075
15543W        W34397   9.802   5.031  14.398 -0.2225  0.0234  0.1540
15544W        W34398  10.487   9.558  12.429  0.0652 -0.2646 -0.0752
15545W        W34399   1.512  15.065   0.115 -0.0674 -0.1370  0.1461
15546W        W34400  14.199   1.638   1.288  0.2090 -0.2387 -0.1048
15547W        W34401   7.052   3.572  10.881 -0.1346  0.2321 -0.2525
15548W        W34402  11.992  13.856  12.378  0.0615  0.1371  0.0332
15549W        W34403  12.382  19.153  12.480 -0.1062  0.1080 -0.0979
15550W        W34404  16.191   0.283   5.073 -0.1173  0.3125 -0.1265
15551W        W34405   3.442  18.912  12.823  0.0491  0.2993  0.0760
15552W        W34406  14.865  18.378  11.160  0.1717 -0.3312  0.0701
15553W        W34407   5.389   8.583  11.048 -0.3095 -0.0901 -0.1080
15554W        W34408  12.719   1.077   3.150 -0.2627  0.0489  0.0737
15555W        W34409  16.256  14.824   1.720  0.2333  0.1265 -0.2147
15556W        W34410   1.403  18.672   3.110 -0.0576 -0.0034  0.0620
15557W        W34411  17.695   8.873  13.977 -0.1737  0.1613  0.3078
15558W        W34412   0.656  10.467   3.097  0.0198  0.1355  0.1036
15559W        W34413   4.992   7.730   1.353  0.3666 -0.1537  0.2634
15560W        W34414  17.765  14.175   3.501  0.2012  0.0139 -0.0123
15561W        W34415  10.110   8.531  14.013  0.0848 -0.0606  0.0915
15562W        W34416  14.681  18.604  12.142  0.0564 -0.0358 -0.6589
15563W        W34417  18.392   2.696   0.223  0.1533 -0.0257 -0.2491
15564W        W34418  17.266   9.200   1.587 -0.1963  0.1561  0.0809
15565W        W34419  17.851   8.735  12.048 -0.4256  0.0968  0.0625
15566W        W34420   3.107  14.194  14.387  0.0265  0.2101 -0.2101
15567W        W34421   9.489  13.069  11.644 -0.1473  0.0928  0.1998
15568W        W34422   6.019   0.049   0.423  0.2069 -0.0518 -0.3550
15569W        W34423   9.206  14.513   2.444  0.0334  0.1892  0.1784
15570W        W34424  15.655  15.185   3.539  0.2855 -0.2686 -0.1660
15571W        W34425   7.186   3.986   2.728 -0.1405 -0.2568 -0.1826
15572W        W34426   4.276   3.030  12.357  0.2137 -0.1180 -0.3865
15573W        W34427   4.349   1.605  13.864  0.3312  0.1183  0.0300
15574W        W34428   4.597   3.827  10.713 -0.2715  0.0644 -0.1447
15575W        W34429  14.896  15.484   2.721 -0.2572 -0.0717 -0.2110
15576W        W34430   4.814  15.297   0.057 -0.2129  0.1201 -0.0515
15577W        W34431   3.735   0.201  12.243  0.2469 -0.0962 -0.0736
15578W        W34432  10.643  15.031  11.885  0.1044 -0.1866 -0.1014
15579W        W34433  16.722  18.466   3.980  0.1981 -0.0475  0.1601
15580W        W34434  13.919  19.009  11.307  0.1731  0.2486 -0.2296
15581W        W34435   5.049   2.821  13.515  0.0737 -0.0165  0.1922
15582W        W34436  16.668   6.241  14.437  0.3150 -0.2897 -0.2343
15583W        W34437  11.953  12.434   2.553 -0.1931 -0.0413 -0.1749
15584W        W34438  10.358  16.762   1.020 -0.0301  0.2312 -0.1272
15585W        W34439   9.313  13.482  11.399 -0.1570  0.2547 -0.2566
15586W        W34440  16.619   8.975   1.547 -0.1681 -0.2382  0.0482
15587W        W34441  16.228   2.094  13.032  0.0184 -0.2237 -0.0026
15588W        W34442  14.888  13.794   2.882  0.1686 -0.1838  0.1667
15589W        W34443  11.998   7.392   0.463 -0.0596  0.5109 -0.0406
15590W        W34444  12.608  17.190  14.726 -0.0226 -0.0862 -0.0545
15591W        W34445   9.710   9.578  12.040  0.0254  0.0663  0.0207
15592W        W34446   6.988   7.564   2.665 -0.1188  0.4260 -0.2566
15593W        W34447  12.081   6.388   1.170 -0.0613 -0.1234  0.2310
15594W        W34448   5.856   1.060  10.550  0.1073  0.0356 -0.3032
15595W        W34449   4.289   6.034  13.031 -0.0662  0.0888  0.1297
15596W        W34450   4.367  14.089   1.837  0.2172  0.0374 -0.0282
15597W        W34451  16.851  18.271   3.222  0.0626 -0.1989  0.0311
15598W        W34452   0.193   7.445   1.608 -0.0086 -0.0987 -0.1309
15599W        W34453  13.256  17.717  10.377 -0.0735 -0.1201  0.0430
15600W        W34454   8.956   6.130   1.697  0.3339  0.0916  0.1706
15601W        W34455  17.878   6.560  11.896  0.2568 -0.1467  0.0460
15602W        W34456   2.302  17.950  14.420 -0.0478  0.0677 -0.2082
15603W        W34457   8.151  12.185   0.762  0.1251 -0.1016 -0.1440
15604W        W34458  10.098   5.376   4.021  0.2309 -0.0985 -0.0639
15605W        W34459   6.658   5.012  14.406 -0.2911 -0.3304 -0.1728
15606W        W34460  11.188   5.018  14.495 -0.3532 -0.2726 -0.2260
15607W        W34461  18.021  15.135   2.173 -0.1810  0.1526  0.0009
15608W        W34462   2.957  10.698   0.100 -0.2167 -0.0379  0.2084
15609W        W34463  18.519  13.751   1.185  0.0342 -0.0332  0.0320
15610W        W34464  10.461  17.683   1.579 -0.1711 -0.0846 -0.2397
15611W        W34465  17.049  13.156  14.087 -0.1420  0.3812 -0.1976
15612W        W34466  12.874   4.239  14.741  0.1008  0.0989 -0.0491
15613W        W34467   9.830  13.752  12.498  0.1917  0.0604 -0.0259
15614W        W34468   9.084  17.377  12.795  0.0043 -0.1005  0.1190
15615W        W34469   9.657  12.811   0.866  0.2077 -0.1549 -0.0848
15616W        W34470  13.785  14.951   0.239  0.1411  0.0317  0.1959
15617W        W34471  18.696   8.684  13.983  0.0011  0.1448 -0.0390
15618W        W34472   3.913   8.986  12.830  0.0184  0.0753 -0.1478
15619W        W34473  14.900   0.528  10.583 -0.0073  0.2307  0.0302
15620W        W34474  11.300  14.664  10.475  0.1562 -0.0777  0.0052
15621W        W34475  14.327  10.567  12.776  0.0975  0.1097 -0.0904
15622W        W34476   3.148   4.035   1.433  0.0534 -0.0110 -0.0054
15623W        W34477   9.982   4.578   3.457  0.2704 -0.2201  0.3432
15624W        W34478  10.442   8.161  12.756  0.4381 -0.2410  0.3473
15625W        W34479  15.987   1.012   4.023 -0.2766 -0.2801 -0.1941
15626W        W34480   5.951  13.960  11.209  0.2176  0.2054  0.0380
15627W        W34481   1.151   0.342  13.049  0.0882  0.0081  0.2779
15628W        W34482  18.887  15.055   3.508  0.0842  0.2350 -0.0282
15629W        W34483  16.004  10.881   4.776  0.3746 -0.2193  0.0461
15630W        W34484  13.717   7.936  14.596 -0.3101  0.0914 -0.0862
15631W        W34485   8.884   5.714   0.382 -0.1529  0.0365  0.0005
15632W        W34486  11.960  15.179   9.663 -0.0201 -0.0359 -0.0066
15633W        W34487   0.312  13.700  14.784 -0.2236 -0.0434  0.0133
15634W        W34488  18.740  11.294   3.214 -0.2532 -0.1982  0.0295
15635W        W34489   3.026  16.336   2.539 -0.0093 -0.0250  0.1410
15636W        W34490  13.068  15.706  13.468 -0.1335  0.4262  0.1556
15637W        W34491  14.885  10.500  13.374 -0.0953  0.1173 -0.1554
15638W        W34492  17.354   0.469  10.970  0.1309 -0.0097  0.2626
15639W        W34493   5.151  18.995  13.585 -0.0485 -0.0693  0.0150
15640W        W34494  13.540  12.861  13.718  0.2340  0.0669  0.0355
15641W        W34495   0.539   0.296   3.789  0.4667  0.0716  0.3245
15642W        W34496   8.344   8.137   1.757 -0.1859  0.4242 -0.0145
15643W        W34497   1.777   7.930   3.995  0.0750  0.0543  0.1160
15644W        W34498   4.357  17.465  13.483 -0.1487 -0.2763 -0.0930
15645W        W34499  18.336   1.852   0.376  0.0882  0.0810  0.1158
15646W        W34500   4.501  13.732  14.756  0.1079  0.4644 -0.2263
15647W        W34501   7.809  16.142   2.268 -0.0464 -0.0329 -0.0865
15648W        W34502  12.810   6.798   2.248  0.0523  0.1641 -0.1677
15649W        W34503  16.343  10.145  14.212 -0.1207  0.2529 -0.1303
15650W        W34504   9.345  18.679  13.423  0.1784 -0.1906  0.2244
15651W        W34505   8.783   7.950   1.419  0.1378 -0.1131 -0.1382
15652W        W34506  16.264  10.047  13.013  0.1567 -0.2167 -0.1775
15653W        W34507  16.300  12.605  10.496 -0.0560 -0.0123 -0.2400
15654W        W34508  10.262   6.378   1.908 -0.1185 -0.0448 -0.0143
15655W        W34509  11.115  10.751  13.712  0.2345 -0.1698 -0.2857
15656W        W34510  18.679  11.228   1.804  0.0677  0.1036  0.2050
15657W        W34511   2.166  10.661  11.047  0.0339 -0.1754 -0.1996
15658W        W34512   4.586   7.290   0.760 -0.0987  0.0743  0.0020
15659W        W34513   5.695   9.161   0.343 -0.2969 -0.2874  0.0703
15660W        W34514  13.036   0.411   3.461 -0.3039 -0.1789  0.0380
15661W        W34515  13.517  16.479   1.788  0.2332 -0.0018  0.0552
15662W        W34516   2.621  13.902  13.228 -0.0044 -0.3283  0.3666
15663W        W34517  12.873  17.936  12.912  0.2073  0.0728 -0.1058
15664W        W34518   7.812  18.818   3.011 -0.1285 -0.2505  0.0354
15665W        W34519   0.177  13.904  14.278  0.1377 -0.3173 -0.0082
15666W        W34520  12.816  14.820   0.821 -0.0169  0.1845  0.0276
15667W        W34521  17.794   5.179  13.660  0.0381  0.2060  0.0697
15668W        W34522  14.175  15.120   3.101 -0.3935 -0.0106  0.0479
15669W        W34523   4.547   5.947   1.144  0.0069 -0.1466 -0.0651
15670W        W34524  13.899   8.302   2.796 -0.1203 -0.3388  0.0745
15671W        W34525   1.662   4.035   3.033 -0.0808  0.0036 -0.0760
15672W        W34526  15.650  13.390  13.961  0.0238  0.2206  0.1269
15673W        W34527  11.471   1.185   0.993 -0.2200  0.1988 -0.2371
15674W        W34528   9.071  14.000   1.349 -0.0648  0.1559  0.1530
15675W        W34529  15.706  17.323  12.033  0.0224 -0.1961 -0.2665
15676W        W34530   6.439   0.015  11.508 -0.0520  0.1165 -0.0407
15677W        W34531  17.138   7.427  12.530 -0.0181  0.0159 -0.1115
15678W        W34532  18.977   8.760   3.098  0.1757  0.0451  0.3497
15679W        W34533   2.353  11.673   3.343 -0.0897 -0.3104  0.2528
15680W        W34534   3.426  16.960   1.505 -0.1565 -0.0425 -0.1673
15681W        W34535   8.539  16.206  13.384 -0.0231 -0.0731 -0.1883
15682W        W34536  14.779   3.400   0.249 -0.1375  0.3524  0.1618
15683W        W34537   9.315   1.303  11.324 -0.2147  0.4372 -0.1383
15684W        W34538  14.594   0.794  14.062  0.1267  0.3093 -0.0467
15685W        W34539   0.839  13.652  12.954  0.1198  0.1183  0.1440
15686W        W34540  15.612  11.639   1.703  0.0992 -0.1564 -0.2246
15687W        W34541  14.496  14.840   2.510 -0.2830 -0.5090 -0.1823
15688W        W34542   5.025   7.434  14.499 -0.0779  0.0398  0.2698
15689W        W34543  11.758  17.543   1.776  0.1552  0.1546 -0.1370
15690W        W34544  10.790   5.348  14.577  0.0394 -0.2083 -0.0352
15691W        W34545  15.788  12.770   0.139 -0.1270 -0.1057 -0.0732
15692W        W34546  12.071   7.931   2.261 -0.1986  0.1519  0.2719
15693W        W34547   8.095  11.993  14.368  0.0242  0.1197 -0.1971
15694W        W34548   9.050  16.909   3.609 -0.0978  0.0499 -0.1130
15695W        W34549   9.810  10.161  13.450  0.0402 -0.1597 -0.0040
15696W        W34550   7.056   8.202  13.107 -0.1130  0.1999 -0.3207
15697W        W34551  16.499   4.714  12.351 -0.0449 -0.1053 -0.0145
15698W        W34552   2.271   7.203  14.573 -0.0443 -0.0499  0.0943
15699W        W34553   7.413   9.785   3.651 -0.0291  0.1296  0.0168
15700W        W34554  14.908  12.366   4.182 -0.0183  0.0380  0.1753
15701W        W34555   1.353   1.042   3.830 -0.4574 -0.1059  0.3704
15702W        W34556   4.011  18.177  12.739 -0.0297  0.2037  0.0023
15703W        W34557  16.399   1.716   0.697  0.2584  0.0372 -0.0293
15704W        W34558   6.863  16.206  10.519 -0.2506 -0.3966  0.1590
15705W        W34559   4.637  11.361   0.365  0.1206 -0.3177  0.0178
15706W        W34560  10.158  16.675  13.487  0.1299 -0.0030 -0.4311
15707W        W34561   5.126  16.590  13.492 -0.0680  0.2558  0.0765
15708W        W34562   0.323   9.663   2.041  0.4600 -0.0872  0.0975
15709W        W34563   3.394  15.938   9.604 -0.1925 -0.0189 -0.0787
15710W        W34564   3.187  17.351   3.797  0.2605  0.4761 -0.4035
15711W        W34565   8.341   3.980  13.237 -0.0003 -0.4006 -0.2391
15712W        W34566   1.538   3.078  12.944 -0.0410 -0.3740  0.1852
15713W        W34567  16.469  10.918  11.285  0.1130 -0.2103  0.2973
15714W        W34568  12.626  17.363   4.816 -0.0066 -0.1792 -0.2612
15715W        W34569   9.905   1.453   3.075 -0.1770  0.1947 -0.1127
15716W        W34570   7.681  12.283   3.530 -0.0762  0.0960 -0.1954
15717W        W34571  16.414   3.186  11.965  0.2844  0.0314  0.1188
15718W        W34572   5.021  14.366  11.206  0.0966  0.1013 -0.3259
15719W        W34573   4.288   6.805   0.078 -0.1131 -0.0172  0.0717
15720W        W34574  18.388   6.705   4.547 -0.0869  0.2248 -0.1690
15721W        W34575  12.139  10.497   4.009 -0.1548 -0.2491 -0.2652
15722W        W34576  14.461   0.670   0.393 -0.0050  0.1115  0.2974
15723W        W34577   2.155  18.481   2.806  0.1661 -0.0398  0.0414
15724W        W34578   8.480  12.490  11.578  0.1157 -0.0972  0.0136
15725W        W34579  15.361   3.390   1.471 -0.1940 -0.1963 -0.0392
15726W        W34580  11.784  18.162   1.545 -0.2219  0.0017 -0.0286
15727W        W34581   1.254  11.481   2.377  0.0142  0.1659 -0.1868
15728W        W34582   9.659   8.450   3.862 -0.1867  0.6848 -0.0306
15729W        W34583  10.708   7.707   0.290 -0.2234  0.0041  0.0346
15730W        W34584  12.468   0.248   1.465 -0.4485  0.0687  0.2606
15731W        W34585  12.259  13.949   0.439  0.1063  0.2140  0.0023
15732W        W34586   6.000  15.658  13.276 -0.1393 -0.0912 -0.1905
15733W        W34587   0.655   0.014   0.583 -0.1765  0.0299  0.1054
15734W        W34588  12.282  12.903  12.797  0.2989  0.1629 -0.0348
15735W        W34589  18.585   8.097   0.859  0.1032 -0.0654 -0.0071
15736W        W34590  12.894  10.316  11.585 -0.2315  0.0047  0.0364
15737W        W34591  16.086   5.491   3.126  0.2939 -0.0105 -0.3378
15738W        W34592   9.168   4.615  11.474  0.0139  0.0190 -0.0201
15739W        W34593  10.064   9.298   4.229 -0.2333 -0.1541 -0.1786
15740W        W34594   0.434  11.016   0.694  0.0754 -0.0380  0.2394
15741W        W34595   5.987   6.212   2.292 -0.2133 -0.2220  0.0317
15742W        W34596   6.286   1.983   2.281  0.1116 -0.3659 -0.0070
15743W        W34597  12.176  14.845  12.585 -0.2480 -0.2763 -0.0264
15744W        W34598   4.041  16.380   0.866 -0.3230 -0.1000 -0.2665
15745W        W34599  12.037  12.999  13.648 -0.3757 -0.0256  0.3280
15746W        W34600  17.542  18.720  14.244  0.1700  0.1721 -0.1022
15747W        W34601  12.976  14.296  11.262 -0.0504  0.2203 -0.1855
15748W        W34602   5.017  14.476   3.187  0.1086  0.2956  0.2098
15749W        W34603   5.313  18.454  11.004  0.0972  0.0276  0.0026
15750W        W34604  16.998   6.597  14.681  0.1785 -0.0401  0.2203
15751W        W34605   8.743  10.449  10.826 -0.2292 -0.1203 -0.0390
15752W        W34606   0.100  18.519  10.256 -0.0786 -0.1852  0.1479
15753W        W34607   9.320   9.540  13.742 -0.0999  0.2452 -0.3264
15754W        W34608   9.398  13.755   3.050  0.0662 -0.1549 -0.2612
15755W        W34609   6.881  18.931  11.531 -0.1863 -0.0595 -0.1377
15756W        W34610   8.994  14.751   3.969 -0.2607 -0.1871 -0.1523
15757W        W34611  11.510   8.657   5.186  0.1633 -0.1463 -0.0765
15758W        W34612  15.382  14.555   0.229  0.1031  0.2608  0.0097
15759W        W34613  13.804   0.493  10.435  0.0494 -0.2435 -0.1439
15760W        W34614   4.447   9.864   5.305 -0.2336  0.2458  0.0646
15761W        W34615  13.470  17.201  11.580 -0.0373  0.0084 -0.2200
15762W        W34616   4.721   7.555   2.743 -0.0994 -0.0401 -0.1513
15763W        W34617  13.542  17.988  13.580  0.1747  0.0690 -0.1814
15764W        W34618   7.239   1.305   4.310  0.2945 -0.2254 -0.2717
15765W        W34619  11.779   5.444   0.176 -0.0564 -0.2276  0.2545
15766W        W34620  12.152  17.873  13.968 -0.1511 -0.0248 -0.0245
15767W        W34621  10.064   3.531  13.487 -0.4013  0.0254 -0.0644
15768W        W34622   8.499   0.626  12.826  0.1538 -0.0622  0.1309
15769W        W34623   2.884   0.325   0.853 -0.2073  0.5688 -0.0621
15770W        W34624  15.592   2.003  11.137 -0.0909  0.3202  0.1633
15771W        W34625   5.958   8.796  10.530  0.0799  0.1791  0.5096
15772W        W34626  12.231   7.363  12.809  0.0672  0.0415  0.1381
15773W        W34627  10.996   0.904  14.449 -0.1630  0.0939 -0.4350
15774W        W34628  15.832  18.544  11.584  0.0092  0.0517  0.0463
15775W        W34629  17.047   4.478  13.100  0.0171  0.0819 -0.0579
15776W        W34630   9.702  16.313   5.134 -0.2260  0.1103 -0.0925
15777W        W34631   8.648  11.583   4.744  0.1619  0.1523 -0.0351
15778W        W34632   1.056  18.028  11.421 -0.4346 -0.2285  0.0371
15779W        W34633  14.881   5.244  11.712  0.2656 -0.1419 -0.2180
15780W        W34634   5.758   4.484   3.053 -0.1838 -0.1799  0.4270
15781W        W34635   3.722  10.824   4.508 -0.1012 -0.2974 -0.1670
15782W        W34636   5.407  16.171   1.242 -0.3293  0.2873 -0.2843
15783W        W34637   4.834   2.541  11.255 -0.2388  0.0556 -0.2405
15784W        W34638   5.889  15.876   3.616 -0.0564  0.1210 -0.1923
15785W        W34639   3.203  10.900   1.059  0.2166  0.0143  0.2223
15786W        W34640  13.912  10.559  13.172  0.1141 -0.2344  0.2306
15787W        W34641   3.045  13.864  12.425  0.0308 -0.0172  0.2228
15788W        W34642  12.441   7.939  12.760 -0.0004  0.5960 -0.0029
15789W        W34643  18.730   5.691   2.657  0.0713 -0.2372  0.0728
15790W        W34644  15.379  15.737  13.936 -0.0549 -0.0208 -0.1053
15791W        W34645   8.602  12.019  12.660 -0.1113  0.1007 -0.1177
15792W        W34646   7.599   7.009   3.697  0.0923 -0.2080  0.1591
15793W        W34647  15.254  17.304   1.056 -0.1155  0.1665 -0.3463
15794W        W34648  10.403  13.742   1.425 -0.2782  0.2385 -0.2477
15795W        W34649  13.783   6.262  12.315  0.0241 -0.0191  0.0251
15796W        W34650  15.487  11.806   4.508 -0.3909  0.0038 -0.1519
15797W        W34651   5.115   4.023  13.774 -0.3846 -0.3700  0.2139
15798W        W34652   8.698   0.604   0.004 -0.3341 -0.1727 -0.1277
15799W        W34653  17.502   2.919  10.205  0.0975 -0.2653 -0.0655
15800W        W34654   0.780  13.655   2.791  0.0610 -0.1620 -0.1909
15801W        W34655  13.090   1.952  13.683 -0.1422 -0.2478  0.0515
15802W        W34656   3.558  11.682  11.015 -0.1883 -0.3598 -0.3425
15803W        W34657  15.318   7.462   0.668  0.3138  0.1897 -0.2988
15804W        W34658  14.903   4.922   5.231 -0.0919 -0.0883 -0.2037
15805W        W34659  12.919  11.987   3.464  0.0016 -0.0910  0.3815
15806W        W34660  11.949   7.880   4.232 -0.0823  0.0939 -0.0502
15807W        W34661  18.786   8.675  13.082  0.0569  0.0145 -0.0164
15808W        W34662  18.753  10.424  11.384  0.2515 -0.1830  0.0028
15809W        W34663   8.675  15.305   2.792  0.0303  0.1174  0.1723
15810W        W34664   9.486   0.159  10.109  0.1658 -0.4657  0.3126
15811W        W34665   3.884   7.055   0.293  0.1282  0.4090  0.1861
15812W        W34666  18.722  13.097  11.880 -0.2340 -0.0404 -0.1655
15813W        W34667  16.675   5.625   3.180 -0.0216  0.2204 -0.0910
15814W        W34668   4.426  16.129  12.978  0.1291 -0.3653 -0.2018
15815W        W34669   3.367  15.346  12.987 -0.1622 -0.1893 -0.2153
15816W        W34670  11.850  11.698   2.449  0.1639 -0.2260 -0.1134
15817W        W34671   5.100   3.190   3.779  0.0654 -0.2509 -0.3037
15818W        W34672   4.745   3.405  14.143  0.1450  0.4719  0.0950
15819W        W34673   5.282   9.721  14.172 -0.2627 -0.2829  0.1536
15820W        W34674   1.268   3.260  11.214 -0.0382  0.1321  0.0898
15821W        W34675   7.843  18.432   1.493  0.0946  0.1630  0.2437
15822W        W34676  17.978   5.900   1.221 -0.2736  0.0791  0.0700
15823W        W34677  15.045  18.765  14.465 -0.2590  0.4298 -0.2005
15824W        W34678  14.788   6.098  14.542  0.1501 -0.2442  0.0600
15825W        W34679   8.265   7.984   3.887 -0.6297  0.2440  0.1340
15826W        W34680   3.192   2.686   0.701 -0.0414  0.2186 -0.0313
15827W        W34681   7.429  17.036   1.584  0.0226  0.2005 -0.0730
15828W        W34682  14.756   2.849   0.324 -0.1942 -0.1120 -0.0444
15829W        W34683   4.585   4.786   9.439 -0.0188 -0.1624 -0.0086
15830W        W34684   6.087  16.356  12.554 -0.0087 -0.3473 -0.0557
15831W        W34685  17.746  13.402  11.866 -0.1735  0.4959 -0.0274
15832W        W34686   4.210   8.878   1.393  0.1757  0.1876 -0.1510
15833W        W34687   5.891   8.090  12.403 -0.1885  0.2508  0.2823
15834W        W34688   6.553   1.628  14.214  0.1313 -0.1194 -0.2276
15835W        W34689  15.099   4.009   0.762 -0.2431 -0.0246  0.1758
15836W        W34690  15.256  13.209   1.282 -0.3374 -0.0983  0.1496
15837W        W34691   8.442  13.007   1.722  0.1393 -0.1421  0.2136
15838W        W34692  16.554   2.477  12.137  0.2216 -0.0257  0.3101
15839W        W34693  13.079   9.996   4.604 -0.0702  0.0291  0.2266
15840W        W34694  18.799  16.009   1.864  0.2394  0.2144  0.1462
15841W        W34695   0.998   4.827  13.364 -0.0023 -0.0538 -0.0027
15842W        W34696  18.408   0.801  12.461  0.1262  0.1999  0.2842
15843W        W34697  15.643   6.134   2.554 -0.2223  0.2783 -0.1475
15844W        W34698  11.336  18.996  11.061 -0.1636 -0.2450  0.0063
15845W        W34699  13.015   2.606  14.502 -0.1406 -0.1213 -0.0345
15846W        W34700   0.410  10.967   4.372  0.0007  0.0431 -0.2288
15847W        W34701   8.813   4.222  11.461 -0.3418  0.1023  0.0797
15848W        W34702  10.645  11.013  14.612  0.1026 -0.0180  0.0796
15849W        W34703  16.311   0.872  10.604  0.2768 -0.0564  0.1497
15850W        W34704   7.540  14.368  13.738  0.2103 -0.0482  0.2125
15851W        W34705   0.832  12.780   3.716  0.1619 -0.0641 -0.1313
15852W        W34706   7.813   9.164  12.904 -0.0468 -0.0405  0.2383
15853W        W34707  10.092   7.312   3.572 -0.0802 -0.1981  0.2415
15854W        W34708   8.672   3.445   0.153  0.0305  0.0698  0.0362
15855W        W34709   3.210  10.871   3.051  0.2138  0.2456 -0.1215
15856W        W34710   0.456  18.098  11.683  0.0963  0.0061  0.2911
15857W        W34711  15.845  10.831  12.546 -0.4004 -0.0188  0.2032
15858W        W34712   5.660   5.597  11.112  0.0275 -0.0914 -0.2669
15859W        W34713  13.403   5.033   3.119 -0.0031 -0.0120 -0.1067
15860W        W34714   8.488   4.346   0.173 -0.1491  0.1577 -0.0458
15861W        W34715  16.353   7.793   4.267 -0.0484 -0.1089  0.1315
15862W        W34716  13.398   0.650  11.662 -0.0756  0.0567 -0.3492
15863W        W34717  17.403   2.349  13.794 -0.2435 -0.1143 -0.0248
15864W        W34718   9.733   7.776   0.167 -0.0937 -0.0005  0.0863
15865W        W34719  17.930   4.026   1.345  0.3170 -0.0261  0.0515
15866W        W34720   5.505   2.844  13.728  0.3051  0.1769 -0.0213
15867W        W34721   6.999  12.127   0.504  0.3784  0.1330 -0.1370
15868W        W34722  13.310   4.258  11.361  0.1672  0.2229  0.0168
15869W        W34723  18.559   4.303   3.644 -0.0933 -0.2438  0.0861
15870W        W34724  18.766   9.775  13.077  0.0195 -0.2173 -0.2375
15871W        W34725   4.878  10.174   3.422 -0.0989  0.1387 -0.0038
15872W        W34726   0.786  15.275  10.938  0.1648  0.0982  0.0151
15873W        W34727  18.416   9.658  12.735 -0.0183  0.1110 -0.0318
15874W        W34728  12.138  19.063   2.800  0.1548  0.1010 -0.0553
15875W        W34729  17.666   1.127   1.200  0.1189  0.0321 -0.1190
15876W        W34730  18.110   6.828  14.457 -0.2252 -0.3369  0.0953
15877W        W34731  18.089   8.224   1.374  0.0182  0.1782  0.0637
15878W        W34732  17.061   4.603  13.661 -0.1942 -0.2020 -0.0575
15879W        W34733  12.492  10.236   1.566  0.0471 -0.1379 -0.1003
15880W        W34734  14.413   8.401  12.678  0.1495  0.0834  0.0876
15881W        W34735  14.712   1.766   3.945  0.0347 -0.2106  0.2387
15882W        W34736   8.874   0.975  11.372 -0.1417  0.2459 -0.0349
15883W        W34737  10.784  16.732   3.820  0.0980  0.2181 -0.0731
15884W        W34738   9.262  14.406  10.711 -0.0401  0.1596 -0.0448
15885W        W34739  16.430  12.466  14.464  0.1069 -0.1242 -0.0676
15886W        W34740   5.677   9.423  12.275 -0.1008 -0.0594 -0.1630
15887W        W34741   4.300   3.719  14.060  0.2148 -0.0291  0.0893
15888W        W34742   2.975   4.981  13.285 -0.0570 -0.0490 -0.0685
15889W        W34743  16.546   8.173  14.587 -0.0330  0.0490  0.0033
15890W        W34744   2.629  17.183   2.915 -0.0319  0.3202 -0.1593
15891W        W34745   5.676   4.021   2.832  0.2411 -0.0493  0.0445
15892W        W34746   3.230  17.963  14.340 -0.3044 -0.4023  0.0985
15893W        W34747   9.621   3.100  11.105 -0.0540 -0.0535  0.2411
15894W        W34748   3.160  15.275  12.465  0.2687 -0.2730  0.2866
15895W        W34749  16.583  16.943   1.406  0.0505  0.3391 -0.1067
15896W        W34750  17.920   8.549  14.311  0.0145 -0.3092 -0.2939
15897W        W34751  11.536  18.324   4.822 -0.0279 -0.0332  0.0586
15898W        W34752  10.778  12.742   3.493  0.0142 -0.0266  0.1474
15899W        W34753  18.437  11.001   2.777 -0.2551  0.2156 -0.1946
15900W        W34754  15.092   8.377  13.440 -0.0977 -0.0159 -0.1572
15901W        W34755  17.412  15.703  12.479  0.0060  0.1218 -0.0420
15902W        W34756   8.835   5.077  14.431 -0.1446  0.2828  0.0572
15903W        W34757   9.694   0.854   2.762  0.1123  0.0141 -0.0710
15904W        W34758  18.813  10.335  14.473  0.0915 -0.1560  0.0312
15905W        W34759   2.167   4.733  10.936  0.1783 -0.1914  0.2888
15906W        W34760  10.393  17.626  10.991  0.0228  0.1041 -0.0396
15907W        W34761   0.871  14.718   1.984  0.1323  0.2028  0.2518
15908W        W34762  14.063   0.789  12.620  0.0676 -0.0804 -0.2190
15909W        W34763  15.083  13.839   3.917  0.1589 -0.2520  0.0302
15910W        W34764   7.114   3.946  12.519  0.1139  0.0588 -0.1588
15911W        W34765  11.950  11.300   5.738  0.3983  0.1476 -0.0217
15912W        W34766   9.457  12.819  10.671 -0.1110 -0.0783  0.4213
15913W        W34767  14.270  19.100   4.472  0.0524 -0.1247 -0.0201
15914W        W34768  14.877   6.823  14.285 -0.0917 -0.1997  0.2641
15915W        W34769  17.405   9.264   2.071 -0.0982 -0.1054  0.1993
15916W        W34770   6.743  16.441  14.636  0.1550 -0.2039 -0.0301
15917W        W34771  18.858   7.584   2.250  0.2058  0.0593 -0.4270
15918W        W34772   4.824   0.200  14.522 -0.0365 -0.2200  0.4112
15919W        W34773   3.918  18.259  13.284 -0.0184 -0.1588  0.0384
15920W        W34774  15.360   3.560  10.177  0.2017  0.1083  0.0757
15921W        W34775   6.161  11.474   2.990  0.1628  0.2152 -0.1553
15922W        W34776   6.292  15.651  11.383  0.0402  0.0490  0.0532
15923W        W34777   3.406   9.207   3.733 -0.0655  0.1067  0.3135
15924W        W34778  14.131   8.222  12.220 -0.2206 -0.1160 -0.1457
15925W        W34779   5.342   2.453   9.412 -0.0876 -0.1657 -0.0080
15926W        W34780   0.002   0.594  13.606  0.0106 -0.0558  0.1630
15927W        W34781   9.432  16.345   3.554  0.1974  0.0805 -0.3108
15928W        W34782  17.334   0.191  13.658 -0.1722 -0.1647 -0.0457
15929W        W34783  12.301   2.229   1.915 -0.3838 -0.2677  0.0554
15930W        W34784  13.722  13.162  14.191 -0.2539  0.1481 -0.0408
15931W        W34785  17.837   6.324  12.313  0.2120 -0.2835  0.2522
15932W        W34786   7.231   3.183  13.899 -0.1606  0.1026  0.1466
15933W        W34787  19.141   3.261  14.461 -0.2291 -0.2554 -0.0436
15934W        W34788  13.523  15.527  13.740 -0.1359 -0.0918  0.1239
15935W        W34789  18.864  12.523  14.072  0.1476 -0.2657  0.2167
15936W        W34790   5.161  15.919   4.801  0.3371  0.2259  0.1664
15937W        W34791   3.562   0.625  12.608 -0.3296  0.0960 -0.2033
15938W        W34792   2.182   8.743   1.279  0.1608 -0.0414 -0.2337
15939W        W34793   2.108   5.401   0.367  0.0022 -0.1306 -0.4029
15940W        W34794  18.394   9.208   3.346 -0.0898  0.1359  0.0649
15941W        W34795  16.488   7.357  12.704  0.1725 -0.1025 -0.0304
15942W        W34796  10.734  10.567   2.677  0.1714  0.2085  0.3269
15943W        W34797  12.841   3.766   4.157  0.0289 -0.0967  0.0729
15944W        W34798   8.683   7.500   1.715  0.0093  0.0751  0.0397
15945W        W34799   6.195   1.507  12.112  0.3228 -0.1358 -0.0487
15946W        W34800  15.816   2.785  10.638 -0.0620  0.1609  0.0979
15947W        W34801  16.234  14.331   1.915  0.0542 -0.2228  0.0923
15948W        W34802   2.732  17.159  11.616 -0.4088  0.3984 -0.3414
15949W        W34803  12.672   0.217  13.687 -0.0727 -0.0604 -0.1748
15950W        W34804  12.533  16.502  10.889  0.1053  0.1967  0.0828
15951W        W34805   9.667  12.546  12.089  0.0568 -0.1836  0.2602
15952W        W34806  15.851  17.368   1.778 -0.1100 -0.0864 -0.1343
15953W        W34807   3.459  12.580   0.802  0.2150 -0.2622 -0.2774
15954W        W34808   1.285  13.952  10.997 -0.1462 -0.1451 -0.2787
15955W        W34809   5.448   0.145  11.097 -0.1272  0.1153 -0.2989
15956W        W34810  14.574  10.449   0.913 -0.0851 -0.1801  0.0087
15957W        W34811  17.522  11.078  13.831  0.2685  0.2664  0.3697
15958W        W34812  12.103   3.072  12.899 -0.1957 -0.0361 -0.0012
15959W        W34813  12.222  11.968  14.303  0.0435  0.0654  0.1075
15960W        W34814   3.285  12.674   2.606  0.0875 -0.0731  0.2567
15961W        W34815  10.194  16.224  13.280  0.1116 -0.1223 -0.0967
15962W        W34816  13.536   9.618  11.650 -0.2084  0.2180  0.0756
15963W        W34817  10.509   8.122   3.595  0.2476  0.1895 -0.2173
15964W        W34818   1.353   2.217  12.109 -0.2309 -0.1726  0.4031
15965W        W34819  18.216  15.858  13.476 -0.1832 -0.1176  0.0796
15966W        W34820   9.192  11.611   0.537 -0.0766  0.1394 -0.1529
15967W        W34821   5.212   1.506  13.731  0.0894 -0.3832 -0.1896
15968W        W34822   6.047   2.969   5.316  0.3200 -0.1900  0.0806
15969W        W34823   0.196  10.154   1.014 -0.1642  0.1530 -0.0648
15970W        W34824  18.408  10.614   0.639 -0.1620  0.0669  0.1271
15971W        W34825  13.327   5.105  14.353  0.1461 -0.0361  0.2370
15972W        W34826   9.351   1.637   0.500  0.0131  0.3337 -0.1605
15973W        W34827   9.643   8.558  13.044  0.0714  0.0372 -0.2236
15974W        W34828   7.947   0.139   3.224  0.2136 -0.3015 -0.1161
15975W        W34829  15.504  11.924  11.592 -0.2201 -0.4188  0.2904
15976W        W34830  19.146  13.980   4.218 -0.2511  0.4400 -0.0986
15977W        W34831   3.759   0.365   3.527  0.1524 -0.3142  0.1973
15978W        W34832  14.205  14.572   2.892 -0.0908  0.0859 -0.0631
15979W        W34833   9.265  13.618  10.889 -0.0211  0.1477  0.0543
15980W        W34834   1.047   3.229  13.893  0.1780  0.3248  0.0291
15981W        W34835   8.648  13.810   1.152 -0.1818 -0.1695 -0.1931
15982W        W34836  12.412   9.065  14.048 -0.1785 -0.0527  0.1979
15983W        W34837   7.589   6.832   1.896  0.0328 -0.3494 -0.2097
15984W        W34838   5.814  11.290  12.097 -0.1904 -0.1919  0.2241
15985W        W34839   1.473  15.655   1.739 -0.0362 -0.0408 -0.2177
15986W        W34840   1.132  18.118   3.102 -0.1729 -0.3933 -0.1440
15987W        W34841   9.148   6.640   1.064 -0.1322  0.0094 -0.0449
15988W        W34842  17.697   2.038   2.080  0.0034  0.2990 -0.2161
15989W        W34843   5.964  14.120   2.480  0.3675 -0.5624  0.0809
15990W        W34844  14.693  15.454   1.537  0.1542 -0.0332 -0.0376
15991W        W34845   6.266   5.750   1.577  0.2984  0.3787 -0.1800
15992W        W34846   0.852   3.566   0.122  0.2233  0.4927 -0.2240
15993W        W34847  14.618  10.064  10.037 -0.0340 -0.5208  0.0011
15994W        W34848   1.179   6.682   3.908 -0.0920  0.1903  0.0311
15995W        W34849  14.928  14.629  10.420 -0.0575  0.0607 -0.1490
15996W        W34850   1.221   2.304  10.913  0.2979  0.0693  0.1837
15997W        W34851  12.465   1.484  12.364  0.0214  0.1300 -0.0039
15998W        W34852  15.652  10.346   0.028  0.0032 -0.4160 -0.1480
15999W        W34853  14.593  11.437   3.640  0.0052  0.0648 -0.2161
16000W        W34854  13.504   6.941  12.787 -0.3744  0.1069  0.1395
16001W        W34855  18.809  11.762   4.724 -0.3029 -0.1563 -0.1449
16002W        W34856  17.692   7.416  11.519  0.0700  0.2961  0.2842
16003W        W34857  10.774  15.876   0.373 -0.0461  0.0466 -0.1404
16004W        W34858  10.578  13.835  11.086 -0.0326  0.1881 -0.1613
16005W        W34859   6.524  12.031   0.423 -0.1309  0.0435 -0.0497
16006W        W34860   0.740  10.143   0.787 -0.1183  0.2982 -0.0815
16007W        W34861   0.312  18.172   5.175  0.2569  0.1403  0.2116
16008W        W34862   7.959  12.305   3.074 -0.1045  0.2796  0.1567
16009W        W34863   7.693   5.872  13.988 -0.1811 -0.0965 -0.0342
16010W        W34864   9.732   5.772  11.710 -0.0325  0.2840  0.2103
16011W        W34865   9.305   8.497  11.526 -0.1735  0.0383  0.1324
16012W        W34866  18.027   7.700  11.263 -0.1577 -0.1196 -0.1611
16013W        W34867  11.789   6.775  11.575  0.0809  0.1827  0.0030
16014W        W34868  17.469  13.910  13.569  0.0613  0.2429 -0.0705
16015W        W34869  14.326  10.507   2.605 -0.2195 -0.4093 -0.1516
16016W        W34870   0.021   6.884   1.148 -0.3593 -0.0149 -0.0650
16017W        W34871   1.910   7.303  14.237 -0.2367 -0.1492 -0.1504
16018W        W34872  14.042   6.185  12.843 -0.2401  0.2549  0.1836
16019W        W34873  10.781  14.242  11.684  0.2035 -0.1784 -0.1208
16020W        W34874   8.992   4.489  10.974 -0.0209  0.1988  0.3428
16021W        W34875   4.907   8.956   3.739  0.0957 -0.0105  0.3378
16022W        W34876   0.542  13.243  12.930  0.0284 -0.2411 -0.0159
16023W        W34877  17.009  12.009   2.074  0.0177  0.0660 -0.0815
16024W        W34878   6.483  17.278   0.039  0.0699  0.5191  0.0558
16025W        W34879  13.342  16.999   4.112  0.2255  0.0638 -0.1408
16026W        W34880   4.364  16.113   3.967  0.2353  0.2973 -0.1731
16027W        W34881   9.934   2.583  12.360 -0.2761  0.3584 -0.0367
16028W        W34882  14.470   7.080  12.956 -0.1258 -0.3117 -0.0070
16029W        W34883   2.540  13.306  14.117  0.3300 -0.3053 -0.1878
16030W        W34884   9.015   1.770  12.245 -0.2505  0.3547 -0.1679
16031W        W34885  11.165   9.248   3.983  0.1664  0.2743  0.2279
16032W        W34886   4.579   3.872   0.335  0.2322 -0.3534 -0.2549
16033W        W34887  11.274   2.885   5.220  0.0805 -0.0656 -0.0606
16034W        W34888  15.084  13.722  10.910  0.0955 -0.0112 -0.1612
16035W        W34889   0.218  12.453  14.135 -0.1799 -0.1989 -0.1002
16036W        W34890  17.281   1.462  12.047 -0.0772 -0.2109 -0.0170
16037W        W34891   8.741  12.525   4.127  0.0474  0.0201 -0.1753
16038W        W34892  18.411  12.903   9.802  0.2273 -0.1731 -0.0074
16039W        W34893  17.546   2.039  10.574 -0.2527  0.0615 -0.1205
16040W        W34894  11.508   7.600  12.130  0.1106  0.0224 -0.0932
16041W        W34895   8.422   1.261  11.209  0.0993 -0.3912 -0.0454
16042W        W34896   3.630  16.285  13.799  0.1386 -0.2784  0.1814
16043W        W34897   0.172   4.111   3.626  0.0678  0.2362  0.3914
16044W        W34898   2.336  11.948  13.046 -0.0594  0.0102  0.1515
16045W        W34899  11.870  10.321   4.877 -0.0263  0.3999  0.0283
16046W        W34900   1.437   1.968   1.218 -0.1327 -0.2309 -0.0411
16047W        W34901   3.450  16.396   1.434 -0.1338 -0.0113  0.0930
16048W        W34902  15.323  12.708  10.566  0.1078 -0.1173  0.2611
16049W        W34903  13.947   3.531   0.642  0.1004 -0.0320 -0.1413
16050W        W34904  14.777  12.812   4.842  0.1990 -0.1065  0.1052
16051W        W34905  17.019  10.461  13.109 -0.1044  0.1200 -0.2685
16052W        W34906   0.182  10.810  13.153 -0.0003  0.0013 -0.1540
16053W        W34907  15.440  16.365  11.299  0.0633  0.0802 -0.0437
16054W        W34908   6.466  18.164  10.555 -0.2565 -0.0217 -0.0090
16055W        W34909  17.354   5.870  13.461 -0.0370  0.3997 -0.0615
16056W        W34910   4.259   2.168   3.236  0.2169  0.0500  0.3958
16057W        W34911   7.355   6.311   2.240  0.0406  0.1030 -0.0277
16058W        W34912  13.625  16.648   0.697  0.0702  0.0040 -0.0015
16059W        W34913   0.429  15.064  11.822 -0.1985  0.1076  0.1924
16060W        W34914  13.007  11.986   0.834 -0.0463  0.3221  0.0157
16061W        W34915  16.705   3.894   2.881 -0.0096 -0.0846 -0.0988
16062W        W34916  10.847   1.139   3.410 -0.4215 -0.0361 -0.4298
16063W        W34917   9.592   1.860  13.359  0.1468 -0.1085 -0.0790
16064W        W34918   6.506  17.324  14.217  0.0513  0.0936  0.0127
16065W        W34919   1.111   5.917   4.120 -0.3368 -0.3645  0.0481
16066W        W34920   1.952  11.324  11.521  0.0706 -0.0956  0.0645
16067W        W34921  15.337   0.555  14.455  0.0363  0.0681 -0.1450
16068W        W34922   7.892   7.407   3.406 -0.2442  0.2183  0.4514
16069W        W34923   4.477  15.651   3.794 -0.0217  0.0497 -0.3215
16070W        W34924  13.378   7.523  14.197  0.1364 -0.0921 -0.0236
16071W        W34925   5.698  16.980  13.716 -0.1869  0.0097  0.1557
16072W        W34926  12.276   5.267  11.629  0.0995  0.0001 -0.0348
16073W        W34927  11.654   9.239   4.103  0.0835 -0.0118  0.1407
16074W        W34928  18.750  12.653   0.751  0.1024 -0.2291 -0.4141
16075W        W34929  16.938  15.721   2.372  0.1420  0.0278 -0.0451
16076W        W34930   3.719   0.543   1.337  0.0860 -0.1737  0.0784
16077W        W34931   4.259  16.730   4.645  0.0945 -0.1446 -0.3678
16078W        W34932  13.214   4.160  13.382 -0.1920  0.1032 -0.0050
16079W        W34933  16.199   9.187   4.569 -0.1002 -0.0635 -0.2617
16080W        W34934  10.760   0.984  12.976 -0.1952  0.0000  0.2524
16081W        W34935   6.957   1.944   0.735  0.2319 -0.1516  0.0724
16082W        W34936  14.016  11.200  13.956 -0.0373  0.1196  0.1787
16083W        W34937  14.100  12.364   2.011 -0.0123 -0.0849 -0.1040
16084W        W34938  11.821  15.144   2.786  0.1437  0.1206 -0.4032
16085W        W34939  13.561  18.657  10.478 -0.3687 -0.1731  0.2836
16086W        W34940  13.345  16.012   1.113 -0.0603  0.0519 -0.0740
16087W        W34941  14.806  16.281   2.059  0.2148 -0.2224  0.2879
16088W        W34942  15.569   7.790  14.576  0.0791  0.1514  0.4717
16089W        W34943   2.673   8.983   0.513 -0.0009  0.1660  0.0045
16090W        W34944   0.835   2.427  10.620 -0.2323 -0.2744  0.3816
16091W        W34945   3.545  17.015  12.611  0.0196  0.2439  0.0029
16092W        W34946   3.504   0.431  14.077  0.0172 -0.2027  0.2796
16093W        W34947  13.432   9.940  13.464 -0.3847 -0.1992  0.0192
16094W        W34948   1.347  13.808   3.206 -0.3224  0.3420 -0.0383
16095W        W34949  16.564   4.841   2.051 -0.3067 -0.1573  0.2654
16096W        W34950   0.781   4.222   2.418  0.0066  0.0199 -0.1018
16097W        W34951   2.414   2.074  10.477  0.0313 -0.0929 -0.4409
16098W        W34952   7.414  12.751  13.809  0.2962  0.1791 -0.4110
16099W        W34953  15.037  13.402  11.936  0.2719  0.1110  0.0105
16100W        W34954   5.459   7.567  12.908  0.1765  0.1223 -0.0114
16101W        W34955  16.969   8.680  10.773  0.1615  0.4183  0.3642
16102W        W34956  12.433  18.635   3.797 -0.2641  0.0745  0.0842
16103W        W34957   4.318  13.889   2.944  0.0325 -0.0751 -0.1978
16104W        W34958  16.126  17.755   2.071 -0.1505 -0.0548  0.4174
16105W        W34959  17.583  13.148  13.999  0.1221  0.0840 -0.0694
16106W        W34960  17.917  15.524  11.433 -0.0120 -0.1526 -0.1873
16107W        W34961   7.666  15.835   2.973 -0.1909  0.0566 -0.1150
16108W        W34962  11.767   3.991  12.149  0.2387 -0.1080 -0.1093
16109W        W34963   4.896  16.136   2.205 -0.0590 -0.1756  0.2826
16110W        W34964   7.804   3.168   2.342 -0.0789 -0.1123  0.0839
16111W        W34965  14.246  16.184   0.074 -0.1787 -0.1342 -0.0777
16112W        W34966   9.988  16.958  14.398  0.0713  0.1000  0.1804
16113W        W34967  14.215   2.567  11.385  0.0976 -0.1451  0.1846
16114W        W34968   3.489   3.395   2.055 -0.1480  0.1879 -0.0653
16115W        W34969   2.843  10.641  12.650  0.2236  0.1136  0.3714
16116W        W34970   4.268  12.605   1.671  0.1185 -0.4842  0.0285
16117W        W34971  13.196   0.938  14.713 -0.2130  0.2877 -0.1556
16118W        W34972   3.588   5.343  14.475  0.4441  0.1232 -0.0555
16119W        W34973   1.189   1.353  13.158 -0.1612 -0.3773  0.0801
16120W        W34974  18.567   0.060  11.719 -0.2379 -0.3767  0.0103
16121W        W34975  16.091  12.813  13.132  0.0417  0.1605  0.2126
16122W        W34976  16.205  11.105  14.359  0.1516 -0.2429 -0.2033
16123W        W34977   8.902  15.485   1.384 -0.4797  0.2016 -0.0742
16124W        W34978   4.374   5.450  14.671 -0.3323 -0.3231  0.3927
16125W        W34979  12.888  16.112  12.138 -0.0432 -0.1747 -0.1383
16126W        W34980  11.060   6.073   2.822  0.1181 -0.1370 -0.1793
16127W        W34981   0.372  13.567   3.424 -0.2074  0.0711 -0.2037
16128W        W34982  15.033   0.921   5.143  0.0819  0.2035 -0.1241
16129W        W34983  13.665   3.572   4.396 -0.0494  0.3394  0.1724
16130W        W34984   8.270  11.147  12.470  0.2988  0.0229 -0.3359
16131W        W34985   7.432   7.735   3.160  0.0919 -0.3215 -0.0515
16132W        W34986  10.537  12.333   2.693 -0.1726 -0.0308  0.1761
16133W        W34987   0.741  13.185   1.261 -0.3194 -0.1235  0.1817
16134W        W34988   2.705  10.657  11.697 -0.3509 -0.2820 -0.7255
16135W        W34989  13.564   4.137   4.646 -0.0386 -0.3692 -0.0844
16136W        W34990   3.470   4.652  12.221 -0.0917 -0.3708  0.0026
16137W        W34991  13.984   4.427   1.396  0.0944  0.2804 -0.0078
16138W        W34992  10.025   8.657   5.407  0.2037 -0.3768  0.1567
16139W        W34993   1.086   1.554   4.146 -0.0335 -0.3016 -0.1451
16140W        W34994   5.785  14.440   0.879  0.0536  0.0140 -0.3550
16141W        W34995   9.429  18.620  14.541 -0.0270 -0.0679  0.0886
16142W        W34996   9.746  13.982   4.427  0.2482 -0.1745  0.0348
16143W        W34997  16.304   2.460   2.879  0.3121  0.0566 -0.0412
16144W        W34998  13.181   9.494  13.562  0.1249 -0.1487  0.2962
16145W        W34999  11.404  18.374  14.551  0.3381  0.2083  0.0464
16146W        W35000   3.484   7.404  13.925 -0.2291 -0.1818 -0.0100
16147W        W35001   6.496   3.222  14.319  0.0661 -0.1016  0.0426
16148W        W35002  12.843   7.152   0.277 -0.0568 -0.2320 -0.2495
16149W        W35003   5.835   6.561   0.898 -0.2066 -0.0500 -0.0581
16150W        W35004   5.037  16.997   2.319 -0.0815  0.3123 -0.2511
16151W        W35005   2.136  15.971   0.314 -0.1183 -0.0540 -0.0780
16152W        W35006   3.765  16.957  13.060 -0.2100  0.2537  0.0576
16153W        W35007   3.585  17.105   2.471  0.0735  0.1995  0.0286
16154W        W35008  12.421   3.325   0.097  0.0759 -0.2361  0.1482
16155W        W35009   0.162   0.173  10.456 -0.3002  0.1498  0.0282
16156W        W35010  17.740  17.021  14.554  0.0369  0.1461 -0.1636
16157W        W35011   3.739  14.003  10.180 -0.1664 -0.0611  0.0918
16158W        W35012   8.423   4.711   2.160  0.0519  0.0187 -0.2255
16159W        W35013   5.864  12.123   2.040  0.2905  0.0246  0.1683
16160W        W35014  10.666  17.478   2.576 -0.0671 -0.2764  0.1633
16161W        W35015  14.937  16.215   1.497 -0.1054 -0.3088  0.0025
16162W        W35016   8.819   5.645  12.314  0.1843  0.1021  0.0695
16163W        W35017   6.738  13.334   3.963  0.3037  0.1473  0.1660
16164W        W35018  18.222  16.986  14.141 -0.1028  0.0764  0.1638
16165W        W35019   4.960  18.066  12.529  0.0785  0.0516  0.0736
16166W        W35020   7.463   3.015   0.626  0.2881 -0.1373  0.0676
16167W        W35021   5.400   0.396   9.878 -0.2304 -0.1814  0.2348
16168W        W35022   0.005   7.030   4.633 -0.0560  0.2586 -0.1650
16169W        W35023  14.263  17.985   1.282 -0.2430 -0.0500 -0.1734
16170W        W35024   4.044   6.166   0.067 -0.2728  0.1659  0.0293
16171W        W35025   9.368   2.839   2.274  0.4449  0.0298 -0.0900
16172W        W35026   2.902  16.358  11.684  0.2487 -0.1443  0.1122
16173W        W35027   0.304  17.450  14.229  0.5042  0.1735 -0.1531
16174W        W35028   8.423   7.420   3.446  0.0441 -0.2654  0.0112
16175W        W35029  14.883  18.403  12.588 -0.1001  0.1863 -0.2185
16176W        W35030  16.010   5.027   1.467  0.1985 -0.2488 -0.2946
16177W        W35031   8.123   3.401   0.319  0.1674 -0.0953 -0.0849
16178W        W35032  15.943   9.911   3.912 -0.2424 -0.0520 -0.0978
16179W        W35033  12.227  18.869   3.223  0.0505 -0.1337  0.0470
16180W        W35034   5.563  14.518  14.064 -0.0988 -0.1580 -0.2667
16181W        W35035   4.238   9.685   1.557 -0.2520 -0.1096  0.1759
16182W        W35036  12.247   7.367  10.350  0.0332 -0.0510  0.1739
16183W        W35037   2.492  17.207   1.489 -0.1566  0.0666  0.2137
16184W        W35038  14.074   4.117  13.686 -0.0228  0.0721 -0.0538
16185W        W35039  14.435  18.721  11.358 -0.2259 -0.1208 -0.0922
16186W        W35040  18.737  16.527   0.063 -0.0451  0.0965 -0.3114
16187W        W35041   7.585   1.447  14.621 -0.0300  0.1006 -0.1045
16188W        W35042  11.017  12.440  12.634 -0.2303 -0.2926  0.0907
16189W        W35043  12.390   7.322   0.067  0.1027 -0.0104  0.2246
16190W        W35044   1.955   1.984   2.994 -0.2888  0.1100  0.2085
16191W        W35045  18.992   6.007   3.468 -0.0553  0.0362  0.1105
16192W        W35046   0.821   5.551  14.786 -0.1252  0.1930  0.4020
16193W        W35047  10.467  16.876  13.940 -0.1810  0.1849 -0.0786
16194W        W35048   5.274   4.319  11.555 -0.1681  0.0667  0.0028
16195W        W35049  12.959  17.704   1.128  0.1447 -0.2318  0.0805
16196W        W35050   2.261  10.891   1.942  0.1250  0.2910 -0.5007
16197W        W35051   4.438   7.349   2.354  0.2132 -0.2011  0.2219
16198W        W35052   2.841  18.050   0.412  0.0103  0.1162  0.0677
16199W        W35053   9.879  18.113  10.903 -0.1185  0.1965  0.0530
16200W        W35054   6.784  16.784   1.180 -0.0673 -0.1437 -0.2685
16201W        W35055   7.301   1.771  12.592 -0.0629  0.0369  0.0738
16202W        W35056   3.880  13.964  10.726 -0.2340 -0.2872  0.0948
16203W        W35057   7.799   5.110  10.957 -0.2793 -0.1685 -0.0218
16204W        W35058   1.614   1.309   4.209 -0.1393 -0.1059 -0.3465
16205W        W35059   5.217  17.224  10.976  0.0105 -0.2169 -0.1278
16206W        W35060   0.729   4.990   4.452 -0.0193  0.2718  0.1062
16207W        W35061   9.522  12.300  14.039  0.0611  0.1643  0.0504
16208W        W35062   0.778  14.500   1.118 -0.0228 -0.1715  0.1501
16209W        W35063   0.369   1.982   4.316  0.0096 -0.1922 -0.2103
16210W        W35064  10.534  16.533  14.323 -0.2303  0.1350  0.0053
16211W        W35065  13.572  11.353  12.456  0.0049 -0.1651  0.0855
16212W        W35066  18.145  18.188  14.782  0.2101 -0.1083  0.1213
16213W        W35067  17.213   0.074   0.920 -0.1207  0.2814 -0.0084
16214W        W35068   5.201  14.675   1.705 -0.0451  0.1581  0.2224
16215W        W35069  13.557   3.788   0.466  0.3250 -0.0290  0.3044
16216W        W35070   0.083  13.359  12.775  0.0560  0.0511  0.2347
16217W        W35071  16.244   4.568   1.228 -0.0535  0.1094 -0.1800
16218W        W35072   3.324   9.637   3.539  0.0214 -0.0695 -0.2800
16219W        W35073   3.665  10.427  14.734 -0.3824 -0.0869 -0.3718
16220W        W35074   2.008  10.046  13.350  0.2564 -0.2357  0.1680
16221W        W35075   4.595  15.040   1.285  0.0560  0.1836  0.5091
16222W        W35076   1.195   0.695   2.598  0.0932 -0.0085 -0.3187
16223W        W35077   3.826   6.949  12.142 -0.0637  0.5329 -0.1008
16224W        W35078  13.941  18.639  14.423 -0.0913 -0.2882  0.1871
16225W        W35079   3.341   6.416   0.234 -0.0767 -0.0403 -0.1010
16226W        W35080   5.254   7.180   4.352  0.0256 -0.2725  0.0383
16227W        W35081   1.813   8.982   4.885  0.2048  0.3371  0.0990
16228W        W35082  14.122   2.961   1.297  0.0313 -0.0925 -0.4452
16229W        W35083  12.310   8.076  11.715 -0.2164  0.1774  0.0191
16230W        W35084   9.452   8.020   0.804 -0.2116  0.2754 -0.0150
16231W        W35085   3.083   0.070   3.996  0.3403  0.2003  0.2116
16232W        W35086   1.644   7.447   0.853 -0.0554 -0.2826  0.2712
16233W        W35087   2.159   6.976  12.977 -0.0395  0.1263  0.1050
16234W        W35088   1.824   3.400   5.272 -0.3162  0.0928  0.2573
16235W        W35089   9.314  11.967   2.733 -0.2620 -0.0508  0.0284
16236W        W35090  10.083  18.374  13.911 -0.0395 -0.0004 -0.1905
16237W        W35091  12.861  12.843   2.302 -0.0400 -0.3931 -0.3269
16238W        W35092   4.841  12.456   1.740 -0.2489 -0.3355  0.3138
16239W        W35093   3.376   6.930   1.421  0.2282 -0.1374 -0.0600
16240W        W35094   1.727   4.712   3.432 -0.1947  0.2049 -0.2402
16241W        W35095  18.285   1.249  14.499  0.2657 -0.0035  0.1111
16242W        W35096  12.284  11.270   3.940  0.0090  0.1970  0.3235
16243W        W35097  13.509  11.875   3.228  0.1729 -0.3612  0.0760
16244W        W35098  14.442   0.316  14.275 -0.0107 -0.2496 -0.0067
16245W        W35099   0.492  12.532  12.231  0.2594  0.1260 -0.1554
16246W        W35100   8.953  10.888   0.990  0.4000  0.0401  0.3691
16247W        W35101   1.649   7.424   3.729 -0.1823 -0.0051 -0.0936
16248W        W35102  17.334   0.434  11.961  0.0499  0.0679  0.1194
16249W        W35103  18.843   5.268   1.953 -0.1561 -0.1230  0.3848
16250W        W35104   3.198  18.097  12.905  0.2456  0.1228  0.1700
16251W        W35105   1.767   0.166  12.435  0.2438  0.2552 -0.2926
16252W        W35106  14.881  17.479  12.591  0.1823 -0.1175 -0.0549
16253W        W35107  16.437   3.914  13.671 -0.1443 -0.1402  0.1638
16254W        W35108   9.651   4.589   1.673  0.0447 -0.0218 -0.1696
16255W        W35109  13.559  12.116   0.031 -0.0470 -0.1214 -0.0511
16256W        W35110  12.235  18.116   4.719 -0.1963 -0.0939 -0.0185
16257W        W35111  14.184  17.793  10.596  0.0629  0.1704 -0.3495
16258W        W35112   6.755  13.473  11.929  0.4909 -0.2002  0.1233
16259W        W35113  11.374  16.833  14.113 -0.4156  0.1533  0.1439
16260W        W35114  10.644   8.415   1.055 -0.2384  0.0384  0.0084
16261W        W35115  11.941  13.928  10.577 -0.1892  0.0916  0.1502
16262W        W35116  17.752   6.203   3.514 -0.2247  0.1025  0.1541
16263W        W35117  16.314   2.638   3.354 -0.0186 -0.1769  0.2993
16264W        W35118  10.018  16.919   2.125  0.0589  0.2516 -0.0329
16265W        W35119  17.655  15.862  12.831  0.2799 -0.0651 -0.0486
16266W        W35120   8.620   9.278   2.603 -0.2107 -0.1655 -0.1460
16267W        W35121  17.097  15.123   3.042 -0.0760 -0.0773  0.1772
16268W        W35122   1.020  15.223  11.830  0.2131  0.1136  0.3751
16269W        W35123  11.293  17.431   1.883  0.5066  0.4352  0.2712
16270W        W35124  18.332   8.373  11.802  0.0765  0.3204  0.0497
16271W        W35125   4.795   1.157  12.250 -0.2914  0.1129  0.2197
16272W        W35126   4.213   1.133   4.177  0.2016  0.2395 -0.0501
16273W        W35127  18.166   8.859  13.135  0.0342 -0.3357 -0.2605
16274W        W35128   6.289   3.847   1.168 -0.2895 -0.0159 -0.0758
16275W        W35129   4.643  11.659  10.201 -0.2054  0.2160  0.0983
16276W        W35130   2.916   9.260   2.818  0.0386  0.1974 -0.2491
16277W        W35131   2.532   9.823  14.053  0.0106  0.1744  0.1359
16278W        W35132   6.831   3.008  10.639  0.1138 -0.1468 -0.0476
16279W        W35133  14.624  17.400  14.427  0.0669  0.3412 -0.0348
16280W        W35134  16.469  10.485  13.156 -0.0619  0.1264  0.4787
16281W        W35135   7.258  18.053  14.243 -0.0611 -0.0179 -0.2305
16282W        W35136   1.929  16.090   0.749 -0.0017  0.2962  0.0226
16283W        W35137  15.888   9.185  11.828  0.1818 -0.0399  0.0466
16284W        W35138  16.399  10.280   3.311  0.1226  0.1706  0.0435
16285W        W35139   5.509  10.290  14.217  0.0978 -0.1003 -0.2309
16286W        W35140  13.714  14.210  12.505  0.0321 -0.2478  0.1867
16287W        W35141  17.502   7.847  11.272 -0.1391 -0.0085  0.2931
16288W        W35142   0.022   5.517   3.861  0.4897  0.0730  0.0895
16289W        W35143  15.975   9.998  13.929 -0.2719  0.2890  0.2571
16290W        W35144   4.583  10.756   1.142 -0.1418 -0.1306 -0.1389
16291W        W35145   9.917   2.531   1.817  0.0531 -0.2265 -0.0109
16292W        W35146   7.145  17.696   2.372 -0.1332  0.0907  0.0236
16293W        W35147  14.540   4.069   0.702 -0.0477  0.1275  0.0211
16294W        W35148  11.130   7.404  12.925 -0.0014  0.0115 -0.0364
16295W        W35149  16.822  17.350   9.573  0.1631  0.1779 -0.0916
16296W        W35150  13.118   7.270   3.906 -0.1823 -0.5111 -0.0271
16297W        W35151   4.977  11.409   1.356 -0.1056 -0.0558 -0.0929
16298W        W35152   2.165   5.526   1.830  0.1805  0.2212  0.0324
16299W        W35153  15.261  16.198  14.063 -0.3945 -0.0276  0.1016
16300W        W35154  13.567   5.784  14.381  0.0788  0.0826  0.2477
16301W        W35155   1.405  15.846   0.866 -0.2217  0.1622  0.1407
16302W        W35156  16.856   4.810   1.123  0.0317 -0.0812 -0.1053
16303W        W35157  10.999  15.322   2.886  0.0632  0.0705  0.0892
16304W        W35158  13.139   1.975   3.593 -0.2019  0.0922 -0.2165
16305W        W35159  13.820  14.949  14.489  0.0700  0.0119  0.0251
16306W        W35160   7.949   6.139   1.510  0.1717 -0.0588  0.0973
16307W        W35161  14.644  11.798  13.169 -0.0440 -0.0165  0.0610
16308W        W35162   2.732  12.743  10.205 -0.3914  0.1978 -0.2819
16309W        W35163   9.967   9.302   3.553  0.3783 -0.0217  0.1521
16310W        W35164   8.565   4.552   1.684 -0.1736 -0.1179 -0.1256
16311W        W35165   0.541   8.380   9.772 -0.1856  0.0351  0.4741
16312W        W35166   6.048   0.022   2.408  0.1974  0.0961 -0.0919
16313W        W35167   3.927   2.565  14.146 -0.0119 -0.1289 -0.1173
16314W        W35168   8.449   4.471  11.064 -0.0704 -0.0407  0.0116
16315W        W35169  14.028   1.361  11.828 -0.1483  0.1964  0.2232
16316W        W35170  16.307   5.453   4.093 -0.1046 -0.0420  0.0883
16317W        W35171   1.580   8.962  14.751 -0.4117 -0.0306  0.0928
16318W        W35172  16.598   8.301   2.348  0.1111  0.2454  0.0947
16319W        W35173  14.244   1.201   3.131  0.1763 -0.4546  0.1460
16320W        W35174   3.509   4.258   2.565  0.3206  0.2849 -0.2082
16321W        W35175  16.426   0.712   2.064 -0.2502  0.2298  0.2450
16322W        W35176  13.144   9.055   2.570 -0.0974 -0.0618 -0.2994
16323W        W35177  12.820  10.488   2.365  0.0615 -0.1723  0.0441
16324W        W35178  12.080   7.690  14.190 -0.0659  0.0881  0.2231
16325W        W35179  14.722   0.281   3.373 -0.4009 -0.0143  0.0547
16326W        W35180   2.091   2.418  11.385  0.0228  0.2547 -0.4328
16327W        W35181  17.229  13.408  13.734 -0.2400  0.0663 -0.0543
16328W        W35182   4.723  17.853   4.333 -0.1428 -0.3428  0.3498
16329W        W35183  17.996   7.410  12.043  0.3847  0.0013  0.2498
16330W        W35184  18.418  12.196  11.688  0.2060  0.1181  0.0051
16331W        W35185  14.423   0.153   0.410  0.0561  0.0343 -0.2825
16332W        W35186   4.455  18.370  12.380 -0.0190  0.1429 -0.1083
16333W        W35187  13.218   3.436   3.963 -0.3157  0.0056 -0.1910
16334W        W35188   9.398   0.347  13.996 -0.0794 -0.2437 -0.0561
16335W        W35189  14.527  14.610  11.997 -0.2351 -0.0271  0.2423
16336W        W35190   9.853  10.760  11.362  0.1018 -0.0543 -0.0353
16337W        W35191  15.800   5.678  11.724  0.4289 -0.0133 -0.0684
16338W        W35192   1.160   3.754  12.480  0.1120  0.0537 -0.1330
16339W        W35193  17.827  12.776  13.812 -0.1458 -0.2281  0.0242
16340W        W35194  11.284   9.053   0.064 -0.1058  0.0793 -0.0800
16341W        W35195   5.205   1.644  11.260  0.0807  0.2162  0.3045
16342W        W35196   0.044  15.000  12.939 -0.0374  0.0605  0.0603
16343W        W35197  13.449  17.282   9.551  0.0241 -0.0428 -0.1423
16344W        W35198  14.837  18.812  12.986  0.3241 -0.1414 -0.1380
16345W        W35199   6.932   5.320   3.037 -0.1279  0.1030 -0.0753
16346W        W35200   7.947   1.178  11.564 -0.2717 -0.0352 -0.3500
16347W        W35201   5.564  10.382   5.171  0.2137 -0.2336 -0.0914
16348W        W35202  13.047   7.530   9.793  0.2692  0.2671 -0.2088
16349W        W35203   6.736  19.068   3.358  0.2663 -0.1687  0.2687
16350W        W35204   3.826  17.539  10.983 -0.2402  0.2212  0.1600
16351W        W35205   2.063   0.617  10.838 -0.0739 -0.2853 -0.0610
16352W        W35206   1.863  13.359   2.590 -0.3964  0.0355  0.1636
16353W        W35207  17.932   4.487   3.018 -0.2084  0.1322  0.1302
16354W        W35208   6.987   3.677   1.488  0.0880  0.2672 -0.0939
16355W        W35209   6.757  12.298   0.885 -0.0300  0.0334 -0.1833
16356W        W35210  14.041   7.673  13.266 -0.1868 -0.1412 -0.0151
16357W        W35211   7.272  17.949  10.890  0.0948  0.1635  0.3213
16358W        W35212   9.601  13.406   3.860 -0.1627 -0.2018  0.0204
16359W        W35213  15.378   9.132   2.110 -0.0098  0.0949  0.0958
16360W        W35214  13.591   8.442  14.635  0.2901  0.0432 -0.0676
16361W        W35215  12.562  15.104  13.420 -0.1146  0.2598  0.1569
16362W        W35216  16.657   0.009   0.968 -0.1189  0.1337 -0.0396
16363W        W35217  11.607  12.964  14.381 -0.1808 -0.2240 -0.2119
16364W        W35218  14.282  18.410  10.018 -0.1058  0.0864  0.1644
16365W        W35219   3.889   9.148  14.764  0.0120  0.3409  0.2681
16366W        W35220   6.769  14.203  10.517 -0.1443  0.2859  0.0567
16367W        W35221  11.816  15.375  12.655 -0.1857  0.1577  0.0580
16368W        W35222  15.785   9.410   5.089 -0.1107  0.1822  0.2751
16369W        W35223   5.384  14.476  11.720  0.3523  0.0478  0.0191
16370W        W35224   8.727  14.976  13.412  0.0796  0.1029 -0.0344
16371W        W35225   3.586  14.732   3.996 -0.1462  0.1638 -0.3470
16372W        W35226   4.168  12.811   2.098  0.0281 -0.1723  0.2441
16373W        W35227   6.536   7.281  11.230  0.2933 -0.3461 -0.0096
16374W        W35228   7.020   1.171   1.173 -0.3117 -0.0243  0.1828
16375W        W35229  10.990  15.034  11.452  0.0214 -0.0512 -0.0895
16376W        W35230   2.092  13.674  14.025 -0.1617  0.1280  0.1805
16377W        W35231   1.190  14.422   1.386 -0.0018 -0.0797  0.1616
16378W        W35232  15.186   1.130   3.314 -0.1509 -0.1471  0.2652
16379W        W35233  14.880   3.235  13.404  0.0497 -0.0121 -0.1611
16380W        W35234   8.958  12.734  12.552  0.0654  0.0886 -0.2064
16381W        W35235  12.329  11.247   3.358 -0.0591 -0.3440 -0.3161
16382W        W35236   4.361  16.153  11.236  0.4669 -0.0587  0.1308
16383W        W35237   9.828  11.555  13.288 -0.1511  0.2198  0.0885
16384W        W35238   1.910  11.863   3.345  0.1467 -0.1223 -0.0129
16385W        W35239  17.763  13.132   1.509  0.0778  0.4165 -0.0647
16386W        W35240   7.105   0.585  11.139 -0.3114 -0.1884  0.1409
16387W        W35241  11.601   3.032  10.357  0.0236  0.1745 -0.1015
16388W        W35242  17.671   3.574  12.747  0.0108  0.0184 -0.1317
16389W        W35243  16.082   2.373  12.480 -0.0594  0.0163  0.1547
16390W        W35244   0.228   1.493   2.073  0.0356 -0.1748  0.4432
16391W        W35245   8.478   8.316   3.095  0.3180  0.1772  0.0087
16392W        W35246   8.769  12.143   1.247 -0.0923  0.0990 -0.0308
16393W        W35247  10.136  16.962  12.021  0.1671  0.1405  0.0480
16394W        W35248  14.813   6.626   0.723  0.1882  0.1027  0.1253
16395W        W35249   6.644   5.322  10.497  0.0473 -0.0735 -0.1566
16396W        W35250   8.846  13.614   3.174  0.2285  0.0387  0.0213
16397W        W35251  15.891  12.930  13.956 -0.2088 -0.0235  0.1208
16398W        W35252  11.718  11.474  11.460  0.0152 -0.0985  0.2073
16399W        W35253   7.021   1.862  13.036  0.2731 -0.3988  0.0036
16400W        W35254   2.070   7.981   1.775  0.0887  0.1734 -0.1920
16401W        W35255  14.976  18.874  12.546 -0.1209  0.0552  0.1067
16402W        W35256  15.568   2.318   3.624 -0.0787  0.0255  0.2702
16403W        W35257  12.801   7.616   3.161  0.1291 -0.0168  0.1381
16404W        W35258   5.538   0.458  14.369 -0.1555  0.1555  0.4128
16405W        W35259  15.900  14.037   1.499 -0.1968  0.1968  0.1748
16406W        W35260   6.526  11.497  11.890 -0.0092 -0.2791  0.0745
16407W        W35261   1.559  10.917   1.551 -0.0509 -0.0192  0.5289
16408W        W35262  14.865  10.895  14.623 -0.2385 -0.1122 -0.0958
16409W        W35263   2.804   6.114  12.887 -0.1393  0.2464  0.1035
16410W        W35264   0.945  17.797   1.340  0.1252 -0.0415  0.1027
16411W        W35265   7.581   1.339  14.120 -0.2804  0.0844 -0.0471
16412W        W35266   2.167   1.785   2.452  0.2821  0.1699  0.1136
16413W        W35267   9.728   3.964   0.380  0.0641 -0.0139 -0.0576
16414W        W35268  10.917  12.974  13.278 -0.1505  0.3264 -0.1278
16415W        W35269  17.721   6.581   3.867  0.3699  0.1302 -0.1112
16416W        W35270  17.695   7.455  10.986 -0.0131  0.1332 -0.1460
16417W        W35271   6.580   4.070   2.784 -0.2301 -0.2365  0.0192
16418W        W35272  18.818   3.056  13.917  0.0770 -0.0107  0.0155
16419W        W35273   2.132   7.528   0.684 -0.3901 -0.0947 -0.1845
16420W        W35274   3.421   3.271   2.965  0.1156 -0.1177 -0.1633
16421W        W35275  15.079  11.508   4.456 -0.0320  0.2127 -0.3557
16422W        W35276  12.726  15.440  11.741 -0.2039  0.0253  0.0948
16423W        W35277   3.955  18.321  10.683 -0.1961  0.2114  0.2802
16424W        W35278   1.728   6.789   2.612  0.2795  0.0023 -0.0296
16425W        W35279  13.751   5.379  13.539 -0.1597  0.0022  0.0846
16426W        W35280  15.366  17.371  11.681  0.1180 -0.2199 -0.2352
16427W        W35281  13.329  15.329   3.554  0.0967 -0.3210  0.1090
16428W        W35282  12.756  16.135   1.026  0.0130  0.1890 -0.0046
16429W        W35283  12.193   2.342   0.927  0.1018 -0.2445 -0.1556
16430W        W35284  18.984   7.696   2.854  0.3788 -0.2178 -0.1514
16431W        W35285   0.216   4.241  13.630 -0.0106 -0.4739  0.0465
16432W        W35286  10.555   6.581   1.270 -0.1752 -0.0214 -0.1260
16433W        W35287   9.564  17.541   4.742 -0.1310 -0.0441 -0.3671
16434W        W35288  17.160   8.675   1.044  0.2001  0.1324  0.0112
16435W        W35289   8.953   4.938  10.530  0.4400 -0.1741  0.3875
16436W        W35290   2.293   5.315  13.700  0.1569  0.0650 -0.1603
16437W        W35291  18.591   5.954  12.144  0.0698 -0.0895 -0.1348
16438W        W35292   6.334  14.555   1.124 -0.1665 -0.3842 -0.1227
16439W        W35293   9.821  15.175  14.271  0.2391  0.1569  0.0433
16440W        W35294   7.185  16.977  11.768  0.3006 -0.0085  0.2504
16441W        W35295   3.767   8.020  14.582 -0.0692  0.1156  0.0081
16442W        W35296   3.315   7.383   1.715  0.0506 -0.0759  0.1316
16443W        W35297   6.436  18.214   2.192  0.1961  0.2242 -0.1249
16444W        W35298   2.464   4.183   2.643 -0.2302 -0.1809  0.2685
16445W        W35299   5.880   7.074   0.927  0.3154 -0.3161 -0.0056
16446W        W35300   3.889   8.785   0.345 -0.3706 -0.0703  0.0412
16447W        W35301   8.315   7.894   0.763  0.1372  0.1146 -0.0141
16448W        W35302   4.602   0.727  13.759  0.1596 -0.0307  0.1655
16449W        W35303   6.864   7.041  11.599  0.2741 -0.1804 -0.1145
16450W        W35304  17.783   6.896   0.391  0.1663 -0.0333 -0.0538
16451W        W35305   3.451   5.371   3.347  0.3032  0.0721 -0.1987
16452W        W35306   0.773   6.798  13.542  0.0254  0.0848 -0.0497
16453W        W35307  10.886   5.391  11.731 -0.1160 -0.1171  0.0802
16454W        W35308   4.314  12.189   3.730  0.2219 -0.0148  0.1453
16455W        W35309  14.115  10.118  13.039 -0.0170  0.1961  0.3311
16456W        W35310   3.509  17.791  11.303  0.1205  0.3233  0.0942
16457W        W35311   2.387  11.737  13.712 -0.5042 -0.1259  0.1858
16458W        W35312   6.955   4.715   0.926  0.0818  0.1170  0.3343
16459W        W35313   6.688   2.061  14.457 -0.0014  0.1280 -0.0785
16460W        W35314  18.167   5.229  14.567  0.3529  0.0930  0.1643
16461W        W35315   5.722   4.059   1.535 -0.2970 -0.0231 -0.2097
16462W        W35316  17.915  13.032  14.325 -0.3431  0.0077  0.0502
16463W        W35317  18.806  10.235  12.634 -0.2226  0.2296 -0.1487
16464W        W35318  14.358  13.672   4.876  0.0077  0.3292 -0.0691
16465W        W35319  12.408  13.661   3.752  0.2261 -0.2039 -0.2816
16466W        W35320   7.412   3.137  12.371 -0.0498  0.3206  0.1475
16467W        W35321  17.488  11.022   2.780 -0.1052  0.1171  0.1432
16468W        W35322   5.522  11.253  13.267  0.0994  0.2621 -0.1177
16469W        W35323  13.487  14.398  11.492  0.1596 -0.0263 -0.1204
16470W        W35324  11.728  17.640  11.169 -0.2846  0.0477  0.1457
16471W        W35325  17.957  18.830   2.650  0.0871  0.1202  0.0165
16472W        W35326  10.050   4.275   2.744  0.3494  0.1349 -0.1225
16473W        W35327   8.113   9.389   1.606  0.0675 -0.1466 -0.1758
16474W        W35328  16.770  13.052   4.840  0.2138 -0.1802  0.1562
16475W        W35329   2.337   8.582   1.855 -0.1185  0.2303  0.1151
16476W        W35330   5.784   8.321   4.627 -0.1049 -0.1862 -0.3496
16477W        W35331   8.998  14.474   0.355 -0.2914  0.1123 -0.2505
16478W        W35332   5.886  13.100   3.466 -0.4394 -0.1109  0.0346
16479W        W35333   8.341   9.037   3.019 -0.0922 -0.0016 -0.0883
16480W        W35334   4.220   8.228  11.767 -0.0947  0.2172 -0.1081
16481W        W35335   2.019  11.474  12.385  0.3515  0.2347 -0.1787
16482W        W35336  17.029   8.423   3.845  0.1083  0.0391 -0.2502
16483W        W35337  11.535  12.381  13.695 -0.1423 -0.1050 -0.2139
16484W        W35338   5.236   5.315   2.592 -0.2653 -0.5314  0.3999
16485W        W35339   3.807   3.345  14.623  0.0702 -0.1935 -0.0132
16486W        W35340   8.306   6.268  12.590  0.0128  0.0443  0.0200
16487W        W35341   2.237   2.441   3.118 -0.1844  0.2353  0.2723
16488W        W35342   1.305   7.701   3.903  0.1163  0.2387 -0.0008
16489W        W35343   0.945   1.382  12.250  0.0928  0.0335 -0.0380
16490W        W35344  11.487  17.365  12.638  0.1142 -0.0771  0.1581
16491W        W35345   0.707   9.363   2.230 -0.1932 -0.2460 -0.2351
16492W        W35346   6.816   6.317   0.434  0.0768 -0.2392  0.3964
16493W        W35347   0.151  16.117  14.222 -0.2501  0.0049  0.0100
16494W        W35348  12.825  13.827   3.384  0.1503 -0.1814  0.0190
16495W        W35349   0.659  14.118   0.297 -0.1289  0.0964  0.3414
16496W        W35350   3.965  14.521  12.395 -0.0901 -0.3719  0.3255
16497W        W35351  14.927  14.503   4.863 -0.1581  0.1453 -0.1214
16498W        W35352  14.580   4.509   2.867  0.1927  0.1438 -0.1011
16499W        W35353  15.310  12.762   0.019  0.1301 -0.1769  0.2172
16500W        W35354  15.174  16.687   1.288 -0.0845  0.1927 -0.0139
16501W        W35355  18.845   9.467   3.258 -0.0131 -0.0998 -0.1659
16502W        W35356   0.152   5.551   1.252  0.1657 -0.1178 -0.0458
16503W        W35357  15.999   6.855  11.031  0.3076 -0.2107  0.1252
16504W        W35358  17.068  16.767   3.469 -0.1098  0.2578  0.0508
16505W        W35359  16.297  17.744   0.487 -0.0090  0.0287 -0.3781
16506W        W35360   8.962   7.889   0.894 -0.0004 -0.3622  0.1128
16507W        W35361  10.064   6.017   2.246  0.0396  0.3025  0.1583
16508W        W35362  16.225   7.270   1.007  0.2038 -0.0492  0.1563
16509W        W35363   6.520   2.669  10.696  0.0347 -0.0114  0.1804
16510W        W35364   2.367  13.623  11.830  0.1023  0.0451  0.2277
16511W        W35365   8.444   6.792   4.367 -0.0224 -0.1525  0.0309
16512W        W35366  13.473  18.156  10.998  0.0597  0.0358 -0.1204
16513W        W35367  13.138  12.657   1.869 -0.0251  0.1516 -0.0607
16514W        W35368  15.612  11.660   2.895 -0.1016 -0.0419 -0.0839
16515W        W35369   1.053   1.526   2.244  0.2625 -0.0662 -0.0719
16516W        W35370   3.398   3.833   2.854  0.0196  0.0805  0.0737
16517W        W35371   2.585  11.387  10.913 -0.1533 -0.1446 -0.0236
16518W        W35372   5.304   4.213  12.143 -0.0898  0.0261  0.0282
16519W        W35373   4.397  17.419  14.088 -0.2446  0.0776  0.3132
16520W        W35374  19.081  15.636   3.605  0.0776  0.3814  0.2307
16521W        W35375   8.830   0.020   0.873 -0.0103  0.3497  0.2196
16522W        W35376   0.557  11.601  13.121 -0.1674  0.0739 -0.1486
16523W        W35377   2.582   8.848  14.364  0.0014 -0.0114 -0.0143
16524W        W35378  12.058  15.219   2.332  0.1499 -0.0932  0.0681
16525W        W35379  18.296   6.868   0.111 -0.3035 -0.0493 -0.2119
16526W        W35380   1.551   2.880  13.730  0.0312  0.3762 -0.5200
16527W        W35381  14.026   2.060  14.374  0.0264  0.0356 -0.3583
16528W        W35382   6.559   2.709  14.435  0.1068 -0.0411 -0.0858
16529W        W35383  18.858  13.584   2.939  0.1376 -0.0078  0.0859
16530W        W35384  16.548   0.872   4.083 -0.2117  0.1046 -0.0681
16531W        W35385   0.385  11.996  14.408  0.1118  0.2363 -0.1509
16532W        W35386  11.192   6.465  12.397 -0.1640 -0.4252  0.0924
16533W        W35387   9.125   5.342   0.562  0.1036  0.0365  0.0407
16534W        W35388  15.546  13.780   3.610  0.1644 -0.1496  0.3972
16535W        W35389   4.885   4.152  10.368 -0.0406 -0.0599 -0.2471
16536W        W35390  17.595  17.708  14.040 -0.1837 -0.0589  0.2510
16537W        W35391   3.420  16.064   2.793 -0.2075  0.2603  0.0151
16538W        W35392   6.868   4.630   1.612 -0.0285  0.1524 -0.0713
16539W        W35393  13.432   7.841   3.151 -0.2295 -0.4096  0.1994
16540W        W35394  14.864  14.257   3.122 -0.1698  0.2977  0.1809
16541W        W35395   6.438   8.650   1.376 -0.1284 -0.3737 -0.6785
16542W        W35396   0.090   8.682   3.483  0.1854  0.1442  0.1717
16543W        W35397  13.772   9.946   1.073 -0.2034 -0.2511 -0.1083
16544W        W35398  10.611   8.557   0.583 -0.1402  0.1642 -0.1580
16545W        W35399   4.269  18.409   9.621  0.0571  0.0734  0.1293
16546W        W35400  16.005   6.126  12.441 -0.0940 -0.3511  0.1595
16547W        W35401  13.353   3.395   2.297  0.2441 -0.2546 -0.0867
16548W        W35402   8.468  18.978  13.158 -0.0842 -0.1363 -0.3485
16549W        W35403  18.831   5.692   0.996 -0.1829 -0.1583  0.2875
16550W        W35404  11.588   3.583  10.532 -0.2135  0.1992 -0.1757
16551W        W35405   5.080   7.013   3.010  0.1768 -0.4488  0.3082
16552W        W35406  12.495   1.721   2.522 -0.0571  0.2052  0.2237
16553W        W35407   7.203   1.670  13.483  0.1762  0.0583  0.0385
16554W        W35408   6.259   0.128   4.027 -0.0445  0.1786 -0.1412
16555W        W35409   7.565   1.002   5.216  0.0550 -0.1102  0.1745
16556W        W35410  10.963  12.618  13.645  0.0673 -0.1353  0.0871
16557W        W35411  13.989  12.061  12.735  0.1267 -0.0483  0.3166
16558W        W35412   5.101   6.388  11.561 -0.0068  0.0252  0.0055
16559W        W35413   0.775  15.888   3.144 -0.1795 -0.1474 -0.0291
16560W        W35414   3.150  12.195   2.635  0.0497 -0.2605 -0.0461
16561W        W35415  15.522   2.203   2.304 -0.0945 -0.0580  0.1727
16562W        W35416  18.970   7.167   1.501 -0.2041 -0.0194 -0.1000
16563W        W35417  14.004   6.266   1.777  0.3662 -0.0458 -0.1489
16564W        W35418   8.744   4.618  11.782  0.1332  0.1481 -0.0152
16565W        W35419   6.932   2.496  10.828 -0.0172 -0.2284 -0.0467
16566W        W35420  18.972  13.566  13.164 -0.4070  0.0410 -0.1976
16567W        W35421  10.520  12.091   2.275  0.1696  0.0826 -0.0981
16568W        W35422  15.724   3.625  13.602 -0.2906  0.1820  0.4151
16569W        W35423   8.443  17.159   4.272  0.1328  0.0080 -0.2004
16570W        W35424   7.806  16.265   3.297 -0.2327  0.2261  0.1230
16571W        W35425   3.008   7.686  13.201 -0.0023  0.3922 -0.2301
16572W        W35426   6.673   7.706  10.906  0.1963  0.0214  0.0817
16573W        W35427  13.395  11.450  10.639 -0.0345 -0.0819 -0.3206
16574W        W35428  18.873   5.594  11.611 -0.0600  0.1457  0.1262
16575W        W35429   4.750   3.934   1.386 -0.1053  0.0874  0.0239
16576W        W35430  10.417   7.209  14.024 -0.1298  0.0101  0.0554
16577W        W35431   7.442   7.550   3.615 -0.1020 -0.0413 -0.2011
16578W        W35432   7.086  13.914  14.784  0.0163 -0.1646 -0.2029
16579W        W35433   4.260   7.433  11.257  0.2478 -0.0807 -0.4277
16580W        W35434  12.437   5.293  12.672  0.0132  0.0109  0.0739
16581W        W35435  13.807   3.318  10.917  0.1447  0.0746 -0.0517
16582W        W35436  10.503   6.162   0.980  0.1850 -0.0994 -0.1254
16583W        W35437   3.686   0.148  14.497  0.0846  0.0233 -0.1611
16584W        W35438  10.192  18.598   2.357 -0.0487  0.0118  0.0819
16585W        W35439   5.903  17.796   3.041  0.3606  0.0936 -0.0497
16586W        W35440   4.347  19.058   0.465  0.1178 -0.0255  0.0844
16587W        W35441  15.439   1.921  10.676 -0.2040 -0.2536 -0.1655
16588W        W35442  12.152   7.016  14.046  0.1723  0.3906 -0.0554
16589W        W35443   8.864  17.498  12.107  0.1926  0.4782  0.0665
16590W        W35444  17.595  13.631  13.977 -0.6079 -0.1193 -0.0782
16591W        W35445   9.979   5.489  11.262 -0.0673  0.1056 -0.3252
16592W        W35446  17.852   8.071   2.743  0.1719  0.1210 -0.1617
16593W        W35447   2.072   2.277  11.894 -0.0812 -0.2058  0.2137
16594W        W35448   9.135  18.798  11.509 -0.2117  0.0215  0.1020
16595W        W35449   0.784   0.089   3.131 -0.5263 -0.1389  0.2930
16596W        W35450   7.892  16.761   3.538 -0.0487  0.0347 -0.2473
16597W        W35451   5.347  15.413  13.018 -0.1901  0.0219 -0.1107
16598W        W35452   0.231  12.803  12.588 -0.0020 -0.0549  0.2170
16599W        W35453   0.458   7.765  14.286  0.3813 -0.1126  0.1223
16600W        W35454   8.547  12.334  14.383  0.0986 -0.0575 -0.1842
16601W        W35455  17.435  16.472   1.625 -0.1317 -0.2661 -0.0695
16602W        W35456   0.352  13.243  12.333 -0.0923 -0.0253 -0.0195
16603W        W35457   6.311  15.501   2.392 -0.1740  0.2746 -0.2636
16604W        W35458  17.862  14.880  13.051  0.1004 -0.1729  0.1352
16605W        W35459   1.429   2.968   4.117  0.2464  0.1166 -0.0431
16606W        W35460  16.546   2.877  12.458  0.1024  0.0452 -0.1926
16607W        W35461  12.892  14.444  11.781  0.0262  0.0503 -0.1056
16608W        W35462  11.947   9.071   0.831 -0.0451  0.2136  0.0609
16609W        W35463  12.695  10.407  12.673 -0.5482 -0.1470  0.0043
16610W        W35464  16.201   5.154  12.226 -0.0848 -0.1331  0.0776
16611W        W35465   0.823   5.022  10.616  0.0749  0.1160  0.2642
16612W        W35466   2.535   3.634   0.751 -0.4248 -0.1548  0.1044
16613W        W35467  13.245  11.070  13.543 -0.0650 -0.5934 -0.2199
16614W        W35468   0.973  11.169   2.669  0.0249 -0.1191  0.1598
16615W        W35469  19.037  13.573   0.261  0.2064  0.2024  0.3174
16616W        W35470  16.457  18.615   0.790  0.1325 -0.0461  0.0100
16617W        W35471  14.259   9.968   4.813 -0.1225 -0.4413  0.1257
16618W        W35472  15.065  12.215  10.127 -0.0863  0.3009 -0.2301
16619W        W35473   2.499   4.145   0.510 -0.2474  0.2939  0.1867
16620W        W35474   2.038   1.766  11.554  0.1265  0.0840  0.0713
16621W        W35475  16.953  18.731   9.810  0.2020  0.1597 -0.0512
16622W        W35476  16.775  16.961   0.964 -0.0561  0.4890  0.1337
16623W        W35477  13.150   0.074  13.103  0.0168 -0.0185 -0.0678
16624W        W35478  16.030   6.501   1.376 -0.1329  0.4218 -0.0604
16625W        W35479  16.537  15.568   2.927 -0.1032 -0.1649 -0.0161
16626W        W35480  13.657   8.628  11.545 -0.0335  0.1732  0.0335
16627W        W35481   3.854  16.667  14.046  0.0393 -0.0181 -0.1587
16628W        W35482   1.396  10.145  12.493 -0.0231  0.3214 -0.3477
16629W        W35483  16.985  14.189  13.234 -0.4822 -0.2536 -0.0207
16630W        W35484   0.669  14.024   0.828  0.1570 -0.1029 -0.0764
16631W        W35485  12.397   5.417   1.630 -0.2487 -0.2372 -0.1902
16632W        W35486   4.013  18.057  11.105 -0.3239  0.1317 -0.2349
16633W        W35487   8.220  15.010  10.986 -0.2410  0.3056 -0.0949
16634W        W35488  16.662   5.776   3.742  0.0415 -0.0070  0.1423
16635W        W35489   3.874   1.762   3.296  0.1446  0.1873  0.0697
16636W        W35490   3.100   8.515  13.817 -0.1149 -0.3733 -0.0521
16637W        W35491  18.739  11.669  14.452 -0.3260  0.1036 -0.2466
16638W        W35492   1.717  12.780   1.574 -0.2487  0.0650  0.2075
16639W        W35493  15.138   3.067   1.160 -0.1018  0.0654 -0.0892
16640W        W35494  11.301   4.151  12.235 -0.1734  0.1244 -0.0295
16641W        W35495  11.267   2.580   3.197  0.1824 -0.4517 -0.1404
16642W        W35496   4.394  13.015   3.280  0.0188  0.2095  0.0435
16643W        W35497  15.917   0.889  12.390 -0.0442 -0.0467  0.0351
16644W        W35498   7.713  13.215   3.428 -0.3138 -0.3402  0.2370
16645W        W35499   4.193   3.130   0.110 -0.0273  0.2751 -0.0549
16646W        W35500  14.245   5.981   0.481  0.0224 -0.1128 -0.1505
16647W        W35501   4.408  14.666  12.122  0.2938 -0.2047  0.3806
16648W        W35502   7.215   1.372  10.112  0.1778 -0.0082 -0.0680
16649W        W35503  12.631  14.729   3.443 -0.2451  0.1814 -0.0653
16650W        W35504   1.839   4.125   4.313 -0.0915  0.2419  0.1407
16651W        W35505   7.979   5.923   5.289  0.0342 -0.2293 -0.2679
16652W        W35506  11.109  16.042  12.364  0.1015  0.1336 -0.1825
16653W        W35507  14.960   9.224   1.638 -0.3217  0.3088  0.0188
16654W        W35508   2.271  12.925  13.881  0.0382 -0.3081  0.1669
16655W        W35509   6.030   4.817   1.369  0.1200 -0.1848 -0.0043
16656W        W35510   8.693  18.622   2.285  0.1087 -0.2708 -0.3955
16657W        W35511   9.851  15.229  13.787 -0.3731  0.1077 -0.0976
16658W        W35512  16.339   5.450   0.759 -0.1431  0.0862  0.1107
16659W        W35513  12.102  19.110   3.823  0.0709  0.2351 -0.0845
16660W        W35514   8.461   9.344   2.115 -0.1856 -0.0319  0.1530
16661W        W35515   2.876   2.007   1.926  0.0232 -0.0558  0.1466
16662W        W35516   2.751   0.322  12.323 -0.0492  0.2542  0.1849
16663W        W35517  18.795  13.099   0.531 -0.0457  0.0296  0.1597
16664W        W35518  18.318  10.438   3.692 -0.0887 -0.0838  0.3318
16665W        W35519  13.585   4.252   1.792 -0.1089  0.0604  0.1738
16666W        W35520   9.555  14.922  12.001  0.0210 -0.1353 -0.0965
16667W        W35521  13.503   4.550   2.649  0.1445  0.1532 -0.0223
16668W        W35522  15.864   1.414   3.689 -0.2463  0.0554  0.0770
16669W        W35523  11.277   7.438   2.782  0.3036 -0.3111  0.0991
16670W        W35524   0.675   7.053   3.905 -0.1921 -0.2749  0.1658
16671W        W35525   5.230   3.161   3.139  0.0320 -0.0813 -0.1228
16672W        W35526  16.125   9.218  14.613 -0.0867  0.0738  0.0563
16673W        W35527   7.161  11.748  13.132  0.0755 -0.0449 -0.0745
16674W        W35528   8.382  15.789  13.079  0.1303  0.0695 -0.0594
16675W        W35529   5.127   6.930   9.604 -0.2470  0.5166  0.2007
16676W        W35530  14.435   1.396   0.003 -0.0865  0.1889  0.2762
16677W        W35531   1.488   6.883  12.836 -0.2248 -0.1868 -0.1667
16678W        W35532   5.213   6.500   0.613 -0.1570  0.0348 -0.1395
16679W        W35533  11.530   5.783   4.410 -0.2351 -0.1144  0.1129
16680W        W35534   5.119   5.225  11.391  0.1578 -0.1256  0.1971
16681W        W35535   8.297  16.436   3.218  0.4108 -0.1751 -0.0976
16682W        W35536  18.716  11.408  10.962  0.1653 -0.2450  0.3209
16683W        W35537   4.351  19.148  10.238  0.0622 -0.1022 -0.0792
16684W        W35538  14.833  10.987  13.673 -0.0935 -0.0042  0.3280
16685W        W35539   6.564  15.233  12.715  0.0400 -0.1584  0.0501
16686W        W35540  18.658   0.354   3.852 -0.2387 -0.1886  0.1212
16687W        W35541   7.364   6.314   0.284 -0.2341 -0.0128  0.0347
16688W        W35542   2.428   7.050  11.439  0.3015 -0.0755  0.0286
16689W        W35543  13.417   3.477   2.769  0.1082  0.2077 -0.4170
16690W        W35544  14.505  15.622   9.437  0.1071 -0.0367  0.3159
16691W        W35545   9.215   5.947   2.680  0.0123 -0.0995 -0.0910
16692W        W35546  15.746   6.933   1.399 -0.2544 -0.3183  0.1654
16693W        W35547   2.643   4.477  13.455 -0.3610  0.0474 -0.0428
16694W        W35548   3.668   9.892   0.696  0.1124  0.1929 -0.0398
16695W        W35549   2.469  18.199   0.146 -0.1071 -0.0789  0.2271
16696W        W35550  11.447   4.446  13.271  0.1250  0.0378  0.0374
16697W        W35551   4.091   2.499   4.068  0.0461  0.1688  0.0971
16698W        W35552   1.025   5.839   2.764 -0.3015  0.0641  0.0752
16699W        W35553  16.343  10.504   2.855 -0.1560 -0.0987  0.2619
16700W        W35554   8.545  15.670  10.336  0.2768 -0.0875  0.1875
16701W        W35555   8.919   4.726   4.275 -0.0542 -0.3279  0.3890
16702W        W35556   3.995   2.244  10.596 -0.2350  0.0224 -0.0674
16703W        W35557   8.309  15.223  11.413  0.0023 -0.2238  0.0822
16704W        W35558   9.659   2.553  11.006 -0.3063 -0.0923 -0.1448
16705W        W35559  17.310   4.194  13.409 -0.0332  0.0805 -0.2834
16706W        W35560   0.109  15.503   3.146 -0.2620  0.2427 -0.2786
16707W        W35561   6.553  13.140  11.629 -0.2217  0.0941 -0.0891
16708W        W35562   7.657   5.744  14.513  0.0643  0.1194  0.1403
16709W        W35563  16.782  10.024  11.207 -0.1284  0.2003  0.0344
16710W        W35564  15.936   6.494   2.790  0.2028 -0.4342  0.1510
16711W        W35565  11.979  16.493   0.576  0.3068 -0.0118 -0.1988
16712W        W35566  12.027   6.168  12.502 -0.1334 -0.3344 -0.1691
16713W        W35567  12.038   1.507   0.649  0.0212 -0.1806  0.0706
16714W        W35568  19.148  17.336  11.687  0.1421  0.3532 -0.1044
16715W        W35569  18.463   0.413   3.300  0.0212  0.1080  0.1705
16716W        W35570   0.008   3.969  13.992  0.1920  0.2024  0.2561
16717W        W35571  11.387   0.633   0.962 -0.2232 -0.0683 -0.1083
16718W        W35572  15.927  11.620  12.808  0.0471  0.0559 -0.0060
16719W        W35573  14.789  19.010   4.244  0.0718 -0.3438 -0.0273
16720W        W35574  14.489   8.742  14.744  0.0951  0.2729 -0.0650
16721W        W35575   8.661  10.131  11.286 -0.1719 -0.1925 -0.2913
16722W        W35576   1.113  18.754   2.740 -0.1013  0.1605 -0.1342
16723W        W35577  12.604   2.994  11.366 -0.1940  0.0513  0.0322
16724W        W35578  17.461   6.930   1.969  0.4592 -0.1565 -0.0277
16725W        W35579  13.043  12.003   1.830  0.1573 -0.0854 -0.1241
16726W        W35580   0.949   7.547  14.235  0.1100  0.1840 -0.5122
16727W        W35581  16.144   6.204  11.943 -0.0111  0.1497 -0.0821
16728W        W35582   9.794  17.505  14.725  0.0308 -0.0022  0.0975
16729W        W35583   2.169   8.115  11.935  0.2755 -0.1560  0.1392
16730W        W35584   2.453   1.974   3.037  0.1393 -0.0432  0.1741
16731W        W35585  17.814  12.679   4.349 -0.0729  0.0538  0.3580
16732W        W35586   3.583  12.705   3.567  0.1467  0.1113  0.0491
16733W        W35587   9.016  16.843  14.423 -0.1274  0.1950  0.0177
16734W        W35588   4.419   1.692   4.230 -0.0287  0.1741 -0.2480
16735W        W35589  14.664  13.646  12.310 -0.1934 -0.2002 -0.2862
16736W        W35590   8.184   3.521  13.038  0.0370  0.1341  0.1944
16737W        W35591  16.076  17.161   3.339  0.0719 -0.1068  0.0985
16738W        W35592  15.399   9.984  14.561  0.1057  0.0244 -0.1240
16739W        W35593  14.690   9.649   4.808 -0.0842 -0.1936  0.0376
16740W        W35594  15.590   7.178   1.006 -0.1415 -0.2831 -0.0835
16741W        W35595   9.522   6.790  10.875  0.5007  0.2799 -0.1637
16742W        W35596   3.441  10.092   3.842 -0.0390 -0.3593  0.1281
16743W        W35597  12.967  14.240  14.633 -0.1706 -0.0572  0.1278
16744W        W35598  15.523  15.476   1.999 -0.0834  0.3747  0.2733
16745W        W35599   9.318   1.561  11.923  0.1885 -0.3190  0.0568
16746W        W35600  12.631  11.737  11.947  0.0340  0.1766  0.0151
16747W        W35601  15.085  16.129  14.541 -0.2692  0.1993  0.2172
16748W        W35602   1.527   7.442   2.100 -0.1375  0.2765 -0.4162
16749W        W35603   9.134  15.356  12.311  0.2663 -0.0429  0.0128
16750W        W35604   9.960   2.117  11.284 -0.0743  0.0451  0.0745
16751W        W35605  10.328   5.489   4.436 -0.3127 -0.1055 -0.3784
16752W        W35606   1.786   3.167  12.046  0.3389  0.3307  0.1706
16753W        W35607   4.751  18.822   2.214 -0.3294 -0.0879  0.3774
16754W        W35608  18.541   2.592  12.603 -0.2856 -0.2534  0.2062
16755W        W35609  16.275   8.564   1.573 -0.0653  0.1210 -0.0559
16756W        W35610  14.576   2.857   2.483 -0.0810 -0.1192  0.1034
16757W        W35611   8.085   2.037  12.407 -0.2229 -0.0712  0.2997
16758W        W35612   8.071   1.735  10.187 -0.0257  0.3252 -0.1737
16759W        W35613  11.733  15.577  14.176  0.1069  0.1163  0.2804
16760W        W35614  18.282   5.428   3.846  0.1618  0.0735 -0.4286
16761W        W35615   0.475  18.179  13.820  0.0808 -0.0481  0.0980
16762W        W35616   6.539  18.312  13.133  0.2195 -0.0362  0.0490
16763W        W35617  12.780   7.539   2.239  0.0018  0.1496 -0.1733
16764W        W35618  18.614   2.204  10.869 -0.2323  0.0987  0.3124
16765W        W35619   3.503   9.884   2.077 -0.3234  0.0419  0.2763
16766W        W35620   5.871   9.427  14.697 -0.0624  0.0341  0.1205
16767W        W35621   0.435  10.493  14.786  0.1422 -0.4553 -0.1127
16768W        W35622   1.879  14.090  12.827 -0.1833  0.2433 -0.0046
16769W        W35623   5.153   3.792  10.757  0.0472 -0.2173  0.0218
16770W        W35624   6.681   6.601  14.278  0.1607  0.0945  0.3093
16771W        W35625   9.699  14.351   2.521 -0.0686 -0.1026  0.2585
16772W        W35626   7.102   0.884   4.472  0.2466 -0.1411  0.1521
16773W        W35627   9.960  11.598   3.788  0.1350 -0.0005  0.2054
16774W        W35628  14.494  14.921  10.465  0.1635 -0.2077  0.1862
16775W        W35629   2.201  10.629   1.114  0.1604  0.1680  0.3256
16776W        W35630   9.005  14.924  12.028  0.2416  0.0288  0.2331
16777W        W35631  13.743   7.504   3.881 -0.1521  0.0805  0.1090
16778W        W35632   8.039  13.572   2.356 -0.1673  0.1610  0.1459
16779W        W35633  11.716   1.518  13.774  0.0480 -0.2350 -0.2012
16780W        W35634  15.473  10.512   1.011 -0.1702  0.3363  0.0765
16781W        W35635   5.604  14.435   2.769 -0.0256  0.2024  0.0594
16782W        W35636   9.229  18.192   0.766  0.1784  0.1312  0.2473
16783W        W35637   2.004  14.088  14.591 -0.2901  0.3165 -0.0769
16784W        W35638  14.131  16.797  14.010 -0.1738  0.1912 -0.3193
16785W        W35639  18.662   7.346   0.409 -0.0671  0.0236 -0.2403
16786W        W35640   1.276  18.233  11.810 -0.5152  0.3446 -0.0352
16787W        W35641   0.674  11.251   1.642 -0.1194 -0.2382  0.0536
16788W        W35642  15.348  16.254  10.586  0.1076 -0.0581 -0.3122
16789W        W35643   2.320   8.821   4.992 -0.1629  0.0075  0.0482
16790W        W35644   7.940  17.188   1.791  0.0610 -0.2106 -0.0921
16791W        W35645   1.598   5.205  12.625 -0.2251  0.0795  0.1847
16792W        W35646   9.196   9.505   3.740  0.1391 -0.1405  0.2945
16793W        W35647  15.077   0.938   4.094  0.2285 -0.0922 -0.0810
16794W        W35648   0.323   6.590  13.600  0.1926 -0.2558  0.1646
16795W        W35649   5.066  18.948  11.097  0.2246  0.1542 -0.0920
16796W        W35650  16.502  16.858  11.992 -0.0266 -0.0880  0.0698
16797W        W35651  14.581   5.467   2.785 -0.0782  0.3291 -0.2402
16798W        W35652  10.586   3.019  11.179 -0.2242  0.0950  0.0779
16799W        W35653   9.105   2.857   3.224  0.0815 -0.0071  0.0342
16800W        W35654  14.254   3.165   3.955  0.2018 -0.1565  0.0344
16801W        W35655   2.343   3.560   1.909 -0.3367 -0.0938  0.0086
16802W        W35656   9.562  15.861  14.468 -0.0615  0.0335  0.4260
16803W        W35657  17.457  12.864  14.399  0.2976 -0.0729  0.0202
16804W        W35658  17.980  15.466  13.792 -0.0776  0.5812  0.1459
16805W        W35659   9.557   9.264   2.858 -0.1063 -0.0838 -0.0145
16806W        W35660  10.633   1.329  14.294  0.0809 -0.2796  0.1248
16807W        W35661   3.843   9.847   4.025 -0.3266 -0.2397  0.1525
16808W        W35662  17.107   0.809   3.187 -0.1788 -0.0080  0.2151
16809W        W35663  15.126   7.020   1.871  0.1479  0.0260  0.0242
16810W        W35664   3.260   0.702   1.540  0.2494 -0.2331 -0.2865
16811W        W35665   1.167   9.175  11.279  0.0625  0.2868 -0.1164
16812W        W35666   8.599  13.589   1.614  0.2549  0.2904  0.0544
16813W        W35667   8.538  17.986   1.263  0.1828  0.2194 -0.0704
16814W        W35668   1.403   8.296   2.230  0.0444 -0.3621  0.0102
16815W        W35669  16.866  10.482   9.999  0.2437 -0.1597  0.1552
16816W        W35670   7.116  10.625   2.262  0.2968  0.0022  0.1102
16817W        W35671  10.979  11.473  14.573  0.1963  0.0220  0.2141
16818W        W35672  12.854   8.344  10.956  0.1275 -0.0139 -0.0806
16819W        W35673  11.450  15.516  14.597  0.1476 -0.0928  0.0770
16820W        W35674  12.925   9.428   1.835 -0.0752  0.0145  0.0624
16821W        W35675  14.003   3.469  13.057  0.0894  0.0973 -0.0798
16822W        W35676   5.289   0.177   9.418  0.1181 -0.0279  0.2185
16823W        W35677  18.487  12.338   2.749 -0.0620 -0.0093 -0.0483
16824W        W35678   0.760   7.773  14.740 -0.2516 -0.0232 -0.2657
16825W        W35679  13.207  14.952   2.743  0.3035  0.1910  0.1430
16826W        W35680  15.555   5.623   1.117  0.1750 -0.4242  0.4107
16827W        W35681  10.070  13.057  14.122  0.0866 -0.1687 -0.0498
16828W        W35682   7.906   4.549  12.226  0.0854  0.1649 -0.0583
16829W        W35683   3.887   9.771   3.074  0.2376  0.1617 -0.1606
16830W        W35684   0.548  11.121  12.397 -0.1847  0.0630  0.2559
16831W        W35685  11.883  11.702  10.188  0.1570  0.1728 -0.3543
16832W        W35686   3.712  17.990  14.549  0.1247  0.0503  0.1395
16833W        W35687  16.396  16.106   3.076  0.1639  0.0546 -0.0291
16834W        W35688   9.082   6.289  11.703  0.1274  0.1393 -0.2977
16835W        W35689   7.333  16.070   0.354 -0.0139 -0.2126 -0.2955
16836W        W35690   4.728   7.950  11.766 -0.2017 -0.0948  0.0989
16837W        W35691   4.132   7.420   0.478 -0.1792 -0.2782 -0.2153
16838W        W35692   9.746   5.004  10.860  0.0457 -0.1887 -0.0223
16839W        W35693  15.547   2.603  14.633 -0.1051 -0.1106 -0.0444
16840W        W35694   2.631  15.118  11.125  0.3248 -0.0084 -0.0838
16841W        W35695  18.886   2.959   2.566 -0.4243  0.4921  0.1263
16842W        W35696   7.903  10.004   3.737 -0.2523  0.1753 -0.0616
16843W        W35697  16.956   5.043  13.550  0.1082  0.1174 -0.1626
16844W        W35698   1.067  18.227   2.600  0.2382 -0.0669 -0.0384
16845W        W35699  11.952  18.070   2.955 -0.4577 -0.1433 -0.0500
16846W        W35700  17.301   9.774   2.328  0.2339  0.2247  0.2522
16847W        W35701   9.142   5.095   3.890 -0.2647  0.0302  0.0117
16848W        W35702   3.830  11.986   1.517  0.1386  0.2087  0.1516
16849W        W35703  11.234   3.160  13.976 -0.2378 -0.2479  0.1657
16850W        W35704  15.152  17.589  14.322  0.1214 -0.0754  0.0946
16851W        W35705   4.642   2.510  11.873 -0.0318  0.0496 -0.0277
16852W        W35706  17.825   3.256  13.901 -0.3657 -0.1969  0.3334
16853W        W35707   1.024  14.042  11.849 -0.0092  0.2008  0.0739
16854W        W35708   0.063  11.246   4.191 -0.2115 -0.0402  0.0233
16855W        W35709   2.282  18.714  13.544  0.2310  0.0878  0.3636
16856W        W35710   1.439  14.800  10.532 -0.2046  0.0030 -0.0106
16857W        W35711   0.686   0.255  12.846  0.0300 -0.1972 -0.0074
16858W        W35712  14.036  12.555  14.686 -0.0513 -0.1837  0.1448
16859W        W35713  14.959  16.504   0.698  0.1514 -0.0668 -0.0561
16860W        W35714   7.868  17.901  13.766 -0.1799 -0.2251  0.1125
16861W        W35715  16.785  10.030  14.485  0.4172 -0.2865 -0.0301
16862W        W35716   2.673  15.933   2.501  0.0739 -0.1313  0.0911
16863W        W35717   2.889   3.137  13.651 -0.1227  0.1142 -0.3978
16864W        W35718   6.828  11.746   3.770 -0.2619  0.1047 -0.0858
16865W        W35719   0.910   1.741  14.152  0.3209 -0.0832 -0.1528
16866W        W35720   2.327   9.699  12.566 -0.1562 -0.2494  0.2297
16867W        W35721  11.512   2.231  12.386  0.0600 -0.0183 -0.1793
16868W        W35722  17.543  15.491   2.856  0.0541 -0.3488 -0.0775
16869W        W35723   4.297   4.147  10.370  0.1996 -0.1726  0.2270
16870W        W35724  10.715   6.732   0.090  0.2182 -0.2066 -0.2431
16871W        W35725  18.327  14.234  11.642 -0.1232 -0.2184 -0.1854
16872W        W35726   8.647   2.203   1.555  0.1245 -0.1684 -0.2412
16873W        W35727  11.174   3.899  12.673 -0.4571  0.1489 -0.2298
16874W        W35728   8.852  12.722   3.191 -0.1218 -0.2797  0.1406
16875W        W35729   6.138  18.683   2.546 -0.4469 -0.0466  0.2941
16876W        W35730  12.500   3.567   3.770 -0.2176 -0.0213 -0.1512
16877W        W35731  19.119   5.226   0.977 -0.0703 -0.2738  0.0749
16878W        W35732  13.348   0.322  10.675 -0.0756  0.0301 -0.1733
16879W        W35733   1.414   8.359   3.847 -0.5878 -0.0777  0.1650
16880W        W35734  14.349  14.896  12.911 -0.1722  0.3142 -0.1619
16881W        W35735   2.524  14.127   3.738  0.0999 -0.2164 -0.1124
16882W        W35736   0.240  12.309   0.110 -0.0676  0.3398  0.0123
16883W        W35737   4.977  15.614   4.023 -0.0256  0.1226  0.1550
16884W        W35738  18.845  11.064   0.717 -0.2079  0.1834  0.1142
16885W        W35739   2.566   1.654   3.985  0.1346  0.3719  0.1931
16886W        W35740  18.148  11.233  13.057 -0.0367  0.3554  0.0100
16887W        W35741  16.251   4.535   3.476 -0.0484  0.0780 -0.0351
16888W        W35742  14.293   1.191  13.968  0.1960  0.1482  0.0590
16889W        W35743  12.791  13.391   2.379 -0.1136  0.1945 -0.2343
16890W        W35744  18.826   0.587   2.885  0.2330  0.1140 -0.0016
16891W        W35745  18.891   6.250   0.112  0.0893  0.0954 -0.2623
16892W        W35746  15.607  18.924  11.867 -0.1674 -0.1758  0.1119
16893W        W35747   7.091  15.231  10.646  0.0689 -0.0459  0.0669
16894W        W35748   6.388  13.103   5.221  0.4975 -0.0988 -0.2273
16895W        W35749  10.311   5.001  12.289  0.0608  0.3589  0.2640
16896W        W35750   1.894   3.159   1.359 -0.0183  0.0894 -0.0720
16897W        W35751  12.181   1.465  13.961  0.0375 -0.0339  0.2008
16898W        W35752   3.723   6.277   0.843  0.0221  0.1458  0.1965
16899W        W35753   3.328   7.664  14.394 -0.0742 -0.2294  0.0472
16900W        W35754   2.415  12.202  13.549  0.1532  0.1780 -0.3152
16901W        W35755   7.579   7.432  12.913 -0.2334 -0.1604 -0.0570
16902W        W35756  15.406  13.590  13.551  0.1870  0.0307  0.0591
16903W        W35757  16.270   1.928  14.706  0.1708 -0.0998 -0.2259
16904W        W35758  12.422   9.328  13.049  0.2221  0.1171 -0.1269
16905W        W35759  10.573  16.580  13.277  0.1251 -0.2083  0.1268
16906W        W35760   5.456   4.614  13.061  0.3373  0.1513  0.1766
16907W        W35761  10.605  12.773  12.294 -0.1594 -0.4765 -0.2920
16908W        W35762   0.134   1.572   0.629 -0.2817  0.0251 -0.4093
16909W        W35763  10.512  12.362   0.500 -0.1031 -0.1033  0.0084
16910W        W35764   1.194  14.226  10.426  0.1756  0.0941 -0.1099
16911W        W35765  17.587   9.608   0.887 -0.1809  0.0924 -0.2231
16912W        W35766  10.232   5.641  14.436 -0.2211 -0.1159 -0.0272
16913W        W35767   7.338   7.200  14.743  0.1973  0.1972  0.1371
16914W        W35768   6.952   4.657   2.091 -0.3200 -0.1691  0.1188
16915W        W35769   8.341  16.196  13.975  0.1819  0.1849 -0.1390
16916W        W35770   6.169   8.024   2.683 -0.0772 -0.1530 -0.1590
16917W        W35771   0.404  18.390   2.466 -0.0535 -0.3207  0.2118
16918W        W35772  11.967  18.349   0.130  0.2649  0.0476  0.1822
16919W        W35773   3.318  12.861  11.256  0.1319  0.1594 -0.1209
16920W        W35774   6.399   1.308  11.590  0.2243  0.0591 -0.0449
16921W        W35775   8.526  13.579   2.705 -0.2144 -0.4634  0.3281
16922W        W35776   0.942  14.817  11.348  0.2232  0.0903  0.0601
16923W        W35777   0.755   9.696  13.039  0.1555 -0.0364 -0.1574
16924W        W35778   0.467   7.825  12.293 -0.1898 -0.2365  0.2492
16925W        W35779  13.528  13.023  10.928 -0.0900 -0.3647  0.1800
16926W        W35780  19.039   1.040  11.916  0.0065 -0.1109  0.0292
16927W        W35781  10.835  16.644   1.472  0.0638  0.1708  0.3546
16928W        W35782  13.204  17.425  13.148  0.0152  0.1080  0.0460
16929W        W35783  13.559  15.682  13.173 -0.0092 -0.0608  0.0764
16930W        W35784   1.460  16.121   2.042 -0.0961  0.1688 -0.3018
16931W        W35785  10.353  11.139   0.296  0.2443  0.2129 -0.3425
16932W        W35786  12.034  11.183  13.256  0.3532 -0.1000 -0.3275
16933W        W35787   2.985   9.519  14.231 -0.2527 -0.1871 -0.1614
16934W        W35788   7.032   5.170  14.734  0.2252  0.0421  0.4023
16935W        W35789   3.916   0.166   5.256  0.0695  0.0127  0.1044
16936W        W35790  16.750  19.050  12.499 -0.1962 -0.2096  0.0813
16937W        W35791   6.997   7.518  11.370 -0.1061 -0.0776  0.1923
16938W        W35792   1.292  17.093  12.882 -0.1359  0.1956  0.0658
16939W        W35793   3.389   6.417  13.915 -0.0169  0.0384 -0.0343
16940W        W35794  14.909  18.127  10.680  0.0903  0.0301 -0.0074
16941W        W35795   8.105   2.036   2.324 -0.0207  0.3703 -0.0024
16942W        W35796  18.075  14.286  12.079  0.0647  0.2028 -0.2204
16943W        W35797   5.928  15.397   3.734  0.1770  0.2913 -0.1168
16944W        W35798  10.284  18.173   1.314  0.2776  0.2689 -0.4078
16945W        W35799  18.189  11.900  11.180 -0.1949 -0.3677 -0.0319
16946W        W35800  14.328  12.613  11.798  0.1994  0.1682  0.0223
16947W        W35801   8.599   1.599  10.352 -0.0346  0.1226 -0.1159
16948W        W35802   5.900   7.850  14.483 -0.0986  0.2764 -0.1448
16949W        W35803  15.285   9.551   1.857 -0.0417  0.2960  0.0415
16950W        W35804  18.179   9.269  10.866  0.0292 -0.2178 -0.0719
16951W        W35805   1.209  12.111   3.741  0.2106  0.0037 -0.4139
16952W        W35806   0.381   9.491  11.915  0.0071  0.1782 -0.2239
16953W        W35807  12.231  14.879  11.492  0.1997 -0.0311 -0.3709
16954W        W35808  13.902  18.017  11.997 -0.2738 -0.0040  0.2251
16955W        W35809   0.419  14.311  14.093 -0.3815  0.0394  0.0607
16956W        W35810  14.674  17.227   2.308 -0.1493 -0.1399  0.3189
16957W        W35811  14.697  15.796   2.314 -0.0180  0.1112  0.0008
16958W        W35812   3.974  14.939  14.653 -0.1031 -0.0733  0.0374
16959W        W35813   5.476  16.526   3.602 -0.0463 -0.2354 -0.1101
16960W        W35814   7.201   2.516   4.006  0.4638 -0.2973  0.0962
16961W        W35815   3.616   9.228  12.492 -0.0766 -0.2729 -0.2317
16962W        W35816  13.427  16.236   0.406  0.0715 -0.1511  0.1868
16963W        W35817   3.010   4.569   1.183 -0.0258  0.1318  0.2700
16964W        W35818   8.343   6.945  14.747  0.2386  0.3158  0.0532
16965W        W35819  18.881   2.281   1.829  0.0514 -0.1656  0.0874
16966W        W35820   1.258   4.035   2.209 -0.1001  0.1058  0.1637
16967W        W35821   0.821  10.740   1.411 -0.1375  0.1809  0.0825
16968W        W35822   9.584   2.802   3.314  0.0967 -0.0421 -0.0110
16969W        W35823   1.337   3.310   1.465  0.0834 -0.1214 -0.1939
16970W        W35824   7.307   0.558   1.747 -0.0085  0.1632  0.2459
16971W        W35825   9.435  17.784  11.235 -0.1009 -0.3518 -0.1339
16972W        W35826  13.226   0.519  11.243  0.2248  0.1915  0.0468
16973W        W35827  10.826  18.664  12.839  0.1597  0.0679  0.2202
16974W        W35828  14.197   3.890  13.218  0.1103  0.3043 -0.0181
16975W        W35829   7.768   4.567  13.733  0.0384 -0.5305  0.2008
16976W        W35830  18.782   6.566  13.151 -0.0105  0.3068 -0.1471
16977W        W35831   7.944  15.244   1.171  0.0293  0.0891  0.4347
16978W        W35832   9.146  16.161  12.044 -0.0578  0.1431  0.2141
16979W        W35833  14.440  17.713  11.664  0.3741 -0.1160  0.0708
16980W        W35834   7.746   5.130   3.218  0.1662 -0.2676  0.3744
16981W        W35835   4.780  14.841  13.270  0.1686  0.2906  0.0338
16982W        W35836   3.856   1.848   5.408 -0.0458  0.2620 -0.0266
16983W        W35837   8.744  13.634  13.774  0.0208  0.0342  0.1446
16984W        W35838  15.554   2.809   3.833 -0.0917 -0.2051 -0.3464
16985W        W35839  19.043  18.648   3.561  0.0263  0.1865 -0.0201
16986W        W35840   2.514   0.242  11.878 -0.0565  0.1861  0.1497
16987W        W35841  11.706  17.473  13.063 -0.0041  0.3644  0.0950
16988W        W35842  15.288  17.433  14.791  0.1351  0.1103 -0.0444
16989W        W35843   7.433   4.802   0.785 -0.1581  0.2102 -0.0701
16990W        W35844   1.584  12.785   4.161  0.1720 -0.1461 -0.0002
16991W        W35845  15.362  18.506  11.667 -0.1631  0.0199 -0.1328
16992W        W35846   4.716  10.823   0.488  0.0125  0.0121 -0.0829
16993W        W35847  16.257   9.324  11.069  0.1022 -0.2039 -0.0358
16994W        W35848   8.228   5.036  13.230 -0.0817  0.0658  0.3576
16995W        W35849  16.073  16.416  14.504 -0.2104 -0.0013  0.0180
16996W        W35850   9.658   7.026   2.597 -0.0266 -0.0708 -0.0643
16997W        W35851   5.885   1.854   1.552 -0.0394  0.2835  0.1247
16998W        W35852  14.808  15.367   0.333  0.0306  0.2738 -0.0600
16999W        W35853  13.784   0.350  12.908 -0.0218 -0.0370  0.1076
17000W        W35854   4.644  14.022  11.198 -0.0196 -0.0200 -0.0771
17001W        W35855  11.660   9.405  13.233 -0.0183 -0.3449  0.1339
17002W        W35856   6.536  10.167   4.119 -0.0741 -0.3281  0.0312
17003W        W35857  13.598   5.438   0.019 -0.1329 -0.4083 -0.3590
17004W        W35858  12.330   9.095   1.246  0.0372  0.0723  0.2122
17005W        W35859   4.794   5.523   2.748  0.4763 -0.3009 -0.2019
17006W        W35860  11.421   3.615  13.426 -0.1043 -0.1037 -0.0310
17007W        W35861   5.168   4.813  12.732  0.3092 -0.0446  0.1409
17008W        W35862   3.524   6.115  14.550 -0.0505 -0.0959  0.3745
17009W        W35863   2.808  19.013   3.627  0.4583  0.2056  0.1985
17010W        W35864  11.660  10.178   4.288  0.1119  0.3780  0.2332
17011W        W35865  16.943   5.481   4.050  0.1948 -0.0291  0.0180
17012W        W35866  18.480  18.691   1.415 -0.2108 -0.4874  0.0575
17013W        W35867   1.382   3.835   4.770 -0.2446  0.1401  0.0223
17014W        W35868   8.559  18.758   0.886 -0.1149 -0.0300 -0.1168
17015W        W35869   7.994   7.517   0.492 -0.0146  0.0593  0.2019
17016W        W35870  12.687  18.381   2.842 -0.1732  0.0511  0.0417
17017W        W35871  16.558  13.813   2.578 -0.2467  0.1886  0.3497
17018W        W35872  10.491   6.944  14.470 -0.0336  0.1334 -0.0650
17019W        W35873   7.061   0.201  14.242  0.1986 -0.0688 -0.0631
17020W        W35874  13.983  14.895   3.958  0.2614 -0.1343  0.3070
17021W        W35875  12.811   4.814  11.266 -0.1364 -0.1595  0.1558
17022W        W35876   2.450  12.185   3.332 -0.4395 -0.0678 -0.0042
17023W        W35877   1.696  16.674   2.004 -0.0787 -0.5243  0.0143
17024W        W35878   3.109  10.032   1.594  0.3069  0.0615 -0.1516
17025W        W35879  17.952  12.461   2.784 -0.1805 -0.0023 -0.1664
17026W        W35880  16.902  14.483  12.089 -0.2058 -0.3571 -0.0473
17027W        W35881  14.713  13.588   0.084 -0.1661  0.1682  0.1077
17028W        W35882  10.893  18.974   2.667 -0.0812  0.2096  0.0608
17029W        W35883   5.297  17.000  12.636 -0.2547  0.2388  0.0447
17030W        W35884  13.215  14.155  12.710 -0.0498 -0.3491 -0.1131
17031W        W35885   0.335   1.123   1.600  0.1763  0.0705 -0.1208
17032W        W35886   1.365   0.593   3.522  0.2918 -0.2097 -0.2087
17033W        W35887   0.986  13.793  11.405 -0.1058  0.2542 -0.1393
17034W        W35888   5.962   6.687  11.888 -0.0805 -0.1213 -0.1797
17035W        W35889  18.590  13.606   0.541 -0.0179  0.2762  0.0317
17036W        W35890   7.893   8.942   0.598 -0.0664  0.0495  0.0127
17037W        W35891   4.038   5.218   3.298 -0.1817 -0.4267 -0.2253
17038W        W35892  15.814   3.646   1.618 -0.1703  0.0788 -0.2303
17039W        W35893  15.035  16.287   3.374 -0.2740  0.1284 -0.0144
17040W        W35894  17.850  19.115  14.583  0.0233 -0.1841 -0.2455
17041W        W35895   4.347  11.033   3.457  0.0079 -0.0927  0.0213
17042W        W35896  16.357  17.333   1.715 -0.0751 -0.2334 -0.1076
17043W        W35897  11.786  10.599   4.482  0.0371  0.0570  0.2072
17044W        W35898  10.805   3.477  11.210  0.2713  0.1641 -0.0348
17045W        W35899  12.431   6.038   4.141 -0.1185 -0.0453 -0.0945
17046W        W35900   9.772   6.969  12.148  0.3667  0.0654  0.1748
17047W        W35901  13.176   2.364   0.225 -0.3119 -0.0388  0.1167
17048W        W35902   2.551   5.142  11.078 -0.0292 -0.0156 -0.2488
17049W        W35903   6.151   2.757   3.188 -0.3008  0.2000 -0.3194
17050W        W35904   8.903   6.766  14.294  0.0938 -0.2994  0.0810
17051W        W35905   2.778  12.515   2.724 -0.2377 -0.1523  0.0515
17052W        W35906  17.603   1.565  13.452  0.1169  0.0578 -0.1172
17053W        W35907   4.523   6.405   1.165 -0.0031 -0.2533 -0.4775
17054W        W35908   8.041   2.842  11.603  0.0072  0.0890 -0.1118
17055W        W35909   6.231  11.707  12.188  0.0499 -0.3285 -0.4176
17056W        W35910   4.579   3.907   3.652  0.3882  0.1506  0.0930
17057W        W35911   4.397   4.210  14.074  0.2215  0.2303  0.0666
17058W        W35912   4.680  18.849  12.095 -0.1425 -0.0249  0.0742
17059W        W35913  14.329   7.490  12.570  0.1809 -0.1701 -0.1090
17060W        W35914  18.352   8.014   3.489 -0.1108  0.3469  0.3812
17061W        W35915   6.997   0.341   2.243 -0.0504  0.0057 -0.0028
17062W        W35916   8.685  18.186  13.956  0.0234 -0.2737  0.3110
17063W        W35917  12.744   6.213  12.915  0.1026 -0.1638  0.0828
17064W        W35918   4.708  15.230   3.133 -0.3995 -0.0944 -0.1754
17065W        W35919  14.662  13.811   1.296 -0.0179  0.2931 -0.0592
17066W        W35920   4.965   5.520  10.667 -0.3099  0.1440 -0.1966
17067W        W35921   6.746  13.026  12.771  0.0578  0.0671 -0.0841
17068W        W35922   6.158  18.265  12.766 -0.4646  0.0885  0.2145
17069W        W35923  10.154  16.229  11.537  0.1055 -0.2426  0.1726
17070W        W35924  18.176  14.374   3.692 -0.0164  0.0208 -0.0097
17071W        W35925   6.278  15.656  12.291 -0.0125 -0.4922 -0.2526
17072W        W35926  16.880   4.269  14.397 -0.0988 -0.1152  0.5698
17073W        W35927  15.213  12.701   0.912 -0.0679 -0.0776  0.0133
17074W        W35928  12.182  12.129  13.477 -0.1558  0.1435  0.0075
17075W        W35929   5.397  14.007   0.342 -0.1634 -0.0728 -0.1306
17076W        W35930   2.236   4.018   4.047 -0.1898 -0.1641 -0.2643
17077W        W35931   6.465   0.871   3.069 -0.2161 -0.1266  0.0351
17078W        W35932  17.868  12.902  13.357  0.0483 -0.0368  0.0968
17079W        W35933   2.653   9.610   3.669  0.2627 -0.0079 -0.0898
17080W        W35934  15.089   0.344   1.248 -0.1272 -0.0730  0.1614
17081W        W35935  10.368   2.470  11.717 -0.1461 -0.6014  0.2547
17082W        W35936   4.174   2.491  10.988  0.1839  0.1027  0.1430
17083W        W35937   9.324   9.389  13.232  0.0125 -0.0287 -0.3649
17084W        W35938   5.236   9.801   3.488 -0.0009  0.4588 -0.0182
17085W        W35939   7.243   0.978  11.477 -0.2094  0.0579 -0.2899
17086W        W35940  16.545  16.575  10.559 -0.0815 -0.1989 -0.1946
17087W        W35941  11.455  14.731  12.013  0.0717 -0.0577  0.0177
17088W        W35942   9.896  12.854   0.009 -0.3691 -0.1116 -0.2068
17089W        W35943   9.137  11.412  10.795 -0.1725  0.0630  0.1677
17090W        W35944   5.220   3.427  12.858  0.0985  0.0928 -0.3779
17091W        W35945  14.578   4.073  12.391 -0.0529 -0.0870 -0.1557
17092W        W35946  10.955   7.940  13.891  0.1549 -0.0487  0.4621
17093W        W35947  17.827  16.072  14.544  0.0497 -0.1571  0.0545
17094W        W35948  12.477   7.553  12.422 -0.1225  0.1988  0.0505
17095W        W35949   3.957  13.628  12.875  0.1700  0.0174  0.0017
17096W        W35950   2.819   7.359  12.318  0.1535 -0.1271  0.0019
17097W        W35951   4.663  15.682   2.871  0.1818  0.0403 -0.0475
17098W        W35952  12.911   9.477   1.307 -0.1329 -0.0634  0.0298
17099W        W35953  17.140  13.335   3.224  0.1084 -0.1123  0.0131
17100W        W35954   1.641  11.125   2.727  0.2055 -0.2701 -0.2096
17101W        W35955   0.399  15.470   1.022 -0.2362  0.1837 -0.3609
17102W        W35956  17.058  13.265   5.211  0.0967 -0.4232 -0.1281
17103W        W35957  18.345   5.157   0.596 -0.0240 -0.2089  0.0107
17104W        W35958   1.468  11.191  10.043 -0.2524  0.0024  0.0915
17105W        W35959   7.946  16.445  12.635  0.0758  0.1594  0.0416
17106W        W35960   9.052  12.548   1.175  0.1570 -0.0185 -0.3409
17107W        W35961   5.732  17.412   3.377 -0.1475  0.1795  0.0251
17108W        W35962   3.715  14.412   3.392 -0.1259  0.1147 -0.0548
17109W        W35963  10.615   0.457   5.120  0.0492  0.1856 -0.2552
17110W        W35964  11.011  10.540  13.305  0.1824 -0.0321 -0.0572
17111W        W35965   2.741  18.280   3.091 -0.0372  0.1405 -0.0156
17112W        W35966  14.084   1.295  12.594 -0.3112 -0.1268  0.2265
17113W        W35967  10.063  17.384   3.646  0.0248 -0.0153 -0.3899
17114W        W35968  13.627   5.280   0.843  0.2281 -0.0143 -0.2606
17115W        W35969  16.184  12.323  13.395 -0.0639 -0.2043 -0.1517
17116W        W35970   1.855   7.759  14.085  0.2823 -0.0936 -0.2821
17117W        W35971   5.817   5.872  12.128  0.5793  0.1918 -0.0239
17118W        W35972   7.656   2.162  10.110  0.2697 -0.2423  0.1289
17119W        W35973   7.277  12.289  14.457 -0.1670 -0.2781  0.0430
17120W        W35974  16.882   8.599  13.625  0.1288  0.1165 -0.2367
17121W        W35975   9.524   6.855   5.366  0.0145 -0.1060 -0.2309
17122W        W35976   3.187  14.306  12.729  0.0771  0.1581 -0.0027
17123W        W35977   0.051  16.771  11.721 -0.1268 -0.1458  0.4215
17124W        W35978  11.301  12.654  11.714  0.0032 -0.0102 -0.0026
17125W        W35979   1.590   1.027   1.414 -0.0800 -0.0635  0.2794
17126W        W35980  12.720   6.537  11.602  0.0813  0.2107 -0.1149
17127W        W35981  16.155   8.089  10.997  0.0034 -0.1834  0.2547
17128W        W35982  18.482  17.247  11.076  0.3111  0.0109  0.0629
17129W        W35983  13.764   1.781  10.895 -0.3715  0.0198 -0.2480
17130W        W35984   6.015  16.909  11.568 -0.1626 -0.1676 -0.0783
17131W        W35985  12.026   3.666  14.485 -0.1567  0.0518  0.2782
17132W        W35986   3.605  16.619   3.182  0.0893  0.4655  0.1240
17133W        W35987   9.269   4.031   0.588 -0.0792 -0.0491 -0.0452
17134W        W35988   8.120   0.790   0.930  0.1525  0.1703 -0.0590
17135W        W35989   4.112  18.589   3.390  0.1272 -0.2454 -0.0246
17136W        W35990   0.975   2.671  11.195  0.0405  0.0900 -0.2671
17137W        W35991   4.816  18.212   3.015 -0.0442  0.1883 -0.1997
17138W        W35992  16.175  13.204   0.029  0.1189  0.0159 -0.0127
17139W        W35993  19.023   5.653   4.733 -0.2978 -0.1165  0.0103
17140W        W35994  15.416  14.562  13.269 -0.2351 -0.2626  0.1144
17141W        W35995   4.779   5.618   4.619  0.2870  0.1027  0.3426
17142W        W35996  16.801  14.335   0.818 -0.1158 -0.0136  0.1860
17143W        W35997  15.173   5.482   2.835  0.0495 -0.1384  0.1536
17144W        W35998   5.709   9.933   3.309  0.0109  0.1018 -0.0978
17145W        W35999  12.183  17.602   4.646 -0.1336 -0.2209  0.0826
17146W        W36000  16.444   3.169   2.805 -0.0868 -0.0693  0.0329
17147W        W36001  15.661  13.003   2.625 -0.0362  0.2332 -0.1513
17148W        W36002  15.626   2.428  11.463 -0.1040  0.4034  0.0854
17149W        W36003  12.508  16.584  14.188  0.1968  0.2687  0.1450
17150W        W36004  17.424   9.099  10.795  0.2345  0.0922 -0.2406
17151W        W36005   2.679   3.424   3.703  0.0776  0.3138 -0.0516
17152W        W36006  14.797  12.759   1.166 -0.2997 -0.1657  0.1781
17153W        W36007  14.174  14.253  11.070 -0.0313 -0.3726 -0.1664
17154W        W36008   5.038  11.368  11.368  0.0193 -0.2224  0.1058
17155W        W36009   4.245  15.952   0.189  0.0953  0.1323 -0.1672
17156W        W36010  18.389   4.287   3.006 -0.1348  0.0729  0.0870
17157W        W36011   6.790   7.931   2.329  0.0112 -0.3281 -0.2561
17158W        W36012   1.085  15.775   0.260 -0.0810 -0.0839 -0.0087
17159W        W36013   8.899  10.915  11.711 -0.1164  0.0152 -0.1988
17160W        W36014   6.362  13.127  14.130  0.2111  0.0540 -0.1084
17161W        W36015  11.934  13.354   2.491 -0.0186  0.0799  0.1140
17162W        W36016  15.293  18.722   0.073 -0.0275  0.0224  0.0026
17163W        W36017   9.305   2.996   0.724  0.0902  0.1553 -0.0033
17164W        W36018  13.326   9.693   4.273  0.2751 -0.2055 -0.1814
17165W        W36019  16.103   9.776  13.423  0.2564  0.2558 -0.2296
17166W        W36020   3.430   8.859  13.731  0.2086 -0.1419 -0.0159
17167W        W36021  12.934   0.131   0.660  0.0733  0.1037  0.2752
17168W        W36022   3.329   8.611   0.990 -0.1190  0.0026 -0.0692
17169W        W36023   3.364   9.189   3.154 -0.0568  0.1229 -0.0290
17170W        W36024  13.323   8.176   1.427  0.1828  0.0515  0.1655
17171W        W36025   1.907   2.277  12.388 -0.1217  0.0419  0.4688
17172W        W36026   8.481   0.157  10.268 -0.2296  0.0971  0.2223
17173W        W36027   3.230   1.842   0.804 -0.6478  0.0008 -0.0040
17174W        W36028   8.549   8.221  12.689  0.1966 -0.1455 -0.0515
17175W        W36029   9.602  12.400   2.634  0.2720 -0.1681  0.2846
17176W        W36030  12.427  18.514  12.783 -0.2304  0.1343 -0.1992
17177W        W36031  12.591  14.656   9.463 -0.0853 -0.1499 -0.4233
17178W        W36032  18.676   9.884   4.547 -0.1353  0.0575 -0.0295
17179W        W36033   4.613  19.107   4.052 -0.2699  0.3717 -0.0194
17180W        W36034  11.219  18.401   2.039  0.2127 -0.1449 -0.1546
17181W        W36035  18.726   9.895  12.268  0.0213 -0.2528  0.1565
17182W        W36036  13.557   4.807  12.001 -0.1084  0.0994 -0.0725
17183W        W36037   4.434   1.806   3.746 -0.0610 -0.1792 -0.1584
17184W        W36038   7.754   4.206   1.943  0.2340  0.0053  0.0249
17185W        W36039  13.913   2.014   3.623 -0.4984  0.2569 -0.1207
17186W        W36040  10.000   5.565   1.560 -0.1946  0.0264  0.2527
17187W        W36041  14.014  17.509  10.961 -0.0980 -0.1243  0.0044
17188W        W36042  11.987  17.324   4.196 -0.1238  0.0876 -0.1430
17189W        W36043   3.421   3.528  10.672 -0.0136  0.3114  0.0096
17190W        W36044   6.357   0.995  13.523 -0.1468 -0.1321 -0.2602
17191W        W36045   7.787   2.450  11.501 -0.0118 -0.0510  0.1381
17192W        W36046   6.771  11.098  13.599  0.1814 -0.2937  0.0193
17193W        W36047   2.370  18.585   3.216  0.0882 -0.1670 -0.1535
17194W        W36048   6.134  15.145  13.020 -0.0798  0.1782  0.0044
17195W        W36049  13.104   5.846   4.405  0.0991  0.0704 -0.0322
17196W        W36050   4.449   5.994  11.061  0.2873 -0.2960 -0.0892
17197W        W36051  18.866   0.123   0.397 -0.0389 -0.2268 -0.1742
17198W        W36052   6.206   6.076  13.301 -0.5517 -0.1548  0.0878
17199W        W36053  13.880  17.077   0.982 -0.1611 -0.0030 -0.1292
17200W        W36054  14.806  17.900  11.303  0.2092  0.1116  0.0484
17201W        W36055   3.128  11.922  11.139  0.3180  0.0424  0.2838
17202W        W36056  12.529   4.234  11.401 -0.2056 -0.0773 -0.0646
17203W        W36057   8.994   8.536   0.054  0.0453  0.0904 -0.0818
17204W        W36058  17.368  14.093  14.050 -0.1882  0.0016  0.2138
17205W        W36059   7.625  10.350   3.470  0.0939 -0.1414  0.0620
17206W        W36060  12.354   0.533  11.678 -0.3361  0.1327  0.0349
17207W        W36061   3.487  11.818   0.553 -0.1093  0.1129 -0.0259
17208W        W36062   6.591   5.772  12.471  0.1755  0.1054 -0.2768
17209W        W36063  10.623   2.965   0.742  0.2950  0.0883 -0.4325
17210W        W36064  13.610  12.293   0.684 -0.0185  0.1414  0.3452
17211W        W36065  11.639  15.549   2.241  0.1652 -0.2210 -0.2161
17212W        W36066   8.484  17.880  11.981  0.0728 -0.2107  0.0978
17213W        W36067  17.003  15.324  11.045 -0.2245  0.0752 -0.1170
17214W        W36068  15.657  10.494  10.685  0.4226  0.0706 -0.0698
17215W        W36069  18.055   5.260   2.896 -0.1473  0.0634  0.1970
17216W        W36070   0.472  13.078   2.061 -0.0390  0.0119  0.1873
17217W        W36071  17.658   4.513  14.587 -0.1155  0.0054  0.1569
17218W        W36072   8.138  16.481   2.129  0.3715 -0.1276 -0.0949
17219W        W36073  17.825  13.005   3.830 -0.1541 -0.0035 -0.1456
17220W        W36074  13.929   9.777   2.107  0.0717  0.1280 -0.2281
17221W        W36075  15.439   4.392   0.849  0.1090 -0.3405 -0.2436
17222W        W36076   3.362   8.785   3.480  0.2415 -0.1702  0.0896
17223W        W36077  13.352  17.884  14.081 -0.1192  0.0913 -0.0238
17224W        W36078   9.657   6.221  10.645  0.4355  0.1451  0.0253
17225W        W36079   2.079   9.483   2.034 -0.3829 -0.1261  0.0168
17226W        W36080   5.511   7.834   4.800  0.0078 -0.2142 -0.0527
17227W        W36081   1.953  17.604   2.654 -0.0978  0.0535 -0.0563
17228W        W36082   3.050  12.383  13.527 -0.0879 -0.0075 -0.1021
17229W        W36083  17.932   6.266  12.867  0.1164  0.1021  0.2002
17230W        W36084  10.530  11.758   5.032  0.2181 -0.0171 -0.0905
17231W        W36085   7.750  14.913  14.276 -0.1167  0.0951  0.0695
17232W        W36086   4.973   6.214   0.982 -0.2603 -0.1501  0.1825
17233W        W36087   9.236  17.430  14.746 -0.2637 -0.1817 -0.0441
17234W        W36088  15.918  18.707  10.825 -0.0441 -0.2720 -0.1407
17235W        W36089  11.896  17.414   1.318 -0.1254  0.1433  0.1320
17236W        W36090   7.431  15.339  14.262 -0.0579 -0.2372 -0.2502
17237W        W36091   5.496   3.379   3.517 -0.0165 -0.1410  0.0213
17238W        W36092   2.505   0.611  11.190  0.3487 -0.0336 -0.4117
17239W        W36093   8.467  13.588  12.170 -0.0320  0.0827 -0.1813
17240W        W36094   8.561  13.523  11.673 -0.0181 -0.0800  0.0685
17241W        W36095   0.886   9.370  12.106 -0.1359  0.3232 -0.1815
17242W        W36096  16.555  15.245   4.033 -0.0468  0.0187 -0.1300
17243W        W36097  13.129   3.446  14.494 -0.4231  0.1234  0.2072
17244W        W36098   4.138   4.489  14.508  0.1974  0.0923 -0.1153
17245W        W36099  14.148   9.804  11.339  0.0725  0.0917 -0.0974
17246W        W36100   2.772   5.599   0.187  0.6194  0.2916 -0.0908
17247W        W36101  15.215  14.119   5.132  0.0993 -0.1955 -0.1772
17248W        W36102  14.973   9.857   4.021  0.3290 -0.1781  0.1277
17249W        W36103  12.833  11.896  10.665  0.1044  0.0034 -0.1491
17250W        W36104   3.299  18.408   0.421 -0.1286 -0.0752  0.0243
17251W        W36105  11.447  11.685   1.999  0.0658 -0.2469  0.0615
17252W        W36106   3.197   7.485   3.071 -0.0592  0.0806 -0.3128
17253W        W36107   1.574   1.960   0.332  0.1476 -0.1386  0.2424
17254W        W36108   7.110  10.305   2.722  0.3649 -0.0486 -0.1671
17255W        W36109  16.151  12.219   2.313  0.1558 -0.0997 -0.1294
17256W        W36110  11.155  18.190  13.575 -0.0075 -0.0943  0.1016
17257W        W36111  13.796   8.560  11.014 -0.2509 -0.4769  0.1716
17258W        W36112  17.908  16.408  12.114  0.0202 -0.1357 -0.0400
17259W        W36113   3.617  15.971  11.410  0.0470  0.1091 -0.0877
17260W        W36114   6.116  17.254   1.465  0.0135  0.7053  0.0029
17261W        W36115  15.101   1.999   1.381 -0.4142  0.2527  0.1129
17262W        W36116   6.747   7.372   2.331 -0.1641  0.2548  0.2440
17263W        W36117   0.958   1.433   4.595  0.2912  0.0980 -0.1510
17264W        W36118  18.624  13.106   1.014 -0.0934  0.2946  0.1285
17265W        W36119  17.967   8.683   1.513 -0.2323  0.3227 -0.0149
17266W        W36120   3.280   1.652   2.875 -0.3814  0.3622  0.3935
17267W        W36121   3.806  10.376   2.835  0.1288 -0.2457  0.3279
17268W        W36122   1.814   8.872  11.395 -0.0836 -0.1651  0.0764
17269W        W36123   4.626   6.159   1.656 -0.1668 -0.0023  0.3235
17270W        W36124  16.722   7.787  12.510 -0.1513 -0.4162  0.0355
17271W        W36125   1.902   4.312  13.783  0.0482  0.0025  0.2631
17272W        W36126   1.832  18.152   0.431 -0.4800 -0.0369 -0.0861
17273W        W36127  15.802  16.920   2.951 -0.1333 -0.3827 -0.0803
17274W        W36128  14.670  14.446  12.621 -0.1615  0.0463 -0.0964
17275W        W36129  16.589  18.705  10.801  0.0993 -0.2009 -0.1088
17276W        W36130  15.658   2.934   2.410  0.3728  0.1157 -0.1579
17277W        W36131  13.003   2.794  11.049 -0.1379 -0.3486 -0.0997
17278W        W36132  15.328  14.866   1.722  0.1973  0.0211 -0.0523
17279W        W36133  15.183  12.922   2.642 -0.0877  0.1779 -0.0757
17280W        W36134   5.125   7.824   3.449  0.2279 -0.2235 -0.0002
17281W        W36135  15.292   5.766  14.425  0.0437 -0.2160  0.1580
17282W        W36136   1.470  18.386  13.646  0.1093  0.0044 -0.3186
17283W        W36137   8.635  15.949   1.222 -0.1665  0.4372 -0.1172
17284W        W36138  18.709  11.371   4.211 -0.1748  0.1517 -0.2565
17285W        W36139   5.373   6.838  10.067  0.2023 -0.1726  0.5216
17286W        W36140  14.151   6.889   2.213 -0.1415 -0.0714 -0.0171
17287W        W36141  18.043  14.423  10.605 -0.0142 -0.0558 -0.1535
17288W        W36142   5.223  10.813  14.565  0.0205  0.1410  0.3038
17289W        W36143  10.208  12.799  13.376  0.0693  0.1479  0.0310
17290W        W36144   4.252   5.392   3.711  0.0957 -0.0034 -0.0170
17291W        W36145  10.977   9.216  11.845 -0.1359  0.0792 -0.0855
17292W        W36146  12.402  12.202   2.567 -0.1805 -0.0059 -0.1833
17293W        W36147  16.554   8.668  12.644  0.2170  0.3713  0.2763
17294W        W36148  11.068  18.127  12.934 -0.1634 -0.1572  0.0114
17295W        W36149  16.140   3.258   9.609 -0.0170 -0.1211 -0.0903
17296W        W36150  11.214   3.893  11.278 -0.1983  0.0685  0.0134
17297W        W36151  12.797  16.303   2.212  0.0807  0.1375  0.1945
17298W        W36152  18.996  16.579  14.397  0.0748 -0.2604 -0.1587
17299W        W36153   0.203   1.051  12.827 -0.0084  0.2983 -0.1267
17300W        W36154   0.610  18.658   1.741 -0.3373  0.1445  0.1725
17301W        W36155  13.580   5.554   1.585  0.1243 -0.0526 -0.5211
17302W        W36156  12.078   7.272   4.273  0.0255 -0.1488 -0.1711
17303W        W36157   4.203   3.639   0.131 -0.1668  0.0982 -0.0571
17304W        W36158   2.920   1.771   0.442 -0.0288 -0.0082  0.1942
17305W        W36159  14.453   4.580   1.898  0.4235 -0.3517  0.0046
17306W        W36160   9.271  15.816  12.417  0.3114  0.0328 -0.0936
17307W        W36161  16.292   0.193  12.724  0.0106 -0.0109 -0.2140
17308W        W36162   7.414   2.911  14.236 -0.0268  0.0624 -0.1655
17309W        W36163   7.281  15.628   1.796 -0.3324 -0.2603  0.0185
17310W        W36164   2.576   2.540  10.061  0.0663 -0.0123 -0.0711
17311W        W36165   0.919  14.268  10.857  0.0290 -0.0039 -0.1026
17312W        W36166  15.544  13.036  12.343  0.0140  0.0549  0.0179
17313W        W36167  15.116   0.159  10.967 -0.0656 -0.1775  0.3353
17314W        W36168  12.857   3.345   3.053  0.0900  0.0081 -0.1588
17315W        W36169  14.455  18.679  14.449  0.2512 -0.1218  0.0484
17316W        W36170   4.036   0.798  13.895 -0.3469  0.1734 -0.0631
17317W        W36171   5.705  15.222  12.310 -0.0957 -0.0239 -0.0517
17318W        W36172  14.230  18.691   0.091  0.0697 -0.1889  0.3073
17319W        W36173   0.528  12.454  14.555 -0.4053  0.0850  0.3362
17320W        W36174  15.774   8.766  14.637 -0.0106 -0.0211  0.0269
17321W        W36175  18.682   5.537   3.147 -0.3256  0.0917 -0.1404
17322W        W36176   8.880  18.589  13.068  0.0124 -0.1234 -0.5278
17323W        W36177   4.843   8.974  12.787 -0.0167 -0.0447 -0.0255
17324W        W36178  14.111  16.679  10.502 -0.3209 -0.1347 -0.1657
17325W        W36179  10.058  15.526  12.406  0.1177 -0.3225  0.2924
17326W        W36180   6.894  13.431  12.386 -0.0663 -0.0234 -0.1305
17327W        W36181  11.627  11.177  12.899 -0.0683  0.2243 -0.2036
17328W        W36182   2.592  15.304  13.300 -0.1584 -0.2093  0.3196
17329W        W36183  14.006   3.215   3.178 -0.0786 -0.1238 -0.0145
17330W        W36184   3.248   3.679   2.371 -0.0212 -0.0240  0.0442
17331W        W36185   2.858   3.807  13.137  0.0885  0.0267 -0.2600
17332W        W36186   0.933  18.538  10.919  0.0927 -0.1101 -0.0704
17333W        W36187   5.353   7.828  14.334 -0.0951 -0.2443 -0.0259
17334W        W36188   8.584  11.042   5.424 -0.0261 -0.1214  0.1218
17335W        W36189  14.282  11.203   1.448 -0.0377 -0.0077  0.0990
17336W        W36190  17.070   2.742  12.138 -0.0811 -0.4478 -0.0137
17337W        W36191  14.853   1.028   4.546  0.1201  0.4346  0.0797
17338W        W36192  12.097  10.777  11.856 -0.1844 -0.1564  0.4621
17339W        W36193   9.992  10.895   1.542  0.2074 -0.1027 -0.2789
17340W        W36194  14.229   5.225   0.925 -0.5834  0.0756 -0.1193
17341W        W36195   8.475   9.433   0.092  0.3033  0.1644 -0.1005
17342W        W36196  16.342  10.550   4.590  0.2243  0.3317  0.2982
17343W        W36197   5.424  18.122  14.048 -0.4113 -0.1053  0.0457
17344W        W36198   5.214   6.570  13.954  0.2158 -0.2724  0.0693
17345W        W36199  18.900   2.494   0.071  0.0789  0.1082 -0.2349
17346W        W36200  14.463   6.515   1.980  0.3212  0.0850  0.1528
17347W        W36201  16.954  17.578  12.523 -0.1449  0.2020  0.2217
17348W        W36202   9.402   5.546  10.094 -0.1545  0.1314 -0.1369
17349W        W36203  15.742  12.201  12.583 -0.1815 -0.2352  0.0967
17350W        W36204   4.312  15.727   2.185 -0.0933 -0.1217  0.0823
17351W        W36205   8.029   8.613   4.804  0.0139 -0.1967 -0.0215
17352W        W36206  14.317  17.279   0.131 -0.2814  0.1225  0.0793
17353W        W36207  14.441   0.519  10.349  0.0590  0.2643 -0.4263
17354W        W36208  10.319   9.426  13.802 -0.1060  0.0922  0.1644
17355W        W36209   2.440   7.704  12.160  0.0832 -0.2730  0.1153
17356W        W36210  12.631  18.605   3.296 -0.0926 -0.0275 -0.0952
17357W        W36211  15.175   3.677  13.248 -0.1898  0.3253  0.5133
17358W        W36212   5.771   5.294  10.687 -0.2986  0.1004 -0.1443
17359W        W36213   5.883  16.171   4.387  0.1372 -0.1557  0.5571
17360W        W36214   3.887  13.950   4.252  0.1556 -0.0823 -0.2375
17361W        W36215   2.129   5.236  10.802 -0.4089 -0.0745 -0.0163
17362W        W36216  13.617  12.456   1.927  0.1661 -0.2718  0.4475
17363W        W36217  17.259   2.475  10.554  0.0995 -0.2660 -0.0372
17364W        W36218  17.936   2.786  11.759  0.1616  0.0748  0.1499
17365W        W36219   5.499  16.453   0.796  0.3128  0.0576 -0.0327
17366W        W36220  12.153  11.748   1.773 -0.1291 -0.1253 -0.2935
17367W        W36221   1.402   4.313  14.448 -0.0789  0.0603  0.1584
17368W        W36222   3.844  16.705  14.562 -0.2090 -0.0636  0.2405
17369W        W36223   6.462  12.643  14.018 -0.1439 -0.1135  0.0789
17370W        W36224   8.214  17.753  10.796  0.0866  0.0514  0.0776
17371W        W36225  14.152  16.411  10.983 -0.2760  0.2274  0.1567
17372W        W36226  12.683   6.742   0.474  0.0018 -0.2332  0.1521
17373W        W36227  16.852   8.577   3.372  0.1233  0.1295 -0.2440
17374W        W36228  16.599   7.161   4.199  0.0168 -0.1917 -0.3053
17375W        W36229   5.109  12.182  10.963 -0.1820 -0.3313 -0.0761
17376W        W36230  15.868   6.382   3.315 -0.5066 -0.0144 -0.2961
17377W        W36231  18.320  18.234   0.528 -0.0080 -0.0850  0.5101
17378W        W36232   2.515  11.825   2.006 -0.1275  0.0679  0.0925
17379W        W36233  11.665  18.221   3.495 -0.0387  0.4704  0.0547
17380W        W36234  14.643   7.138   3.897 -0.0431  0.2378  0.3277
17381W        W36235  12.266  10.092  14.362 -0.0028 -0.1306 -0.3283
17382W        W36236   8.799   0.194   9.762 -0.2592  0.2324 -0.1021
17383W        W36237   3.982   8.041   3.499 -0.1834 -0.2162  0.2684
17384W        W36238   9.500   7.389  10.597 -0.0250 -0.0736 -0.1220
17385W        W36239  15.398  13.841   1.883  0.0457  0.1443 -0.2997
17386W        W36240   8.176  10.689   2.542  0.2459  0.0042 -0.0256
17387W        W36241   3.876  13.447   0.968 -0.5183 -0.1606  0.0345
17388W        W36242   1.526  17.602  13.922  0.0162  0.3205  0.1210
17389W        W36243  12.314   9.074  12.206 -0.0911  0.1432  0.2672
17390W        W36244   0.945  17.502   4.359  0.0244  0.0050  0.3612
17391W        W36245  13.829  13.559   3.569 -0.0728 -0.3045  0.2070
17392W        W36246   7.066   2.679   4.542 -0.4676 -0.0991  0.1158
17393W        W36247   8.376  10.577  11.585  0.2611 -0.0440 -0.2724
17394W        W36248   7.041   6.924  12.961  0.1655  0.2340  0.0647
17395W        W36249   4.435  13.328  14.054 -0.1981 -0.1002  0.2581
17396W        W36250  10.830   2.922   1.595 -0.0563  0.1491 -0.1816
17397W        W36251   7.584  10.569  14.282  0.0071  0.0711 -0.0994
17398W        W36252  17.083   1.174  10.342 -0.0867 -0.1535 -0.2399
17399W        W36253  17.386  12.346  14.467  0.1037 -0.0609 -0.0417
17400W        W36254   5.107   7.502  13.966  0.1743  0.0300 -0.0306
17401W        W36255   6.936   4.227   3.167 -0.1559  0.0471 -0.0738
17402W        W36256   9.153  15.888   1.178  0.1144  0.4501  0.0036
17403W        W36257   5.402  18.233  11.488  0.1179  0.4235 -0.1970
17404W        W36258   9.159   6.150   1.260 -0.1180 -0.0231 -0.4591
17405W        W36259  10.962   1.311   5.162  0.0911 -0.2290 -0.2916
17406W        W36260   2.339  13.732  14.429 -0.0116 -0.1593 -0.3946
17407W        W36261  15.923  17.588  13.106  0.1826 -0.0414 -0.1326
17408W        W36262   1.964   2.579   2.170 -0.0350 -0.0933 -0.0678
17409W        W36263   4.690   7.371  13.493  0.0985 -0.0522  0.0609
17410W        W36264   0.672  11.515   2.348 -0.1105 -0.1367 -0.2226
17411W        W36265  11.472  11.647   5.247  0.0427 -0.1502  0.0561
17412W        W36266  13.357  10.937  12.517  0.4186 -0.0683  0.3378
17413W        W36267  14.819  12.634  14.552 -0.0001 -0.3221 -0.1172
17414W        W36268  10.306  14.381   3.042  0.1164  0.2003 -0.1354
17415W        W36269  11.368   1.717  13.107  0.0340  0.1866  0.0049
17416W        W36270  13.063   7.287   1.932  0.3225 -0.0099 -0.1926
17417W        W36271   3.039  13.607   2.679  0.1222 -0.1926 -0.2817
17418W        W36272   8.309   2.489  11.381 -0.1277 -0.3477 -0.1426
17419W        W36273   1.755  14.232  11.155  0.2003  0.0592 -0.0955
17420W        W36274   8.868  18.987   4.250 -0.1018 -0.0081  0.1987
17421W        W36275  12.846   5.487   0.661  0.1884  0.1860 -0.2575
17422W        W36276   5.883   3.692   3.495  0.2276 -0.0946  0.2549
17423W        W36277   5.531   5.476  11.583 -0.0874  0.3158  0.0422
17424W        W36278   9.162   4.511   0.334  0.0230 -0.0304 -0.0687
17425W        W36279   7.849   2.225  14.306  0.0906  0.0613 -0.1913
17426W        W36280   9.214  12.917  11.181  0.0686 -0.0829 -0.1833
17427W        W36281  14.855   5.399  14.284 -0.0182 -0.1514 -0.0220
17428W        W36282   8.325  15.192   9.822 -0.2203 -0.0168  0.3449
17429W        W36283  14.126  11.360   0.517 -0.1611  0.1158 -0.1777
17430W        W36284   4.218  16.984   0.482 -0.2485  0.3970 -0.1312
17431W        W36285  10.862   4.346  10.972  0.2293 -0.1427  0.0306
17432W        W36286  11.304  13.867   1.497  0.1384  0.0141  0.1772
17433W        W36287  12.567  16.823  12.069 -0.0518 -0.0318 -0.2334
17434W        W36288   5.782   6.891  11.120  0.4801 -0.0269 -0.1957
17435W        W36289  17.725  13.488  12.357  0.0937 -0.1073 -0.3198
17436W        W36290  16.003   8.620   0.716  0.0701 -0.1695  0.0803
17437W        W36291   5.325   4.972   1.027 -0.0419  0.0169  0.0858
17438W        W36292  10.554  11.746  12.093  0.1181  0.1309  0.0513
17439W        W36293   1.161   4.165   5.067  0.2388 -0.0709  0.0686
17440W        W36294   3.818  19.123   0.604 -0.1996  0.0248  0.0678
17441W        W36295   9.598   9.299   1.190  0.0696  0.2567  0.0373
17442W        W36296  14.419   5.194  11.466  0.0201 -0.0528 -0.3408
17443W        W36297  10.445   6.623   2.893  0.0781  0.1314  0.0945
17444W        W36298  18.533   4.847   2.269 -0.0959  0.0660 -0.1268
17445W        W36299  16.672  17.387   0.667  0.1278  0.0217 -0.1404
17446W        W36300  10.974   5.448   0.585 -0.0785  0.1461 -0.1837
17447W        W36301  18.831   4.249   2.741 -0.0298 -0.0531 -0.1559
17448W        W36302   5.475  10.529  11.421  0.0386  0.0877  0.0805
17449W        W36303  12.955   5.087  12.664  0.1710  0.0729  0.0345
17450W        W36304   9.562  18.720   1.692 -0.4278  0.3975  0.3372
17451W        W36305   8.612   3.008   3.985  0.2207 -0.5980 -0.0263
17452W        W36306   4.322  16.848   1.729  0.0151  0.0785 -0.0108
17453W        W36307  19.110   8.469   4.585 -0.0908 -0.0266 -0.3542
17454W        W36308  14.615  13.271   5.109  0.1286 -0.1647 -0.0039
17455W        W36309   1.420   4.794  12.354  0.2596  0.1250 -0.0757
17456W        W36310   6.236   7.212  13.953  0.1992 -0.1277 -0.0907
17457W        W36311  15.223  12.121  12.606  0.0410 -0.0580  0.1390
17458W        W36312  18.810   0.475  10.796 -0.0619  0.0332 -0.1312
17459W        W36313   9.626   0.390   3.113  0.4127  0.0832 -0.0027
17460W        W36314  12.749   4.328  14.261 -0.4037  0.0742  0.0639
17461W        W36315   0.149   0.748   2.767 -0.1595 -0.0054  0.0148
17462W        W36316  17.751  10.018   2.004 -0.2929 -0.0653  0.1500
17463W        W36317  12.292   4.772  12.661  0.0392  0.3211  0.3065
17464W        W36318  14.218  13.657  12.052  0.1904  0.0382 -0.0601
17465W        W36319  14.908   1.913  14.464  0.0642  0.2594 -0.1450
17466W        W36320   7.374  17.168  13.765  0.1686 -0.1952 -0.1551
17467W        W36321   2.620   6.018   5.306 -0.1122  0.3691  0.1394
17468W        W36322   2.315  14.963   2.561  0.0473  0.0061 -0.2946
17469W        W36323   0.653   4.549   1.426  0.0889  0.1565  0.0661
17470W        W36324   8.717   1.026   1.691  0.0313  0.0801 -0.0420
17471W        W36325  18.395  15.628   1.393  0.1237 -0.1264  0.0679
17472W        W36326   1.391  13.519   5.522  0.1114 -0.6974  0.2411
17473W        W36327   7.344   2.701  13.297  0.0068 -0.0243  0.1934
17474W        W36328  18.780   3.445   0.425  0.1381  0.0182  0.1199
17475W        W36329  12.656   9.320   0.007  0.2397 -0.1330 -0.0919
17476W        W36330   9.785  11.717  14.646 -0.0522 -0.1558  0.0523
17477W        W36331   4.090  17.152   2.380  0.1306 -0.0733 -0.1303
17478W        W36332  17.480   0.986  14.211  0.0970  0.1898 -0.0818
17479W        W36333   0.346   3.975   0.220 -0.0247 -0.0617  0.0300
17480W        W36334  14.498  13.873   3.242 -0.2863  0.1113  0.0265
17481W        W36335   3.734   5.299   3.851  0.2068 -0.1669 -0.0560
17482W        W36336  19.115  18.755   9.830  0.1677 -0.3310 -0.0648
17483W        W36337   8.454  14.458  12.615  0.2977 -0.3507 -0.0881
17484W        W36338  18.338   6.679  10.501  0.0081  0.1970  0.2604
17485W        W36339   5.702  17.972   2.613 -0.1813  0.1066 -0.1033
17486W        W36340  16.901  11.857  11.896  0.0941 -0.0687 -0.0277
17487W        W36341  13.226   2.108  11.578 -0.0686 -0.2247 -0.1073
17488W        W36342  11.340  16.911   0.296 -0.2544  0.2302  0.0158
17489W        W36343   9.449  10.331   0.535  0.0806 -0.2316 -0.3897
17490W        W36344   2.792   2.618   0.426  0.2486  0.4861  0.0146
17491W        W36345   4.103  15.612  13.120 -0.0046 -0.0038  0.2090
17492W        W36346   7.719  13.123   0.316 -0.0084 -0.4226  0.0202
17493W        W36347  16.223  15.180   2.141 -0.3250  0.2442  0.0973
17494W        W36348   8.787  12.620   1.582  0.0321 -0.0397  0.1642
17495W        W36349   0.501  11.844   3.459 -0.0972 -0.2186  0.0132
17496W        W36350  11.673  19.092  11.440 -0.0765 -0.1675  0.2078
17497W        W36351  12.083  18.499  13.137 -0.3889 -0.0412 -0.1243
17498W        W36352  14.933  11.749   0.986  0.1772  0.0267 -0.1797
17499W        W36353   1.673   3.757  11.650 -0.0141  0.0884  0.0455
17500W        W36354   7.827   3.840  14.234  0.1903  0.1087  0.2522
17501W        W36355   2.455   4.366   3.794  0.3039 -0.0476 -0.1571
17502W        W36356   5.885   7.576   0.101  0.1012  0.0170 -0.1153
17503W        W36357  17.149  13.119   0.019 -0.0831  0.0664  0.1333
17504W        W36358   3.707   6.126  11.447 -0.0912 -0.1543  0.0414
17505W        W36359   3.955   1.749  14.115 -0.0480  0.2536 -0.3221
17506W        W36360   9.319   6.515   2.170  0.0272  0.2016 -0.1712
17507W        W36361   8.858  13.619  14.262  0.0571  0.1329 -0.0201
17508W        W36362   6.513  15.743   3.181  0.0567  0.2772 -0.0592
17509W        W36363   3.103   4.535  10.983 -0.0605 -0.2300 -0.2980
17510W        W36364   5.729  10.466  13.314 -0.1251  0.0983  0.1477
17511W        W36365   2.481   1.312   2.628  0.4356 -0.4219 -0.0889
17512W        W36366   9.485  10.904  11.912  0.2131  0.2347 -0.0544
17513W        W36367  18.357   9.612   4.196 -0.0773 -0.1662 -0.3158
17514W        W36368   1.246  14.944  10.935  0.0621 -0.4700  0.0382
17515W        W36369   4.825   6.999  12.096 -0.0023 -0.1754 -0.1352
17516W        W36370  15.435  15.528  13.468 -0.2842 -0.0437  0.1424
17517W        W36371  12.455   1.316   0.846  0.0312 -0.0904  0.2641
17518W        W36372  14.570   7.783  10.388  0.0785 -0.2226  0.0182
17519W        W36373  11.729  16.156   3.407  0.1440 -0.0061 -0.0942
17520W        W36374   1.343   4.562  11.480  0.1290 -0.2882 -0.1513
17521W        W36375   6.738   9.097  11.408  0.1773 -0.3460  0.3999
17522W        W36376  10.780  10.902   3.554 -0.2504 -0.0148 -0.0528
17523W        W36377   0.079  10.431   1.877  0.0590 -0.2370  0.3876
17524W        W36378  13.185  14.243  12.218 -0.0999 -0.3051 -0.2311
17525W        W36379   3.793   0.421   0.855 -0.3617  0.0609 -0.0511
17526W        W36380   0.159  13.101   2.859  0.0375 -0.1067 -0.2293
17527W        W36381  17.756   4.311   2.131  0.1035  0.1770  0.4214
17528W        W36382  18.695   1.740  10.706  0.1459  0.1840  0.1335
17529W        W36383  11.947  12.196  12.159  0.0787  0.0779  0.1540
17530W        W36384   7.026   9.096  13.379 -0.0119  0.1298  0.0991
17531W        W36385  14.224  16.129  13.423 -0.0940 -0.0355 -0.1022
17532W        W36386   1.021  15.337   2.311 -0.1712 -0.0342 -0.0166
17533W        W36387   5.170  16.285  14.736  0.4683 -0.0102  0.2596
17534W        W36388  15.284   4.864  12.458  0.0954 -0.1548 -0.1703
17535W        W36389  13.265  14.510  10.578 -0.0303 -0.0200 -0.0452
17536W        W36390   3.978   5.384   5.276  0.1433  0.1323 -0.2557
17537W        W36391  10.282  15.893   1.423  0.0511 -0.1463 -0.1993
17538W        W36392   2.411  14.373  13.119 -0.2775  0.0904 -0.0924
17539W        W36393  10.153   9.917   2.831  0.1394 -0.1367 -0.1762
17540W        W36394  16.683   4.056   0.087 -0.0210 -0.1559  0.2033
17541W        W36395   3.545  13.769  13.192 -0.1303 -0.0604 -0.0652
17542W        W36396  16.943  12.712  14.406 -0.1500 -0.0172 -0.0690
17543W        W36397  11.956  16.828  11.382  0.0716 -0.2191  0.2273
17544W        W36398  10.601   6.504  14.090 -0.1469  0.2319 -0.0968
17545W        W36399  14.813  10.612  10.870 -0.0535 -0.2321 -0.0396
17546W        W36400  12.068  16.935  11.877 -0.0044  0.0621 -0.1546
17547W        W36401  16.441  13.461  11.893  0.2137  0.0014 -0.3377
17548W        W36402   1.143   7.546   0.671 -0.0751  0.3515  0.1397
17549W        W36403  11.968  10.081   3.812  0.1073 -0.0667  0.2859
17550W        W36404   3.905  15.916   0.990 -0.3550  0.0318  0.2491
17551W        W36405  10.084  12.007  12.942  0.2325  0.0598 -0.1000
17552W        W36406  18.439  15.439  12.417  0.1078  0.0636  0.1164
17553W        W36407   2.978  10.191   2.135 -0.0279 -0.3612  0.0065
17554W        W36408  13.057   0.677   0.714  0.0837 -0.1961  0.1273
17555W        W36409  10.090  15.080  11.165 -0.0570 -0.1108 -0.1135
17556W        W36410   4.227  16.710   4.159  0.1361 -0.1401  0.3197
17557W        W36411  16.205   9.449   3.269 -0.2641  0.0194  0.0916
17558W        W36412   0.577  13.257   3.085 -0.1395 -0.2037  0.1282
17559W        W36413   5.747  11.200   0.563 -0.0168 -0.2752 -0.0181
17560W        W36414  17.116   2.031   0.892 -0.0794 -0.1654 -0.0875
17561W        W36415   7.313   4.576  13.914  0.0006 -0.0145 -0.3295
17562W        W36416  17.143   3.864   1.762 -0.1074  0.2301  0.0330
17563W        W36417   7.837   3.428   3.419 -0.0604 -0.1661  0.1927
17564W        W36418  13.596   8.344  13.535 -0.1390  0.1208  0.1700
17565W        W36419  13.055   1.661   9.370  0.0286  0.0330  0.1697
17566W        W36420  10.586  13.218  11.592  0.0259 -0.1948 -0.1049
17567W        W36421   8.516   7.935  13.569 -0.2128  0.4123  0.0443
17568W        W36422  18.040  17.536  10.992 -0.4245  0.0486 -0.0897
17569W        W36423   4.324  11.483  12.126 -0.1446 -0.1556  0.0593
17570W        W36424  15.541  13.330   4.455  0.2471  0.1589 -0.0073
17571W        W36425  11.712  13.502  10.693 -0.1566 -0.0887 -0.1154
17572W        W36426   9.818  19.011  14.449  0.2277  0.0808  0.2674
17573W        W36427   3.322  17.471  14.532 -0.0723  0.1303  0.0246
17574W        W36428  12.808   8.413   2.075  0.1735 -0.2585 -0.0415
17575W        W36429   4.319  13.771  12.103 -0.0162  0.0017 -0.1801
17576W        W36430   1.301   0.021   3.049  0.0121 -0.1900  0.0555
17577W        W36431  17.669  11.107   4.022 -0.3271 -0.3546 -0.1840
17578W        W36432  16.513  17.677   3.922 -0.0288 -0.1104 -0.6514
17579W        W36433  18.099   3.152  12.033  0.1205  0.1017 -0.1247
17580W        W36434   4.404  15.516  10.812  0.0505 -0.1372  0.0535
17581W        W36435   1.557   5.395   4.020 -0.0302  0.5679  0.1533
17582W        W36436  13.085   6.835  14.393  0.2932 -0.1270 -0.2911
17583W        W36437  12.669   0.942  14.413 -0.0352 -0.1788  0.2807
17584W        W36438   1.378  10.973   1.006 -0.0265  0.2211 -0.0707
17585W        W36439  15.731  16.758  14.267  0.0960  0.3246 -0.1818
17586W        W36440  13.178   8.455   2.480  0.1379  0.0460  0.2524
17587W        W36441  10.021   4.729  11.337 -0.1018 -0.0033  0.0663
17588W        W36442   3.684  10.823   1.036  0.0014 -0.0847  0.0932
17589W        W36443  10.986  16.430  10.646 -0.2666 -0.1655 -0.1698
17590W        W36444   5.542   4.994   2.382 -0.0925  0.1083  0.2653
17591W        W36445  14.394  18.247  10.473 -0.0156  0.0786  0.4188
17592W        W36446   6.762  11.918  14.343 -0.2728  0.1460  0.1674
17593W        W36447   7.186  12.016   1.036  0.1290 -0.1732  0.4641
17594W        W36448   7.725  18.680  11.698  0.4844  0.0694  0.1315
17595W        W36449  16.303  18.115  10.970 -0.1127  0.1508  0.2072
17596W        W36450   1.121   1.139   1.578 -0.2972 -0.0165 -0.3784
17597W        W36451   9.057   2.704  12.596 -0.0293  0.0794  0.0204
17598W        W36452   0.592   5.369  12.527  0.0155 -0.0607 -0.0255
17599W        W36453  12.585   5.477  11.273  0.2554 -0.3015  0.0363
17600W        W36454  15.319  11.671   5.406 -0.1120 -0.1687 -0.0067
17601W        W36455  16.815   3.267  12.266 -0.1727 -0.1583  0.0961
17602W        W36456   6.715   5.137   3.471 -0.2899  0.0814 -0.1162
17603W        W36457  11.526   2.178   1.622  0.1054 -0.1310  0.1319
17604W        W36458   7.761  11.562   4.317  0.2758  0.2119 -0.0110
17605W        W36459   9.736  13.705   3.378  0.2059 -0.1609  0.0446
17606W        W36460   7.774   7.125   0.838  0.0676 -0.4003 -0.0438
17607W        W36461  17.935   9.414   2.882  0.0428 -0.3528  0.1895
17608W        W36462   4.893  16.742   3.252  0.1913  0.0327 -0.1739
17609W        W36463  12.673   0.571   5.325  0.1574  0.1085  0.1841
17610W        W36464   8.248  12.095   1.240 -0.0021 -0.1225 -0.3202
17611W        W36465  12.441  17.012  12.593 -0.0735  0.2820  0.1951
17612W        W36466  10.225  13.551  11.720 -0.2921  0.1705 -0.0207
17613W        W36467   1.630   9.259  11.640  0.1467  0.0274 -0.0403
17614W        W36468   7.534   3.733  11.009 -0.0826 -0.1419  0.3149
17615W        W36469   0.770  15.662  10.547  0.0436 -0.0718 -0.1724
17616W        W36470   0.075  11.125  12.225 -0.1870 -0.0869  0.2526
17617W        W36471  14.571   7.278  12.149 -0.1697 -0.1221 -0.0983
17618W        W36472   6.386  17.050   2.473 -0.1119 -0.1550 -0.1984
17619W        W36473   9.428   6.779   3.107 -0.2576  0.2381 -0.2752
17620W        W36474  15.953  10.192   3.075 -0.3362 -0.0471 -0.2959
17621W        W36475   7.793   0.109  12.469 -0.2089  0.0341  0.0679
17622W        W36476   0.406  10.570  13.562  0.1263 -0.0840  0.2379
17623W        W36477   4.815  11.168   0.914 -0.1592 -0.0893 -0.2648
17624W        W36478   0.505   8.236  12.974 -0.2827 -0.1636  0.0818
17625W        W36479   3.438  18.549   2.514 -0.1384 -0.0937 -0.4303
17626W        W36480  10.854  13.694   0.433  0.1186  0.1081 -0.3258
17627W        W36481  10.719  11.767  10.818  0.0243 -0.1419 -0.0649
17628W        W36482   9.328   4.111  11.076 -0.3757  0.0010 -0.1435
17629W        W36483   6.633   0.742  10.410  0.1348 -0.2702  0.0562
17630W        W36484  11.584   3.055  14.434  0.1326  0.1024 -0.0717
17631W        W36485  18.149  10.433  13.458  0.1059 -0.3764  0.2209
17632W        W36486  12.708   2.663  10.611  0.0611  0.0741 -0.1084
17633W        W36487   2.007   8.471  12.849 -0.0061  0.1361 -0.0815
17634W        W36488  10.290  15.440  11.544 -0.2590 -0.2500  0.0670
17635W        W36489   5.075  14.553   3.713  0.0537  0.1114 -0.0977
17636W        W36490   2.917  15.417   0.280 -0.1597 -0.2208  0.1249
17637W        W36491   8.303   9.471  14.291  0.1327 -0.0994 -0.1866
17638W        W36492  12.206   0.443   3.898  0.0602  0.1109  0.2089
17639W        W36493   0.693  11.615  11.013 -0.1266  0.1052  0.3374
17640W        W36494   7.036  10.878  11.456  0.1595  0.1257 -0.1685
17641W        W36495  15.290   9.515   0.067  0.0620 -0.0807 -0.2432
17642W        W36496   7.788  17.451   9.935  0.2636 -0.2498  0.1496
17643W        W36497   0.523   8.496   2.340  0.0605  0.0321 -0.3909
17644W        W36498   6.597  18.883   3.800 -0.0397  0.1280 -0.4859
17645W        W36499  13.819  12.511  11.733  0.0062  0.0608 -0.1167
17646W        W36500   2.637  17.653   3.123 -0.0572  0.1609  0.0604
17647W        W36501   8.784   7.350   3.142  0.0063  0.2476  0.1494
17648W        W36502   8.933  14.002   2.304 -0.2267 -0.3056 -0.3369
17649W        W36503   3.345   9.505   9.699 -0.2578 -0.3079  0.2228
17650W        W36504  15.519  13.518  10.689 -0.2479  0.1152  0.0256
17651W        W36505   6.832   0.097   1.086 -0.1126  0.3325 -0.2084
17652W        W36506   4.543   8.691   4.483  0.0969 -0.0875 -0.1787
17653W        W36507  11.072  10.120  13.041  0.0301  0.3120 -0.1233
17654W        W36508   0.291   6.982   1.605 -0.2693  0.1075 -0.2079
17655W        W36509   6.240   7.410  10.880 -0.5146 -0.2591  0.2414
17656W        W36510  12.276  16.416   0.209  0.0133  0.2689 -0.2211
17657W        W36511   4.181   0.289  14.209  0.0025  0.1680  0.0321
17658W        W36512  15.882  16.122   3.238  0.1826  0.2714 -0.2960
17659W        W36513  17.591   6.617   2.823  0.1646  0.1528 -0.1500
17660W        W36514   7.926  10.501  11.282 -0.2140 -0.1955 -0.0416
17661W        W36515   6.058  17.329   0.282  0.1229  0.0946  0.1975
17662W        W36516  16.044   8.906   0.276 -0.1654 -0.0693 -0.0029
17663W        W36517  18.004   6.362   2.609 -0.3487  0.0808  0.0465
17664W        W36518   8.522   8.555  13.806  0.2129  0.0537 -0.0907
17665W        W36519  11.626  14.493   0.510 -0.3364  0.1036 -0.0604
17666W        W36520  13.442   0.977   2.236 -0.0930 -0.2626  0.1714
17667W        W36521  19.153  12.704   3.178 -0.0585  0.3097  0.0171
17668W        W36522  15.595   3.878   0.833 -0.1593  0.0633 -0.0900
17669W        W36523  11.561  17.085  11.911  0.1599 -0.2129  0.5100
17670W        W36524  17.199  16.810  12.049  0.1623 -0.1667 -0.1873
17671W        W36525  12.806   1.955   4.408 -0.1523  0.0586 -0.0597
17672W        W36526   3.671   3.653  12.790 -0.0806 -0.0244  0.3403
17673W        W36527  12.838   0.422   1.925  0.1356 -0.0072 -0.0991
17674W        W36528   2.180  17.147  14.188 -0.0162 -0.0379 -0.0571
17675W        W36529   4.928  13.892   9.351  0.0317 -0.0982  0.1714
17676W        W36530   7.804  18.206   1.940  0.2832  0.0130  0.0160
17677W        W36531   3.575   6.801   2.630  0.1853  0.1877  0.2673
17678W        W36532  16.444  14.225  11.112  0.2785  0.0408 -0.1214
17679W        W36533   6.995   5.397   2.545 -0.1589  0.0591  0.1377
17680W        W36534   6.347  10.710   5.198  0.2199 -0.0854  0.3105
17681W        W36535   5.701   2.570  10.851  0.0525 -0.0747  0.0518
17682W        W36536  16.234  14.072   0.237  0.2092 -0.1443 -0.0912
17683W        W36537   5.968  18.348   5.416  0.1743 -0.3105 -0.0661
17684W        W36538   4.079   9.580   0.056  0.4963 -0.3936 -0.1887
17685W        W36539   4.594  11.387  13.442  0.3159  0.0123 -0.0560
17686W        W36540   8.131   0.487  11.000 -0.2085 -0.2763  0.3228
17687W        W36541  12.914  10.178  12.114  0.0701 -0.1814  0.2092
17688W        W36542   9.949  16.905   0.658  0.0142  0.0549  0.0616
17689W        W36543   9.492   5.308  13.345  0.1394 -0.3381  0.0273
17690W        W36544   0.600   1.939  10.664  0.1226 -0.0382 -0.0993
17691W        W36545   7.361   5.304  12.195 -0.0150  0.1709  0.1730
17692W        W36546  12.662  19.043  11.392 -0.1659 -0.3858  0.3389
17693W        W36547   8.184  17.160  10.885 -0.0789  0.0775  0.1877
17694W        W36548  10.550  15.239  13.656 -0.1029 -0.1763  0.0541
17695W        W36549  17.167   4.367   3.255  0.2047 -0.2004 -0.1374
17696W        W36550  17.311  16.561  11.308 -0.0399 -0.1463 -0.2440
17697W        W36551  17.933  16.507   2.403 -0.0165 -0.1445  0.0775
17698W        W36552   4.166  11.792  10.903 -0.0105  0.1245 -0.3316
17699W        W36553   3.062  15.447   2.671  0.2678 -0.0258 -0.0593
17700W        W36554  14.828   7.357  14.458  0.2704  0.0300 -0.0863
17701W        W36555  15.954   5.858  11.138  0.0189 -0.1658  0.1993
17702W        W36556   1.946   7.339  12.154  0.0106  0.0941 -0.0226
17703W        W36557  11.251   6.529   2.821 -0.0376  0.0644 -0.1121
17704W        W36558   3.945   0.985   0.014  0.1884  0.2868  0.0078
17705W        W36559   4.672  17.027  14.305 -0.1099  0.1632  0.0441
17706W        W36560   3.498   0.854   0.214  0.1436  0.0559 -0.2558
17707W        W36561   6.647  17.839  14.267  0.3446 -0.1639 -0.0303
17708W        W36562  12.513  12.861  11.912  0.0758  0.0426  0.0829
17709W        W36563  15.493  18.430  14.485 -0.0087  0.0245 -0.2505
17710W        W36564  17.079  18.923  14.085 -0.0411 -0.1032  0.4751
17711W        W36565  17.608  18.502  14.742  0.0526 -0.0575 -0.1983
17712W        W36566  10.778   6.507   0.753  0.1874  0.0071 -0.0129
17713W        W36567   7.059   5.702  13.282  0.1139  0.1978 -0.2415
17714W        W36568   5.989  13.247   2.142 -0.1831  0.2838  0.0633
17715W        W36569   6.071  18.055   1.175  0.1161 -0.0175 -0.3086
17716W        W36570   7.363   3.458  11.429 -0.2674 -0.3573  0.3472
17717W        W36571  16.463   2.789   3.944  0.0325 -0.1130 -0.0990
17718W        W36572  10.426  18.550  14.361 -0.0885 -0.2873 -0.3557
17719W        W36573   8.049   3.122   1.455  0.1117  0.0821 -0.1859
17720W        W36574   7.999   2.424  14.755 -0.1053  0.2540 -0.1250
17721W        W36575   7.978   2.089  11.126  0.0590 -0.0049  0.1545
17722W        W36576  18.480   3.038  11.177 -0.3537  0.0808 -0.3137
17723W        W36577  13.957   8.767   2.574 -0.0567  0.3980 -0.2201
17724W        W36578  15.662   5.010   4.524 -0.0156  0.2035 -0.0074
17725W        W36579   5.940  16.196  14.236  0.3237  0.1931 -0.1034
17726W        W36580  10.572   4.754   0.435 -0.0802  0.0333 -0.1369
17727W        W36581  10.943   8.645   1.904  0.1014 -0.0661 -0.0595
17728W        W36582   8.000   5.183   1.503 -0.0005  0.1583 -0.0990
17729W        W36583   2.287  17.987  11.132  0.3555  0.1791  0.0381
17730W        W36584   5.799   9.829  14.091 -0.2359  0.0278 -0.0611
17731W        W36585  14.284  18.392   3.956 -0.2500  0.0660  0.0022
17732W        W36586  16.372   1.022  13.043  0.0483 -0.2502 -0.1777
17733W        W36587  18.568   0.830  11.167  0.0602 -0.0273  0.0032
17734W        W36588   0.604   1.409  12.695 -0.1013 -0.1441  0.1617
17735W        W36589  15.402  16.717  13.906  0.1525 -0.0286  0.5036
17736W        W36590  13.939  14.463  11.960 -0.1889 -0.2899  0.0949
17737W        W36591   0.076  11.821  14.789 -0.0617 -0.2171  0.1610
17738W        W36592   3.784  16.878  13.568 -0.1944 -0.2825  0.4672
17739W        W36593  11.648   7.047  11.175 -0.0757 -0.2005  0.1419
17740W        W36594   5.789   4.190   4.098 -0.1039  0.0328  0.0434
17741W        W36595   2.615   8.313  11.103  0.0855  0.1806 -0.0049
17742W        W36596   2.800  12.133  10.685  0.2361  0.1428 -0.0719
17743W        W36597   8.795   0.151  14.561  0.0584  0.1743  0.0380
17744W        W36598  16.115  10.257  10.792  0.6036  0.0866 -0.2244
17745W        W36599  11.313  12.812   3.778 -0.0466 -0.1073 -0.3415
17746W        W36600   3.403  18.337  10.581  0.0645 -0.2964  0.1117
17747W        W36601   5.184   7.985   2.721  0.1178 -0.1415 -0.2306
17748W        W36602   4.161  15.710   2.640 -0.2364  0.0782 -0.4306
17749W        W36603  10.211   5.716   2.628  0.0465  0.0189 -0.2311
17750W        W36604   3.739   5.680   1.213 -0.1546 -0.1809  0.1446
17751W        W36605   8.531   6.735  11.047  0.2907 -0.2251 -0.0037
17752W        W36606  14.689   8.098   0.710 -0.0402 -0.0861  0.0917
17753W        W36607   5.876  17.072   2.541  0.2293  0.0542 -0.2071
17754W        W36608  14.947  15.727  14.777 -0.0972  0.1040 -0.0537
17755W        W36609   7.468  10.088  14.195  0.0059  0.1870 -0.3131
17756W        W36610  15.357  12.244  10.801 -0.2375 -0.3369  0.1896
17757W        W36611   1.570  18.213  13.137 -0.0254 -0.0390 -0.2478
17758W        W36612  11.707  11.722   0.416  0.2464  0.0189  0.1348
17759W        W36613  15.834  13.063   2.202 -0.3693 -0.0821  0.4057
17760W        W36614   1.708  15.194  13.917  0.1703  0.0893  0.0428
17761W        W36615   5.369  17.314   3.662  0.1171  0.0489 -0.2097
17762W        W36616   5.112  11.614  13.379  0.1418  0.0312  0.0516
17763W        W36617   5.973  11.955  14.528  0.0110  0.1222 -0.0808
17764W        W36618   0.230   5.758   1.698 -0.0327 -0.1261 -0.0868
17765W        W36619  11.593   9.741   1.518 -0.2191  0.1382 -0.0783
17766W        W36620   9.383  14.814  10.455  0.2903  0.0976 -0.2333
17767W        W36621  12.781  14.180   9.630  0.0624 -0.2343  0.0360
17768W        W36622   3.173  10.689   4.050 -0.0570 -0.0388 -0.3599
17769W        W36623  17.143   7.424   2.012 -0.3253 -0.0344 -0.1594
17770W        W36624  17.246   7.153   4.471  0.0041  0.1703  0.1847
17771W        W36625  13.026   6.466   0.064  0.1569  0.2382 -0.1622
17772W        W36626  15.466  13.827   1.370  0.1357 -0.1990  0.1994
17773W        W36627   0.136  14.165   2.243 -0.4700  0.0454 -0.3569
17774W        W36628   6.576  18.350   0.817  0.1537 -0.1536  0.0785
17775W        W36629   2.137   1.842   3.889 -0.2360  0.0022 -0.1475
17776W        W36630  14.255  14.851   0.954  0.0115  0.1055  0.0731
17777W        W36631   0.085   0.980   0.001  0.0638 -0.0908 -0.1812
17778W        W36632   4.855   2.026   2.991 -0.0882  0.1287 -0.1086
17779W        W36633  17.575  11.815   4.538  0.1093  0.1141 -0.0696
17780W        W36634   7.194   7.190   0.674  0.2323  0.1604 -0.1911
17781W        W36635   2.429  17.694  13.263  0.0360 -0.3067  0.1209
17782W        W36636  14.495  12.574  12.360 -0.0790 -0.1163  0.3602
17783W        W36637  18.243   2.016  11.240  0.0543 -0.0501 -0.0633
17784W        W36638   5.277   2.305   0.934 -0.1703 -0.1046 -0.1319
17785W        W36639   7.631   5.907   2.331 -0.1916 -0.1660  0.4480
17786W        W36640  10.414   5.985  10.665 -0.1294 -0.2832 -0.0361
17787W        W36641  13.182  16.454   0.883  0.1839  0.0005 -0.2886
17788W        W36642   0.612  11.684  14.080  0.0348  0.1701 -0.0535
17789W        W36643   0.068  10.157  13.547 -0.0185  0.2295 -0.0029
17790W        W36644  18.920   8.371  13.501 -0.0652 -0.1300  0.0695
17791W        W36645  18.341   1.311  12.273 -0.2093  0.2477  0.0452
17792W        W36646  10.874  13.697  14.282 -0.0616 -0.1884 -0.2001
17793W        W36647  15.971   1.670   4.408 -0.2067  0.2546  0.2256
17794W        W36648  18.362  16.387  11.827 -0.3897  0.1103  0.3472
17795W        W36649   4.309   0.944  12.183  0.3346 -0.1191  0.2564
17796W        W36650   0.780   2.163   0.275 -0.1650  0.0203  0.0040
17797W        W36651   7.586  17.443  13.309 -0.1822 -0.4329  0.1316
17798W        W36652  18.268  18.426  13.578 -0.1782  0.2078  0.1827
17799W        W36653   0.221   8.193  14.394 -0.0687  0.2257 -0.2025
17800W        W36654   9.076   8.377   1.154 -0.4284 -0.0795  0.1747
17801W        W36655  14.098   1.263   1.611 -0.2593  0.0923 -0.0956
17802W        W36656  16.751   2.198  13.792  0.2419  0.0469 -0.1429
17803W        W36657   4.739   1.561  14.712  0.0890  0.0353 -0.0276
17804W        W36658   5.683   6.596   1.411 -0.3118  0.0168  0.0475
17805W        W36659  18.744  18.589  13.611 -0.3400  0.2472 -0.0902
17806W        W36660  19.080  12.821  10.701  0.1931  0.1712  0.1815
17807W        W36661   7.530  17.822  11.998 -0.1459 -0.0733  0.1808
17808W        W36662  11.472  18.111  10.709 -0.1435  0.0622 -0.1775
17809W        W36663  10.935   4.392  12.478 -0.0250  0.2873  0.0587
17810W        W36664   3.218  18.754  13.312  0.1517 -0.1088 -0.0374
17811W        W36665   2.337  11.447   2.896 -0.0971  0.0809 -0.2493
17812W        W36666   6.252   6.322  11.972 -0.2275 -0.2516 -0.1217
17813W        W36667  15.473  13.321   3.688 -0.1848 -0.0366  0.0380
17814W        W36668  12.448   0.403  10.656  0.0075 -0.2386  0.2116
17815W        W36669  10.845  16.925  11.476  0.0692  0.0562 -0.2913
17816W        W36670  13.213   6.130   1.509 -0.1960 -0.1241  0.1003
17817W        W36671  18.801   7.888   0.376 -0.0976 -0.2179  0.1165
17818W        W36672   4.400  10.689  11.649 -0.0997 -0.0202 -0.0137
17819W        W36673   9.882   8.049  11.312 -0.1810  0.3591  0.0414
17820W        W36674   1.636   8.601   0.271  0.0479  0.1284  0.2193
17821W        W36675   2.309   5.440  14.301  0.2835 -0.3699  0.2627
17822W        W36676  18.466  19.066  10.250 -0.1350 -0.0725  0.3319
17823W        W36677   4.707   6.727   3.843 -0.2720 -0.0780 -0.1130
17824W        W36678   9.687   9.151  13.783 -0.0870  0.0869  0.1075
17825W        W36679  16.225  12.801   1.283 -0.0359 -0.0643  0.0288
17826W        W36680   9.323   6.969  13.997 -0.0092  0.1821  0.1721
17827W        W36681   6.362   9.120   0.471  0.1015 -0.1388 -0.0364
17828W        W36682  10.755  12.387  14.698  0.2638 -0.0438  0.1337
17829W        W36683   3.788   1.396  10.588 -0.0048 -0.0445  0.1380
17830W        W36684   4.245   7.298  12.668 -0.0288  0.1589 -0.1865
17831W        W36685   1.714   5.017  10.979  0.1163  0.2785  0.1322
17832W        W36686   9.774   6.579   2.409 -0.1674 -0.3035 -0.1714
17833W        W36687  16.953   3.975  12.982 -0.1270  0.0159 -0.0101
17834W        W36688  15.290   2.664   3.398  0.2864 -0.1504 -0.0182
17835W        W36689   1.272  18.476   2.140  0.1928  0.3449 -0.0150
17836W        W36690   6.378  18.800   0.386  0.3143 -0.2025  0.1758
17837W        W36691   6.724   7.020   1.941  0.2649 -0.0002  0.2308
17838W        W36692   4.910  19.106   2.937 -0.1407 -0.0594  0.2475
17839W        W36693   8.808   2.931   0.362 -0.1569  0.1619  0.0949
17840W        W36694  13.934  11.830   0.429  0.4820 -0.3273  0.0099
17841W        W36695   4.415   1.637  14.375  0.3459  0.0882 -0.0011
17842W        W36696   5.470  12.462   1.673  0.1849 -0.2273 -0.1620
17843W        W36697   2.841   6.211  11.756 -0.0190 -0.0790 -0.0992
17844W        W36698   4.203   5.863   1.827 -0.2475 -0.2927  0.1301
17845W        W36699  16.966  15.490  12.582 -0.0452  0.2944 -0.0791
17846W        W36700  12.217  13.036   3.956  0.0442  0.0880 -0.1019
17847W        W36701  13.423  15.432   4.045  0.1246 -0.0151 -0.0789
17848W        W36702   3.504   4.766   4.600  0.2570 -0.3356  0.4703
17849W        W36703   6.684   4.427  13.173 -0.1908  0.1435  0.2239
17850W        W36704   4.564   0.888   3.869  0.1501  0.0678  0.0332
17851W        W36705   0.925  12.904   2.299 -0.1125  0.0014  0.2054
17852W        W36706   4.465   8.817  11.111 -0.0187  0.1181 -0.0492
17853W        W36707  15.012  13.967   2.407 -0.1345 -0.0844 -0.3061
17854W        W36708  14.527   1.061   2.657 -0.1214  0.1380  0.3013
17855W        W36709   0.681  14.731  10.852 -0.2396  0.2802 -0.3001
17856W        W36710  13.266  12.318   3.194  0.0887  0.0610 -0.0107
17857W        W36711  14.106  11.251   2.443 -0.0320  0.3469 -0.1650
17858W        W36712  10.318  12.052  11.771 -0.2120 -0.0333 -0.1462
17859W        W36713   3.778   8.395   3.204  0.2831  0.0581 -0.1521
17860W        W36714  11.922   8.441   4.476 -0.0460 -0.0112 -0.0704
17861W        W36715   9.615  13.953  11.240 -0.0520 -0.1902 -0.0309
17862W        W36716   8.305  10.182   0.996  0.3079 -0.3173 -0.3325
17863W        W36717   2.247  14.009   0.546  0.0108 -0.3522  0.1732
17864W        W36718  10.730  13.635  12.503 -0.2234  0.1716 -0.1583
17865W        W36719   4.658   0.128   2.192 -0.2130  0.3314  0.2560
17866W        W36720   9.429   6.190  14.119  0.0137  0.0984  0.2380
17867W        W36721  10.353   9.597   1.411 -0.2812 -0.1158  0.0853
17868W        W36722  11.234  17.250   0.623  0.0691  0.2942 -0.0440
17869W        W36723   4.814  11.865  14.291 -0.2731  0.0147 -0.0804
17870W        W36724   3.408   8.498  12.217 -0.1473  0.0962 -0.0372
17871W        W36725  11.871   0.441   0.826  0.0954  0.2170  0.2528
17872W        W36726   5.153  14.104  12.663  0.1894  0.0618 -0.0200
17873W        W36727  14.932  16.247  11.374  0.0525 -0.2700  0.4410
17874W        W36728  13.489  10.635   0.263  0.1985 -0.1678 -0.1883
17875W        W36729   5.663   6.064   0.418  0.0391 -0.0311 -0.0388
17876W        W36730   1.990  19.023  12.006 -0.3323 -0.1298 -0.3926
17877W        W36731  18.817   0.734   3.398  0.1407 -0.1647 -0.0428
17878W        W36732   1.154   0.683   1.315  0.0101 -0.0732 -0.0358
17879W        W36733   7.985  14.128   0.566 -0.0799  0.0719 -0.0768
17880W        W36734  17.166  12.213   0.079 -0.5191 -0.0908 -0.2990
17881W        W36735  12.473   0.868  10.776 -0.2526 -0.2562  0.2006
17882W        W36736  14.766   7.615   0.871 -0.0713 -0.1967 -0.0007
17883W        W36737  18.468   7.408  12.036 -0.0980  0.1696 -0.1522
17884W        W36738  18.304  12.039   9.512  0.1790  0.1051  0.0508
17885W        W36739   0.845   6.801  11.888 -0.0020 -0.2384 -0.1158
17886W        W36740  14.142   0.759  14.439  0.0127 -0.1645 -0.0971
17887W        W36741   1.905  13.326   5.505 -0.0453  0.1646 -0.2096
17888W        W36742   0.857   4.392  14.315  0.0734 -0.0300 -0.1166
17889W        W36743   1.068  17.611  10.166 -0.1443 -0.3193 -0.0588
17890W        W36744   4.335   1.265  11.463  0.0283 -0.1286  0.0044
17891W        W36745   3.925   1.150   2.238 -0.2321  0.2602  0.2317
17892W        W36746   8.400   3.096   1.116 -0.2011  0.0655  0.1211
17893W        W36747  15.262  18.500  13.479 -0.3181  0.1555  0.2531
17894W        W36748   0.916  18.787   3.267  0.2242  0.0636 -0.1098
17895W        W36749  10.133  13.426   2.486 -0.0623  0.0721 -0.1808
17896W        W36750   3.908  17.360   1.507  0.2338  0.1640  0.0970
17897W        W36751   2.743  16.714   3.157  0.0536 -0.0586  0.2339
17898W        W36752   8.597   1.676   1.050  0.0563 -0.2097  0.0175
17899W        W36753  12.142  17.405   0.851 -0.0242  0.0232  0.3386
17900W        W36754  17.291  16.100  11.539  0.2926 -0.5120  0.2147
17901W        W36755   4.274   5.284  12.532 -0.4081 -0.1767 -0.2009
17902W        W36756  18.182   0.686  10.768  0.0176 -0.2135  0.3070
17903W        W36757   6.727   6.309  10.514 -0.2713  0.0047 -0.1608
17904W        W36758  17.742   6.281   1.478  0.0372  0.4218  0.1305
17905W        W36759  14.518   4.346  13.799  0.0802 -0.0472 -0.3182
17906W        W36760   6.069   1.066   3.987  0.2943  0.0328 -0.0386
17907W        W36761   8.360  14.130   4.045  0.0756  0.0552  0.1975
17908W        W36762  17.098   4.831   2.960 -0.1129 -0.0259  0.3873
17909W        W36763  11.040   8.735   1.166  0.1814  0.0015  0.0070
17910W        W36764   3.626   1.864  10.585 -0.0225 -0.0871 -0.2974
17911W        W36765  12.427   6.946  10.699  0.3257 -0.2557 -0.1859
17912W        W36766  11.652  11.297   0.155  0.0347 -0.1650 -0.1160
17913W        W36767   2.326  13.668   0.203  0.1824 -0.0015 -0.1889
17914W        W36768  15.223   7.437  11.423  0.1629  0.1516  0.1100
17915W        W36769  15.681  14.901  12.823  0.2369 -0.1482  0.0150
17916W        W36770  17.717   7.224  13.700 -0.1480 -0.0451 -0.0900
17917W        W36771  10.184   9.585  12.043  0.0813 -0.3263 -0.2097
17918W        W36772  18.476  12.135   0.477 -0.3322 -0.0812 -0.2053
17919W        W36773  11.141  16.911   1.818  0.0970 -0.0317  0.1563
17920W        W36774   7.601   5.365   0.853 -0.3650  0.0033  0.1085
17921W        W36775   4.914  15.224   2.631  0.1549  0.2505  0.1804
17922W        W36776  13.985  16.623   9.586 -0.2346  0.2644  0.2647
17923W        W36777   8.814   7.171  11.128 -0.0656 -0.0448  0.3426
17924W        W36778  14.931  16.757  10.021 -0.0975 -0.1084 -0.0444
17925W        W36779  16.598   9.642  12.551  0.1819 -0.1884  0.0199
17926W        W36780   7.468  11.415  14.651  0.2099  0.1197  0.0021
17927W        W36781   3.987   6.896  13.029 -0.2085  0.1774 -0.1302
17928W        W36782  14.221   7.223   3.461 -0.1068  0.0037 -0.0926
17929W        W36783   8.122   2.273   4.448 -0.1667 -0.2429  0.0063
17930W        W36784  18.061  10.243   2.357  0.0607 -0.2671  0.0467
17931W        W36785  12.270  14.331  11.398 -0.1428 -0.1679 -0.1440
17932W        W36786   4.079   5.505   0.298  0.2460 -0.0053 -0.0116
17933W        W36787   1.111   2.844  12.808 -0.0296  0.0366 -0.0974
17934W        W36788   2.149   3.143   0.012 -0.1055 -0.3212 -0.0402
17935W        W36789  12.862  10.899  12.655 -0.1435  0.1414 -0.5382
17936W        W36790   3.800   0.120  13.869  0.2254  0.1965 -0.0400
17937W        W36791  19.086  16.059  13.560 -0.0213  0.1744  0.0960
17938W        W36792  18.370  14.712   1.354 -0.3483  0.0876  0.3271
17939W        W36793   4.782   4.754   0.333 -0.0431  0.3723  0.0335
17940W        W36794  10.274   7.824   0.844  0.2395  0.0153  0.3292
17941W        W36795   6.390   8.614  12.225 -0.3235  0.2472  0.2344
17942W        W36796  15.336  11.191   1.578  0.0536  0.0513 -0.1048
17943W        W36797  12.138  12.914   1.844 -0.2985  0.4416  0.3139
17944W        W36798  12.741  11.424   9.821 -0.1487 -0.0944 -0.1980
17945W        W36799   3.584   7.890   2.755  0.2031 -0.1306  0.1801
17946W        W36800  18.741   0.385  13.641 -0.1673 -0.2162  0.0148
17947W        W36801   6.591   9.281  13.223 -0.1135 -0.0947  0.0071
17948W        W36802  13.426  10.048   3.013 -0.0824  0.2884 -0.1188
17949W        W36803   6.206  12.745   3.563  0.1485 -0.2974  0.3404
17950W        W36804   1.297   7.690  14.772  0.0578 -0.0361 -0.2652
17951W        W36805   2.848   0.647   1.828  0.0164 -0.0900  0.0013
17952W        W36806   0.355   7.531  14.718  0.2246  0.2876  0.2354
17953W        W36807   5.896  10.742  14.103 -0.0766 -0.0092  0.0824
17954W        W36808  15.542  14.734   2.823  0.2162 -0.1686 -0.1239
17955W        W36809   8.020  13.308   4.232 -0.2525 -0.4075  0.0038
17956W        W36810   9.444  15.685   2.228  0.0390  0.2560  0.1560
17957W        W36811  10.812   1.591  10.283  0.3335  0.0981  0.0072
17958W        W36812   5.466  10.408   0.729 -0.1012  0.0313 -0.0418
17959W        W36813  17.386   4.327  11.746 -0.1049 -0.0671  0.1419
17960W        W36814   6.135  17.431  12.545  0.2202 -0.0898 -0.3234
17961W        W36815   8.212   1.230   0.514  0.1989 -0.0655  0.1379
17962W        W36816  18.411  17.832   0.804  0.1203 -0.1843 -0.0448
17963W        W36817   6.432   5.399  12.780  0.0036  0.3381  0.0662
17964W        W36818  13.731  13.643   5.063  0.0315 -0.3761 -0.0564
17965W        W36819  16.651  11.091   3.920  0.0960 -0.0564  0.1951
17966W        W36820   9.540   4.704   3.719  0.0616  0.0328  0.0412
17967W        W36821   6.111   2.409  14.159  0.0271 -0.0030  0.0286
17968W        W36822   9.150   1.720  10.956  0.0634 -0.1855 -0.3248
17969W        W36823  13.091  18.206   2.170  0.1043  0.0107 -0.2696
17970W        W36824   6.227   9.175   1.447 -0.0657  0.1579  0.1761
17971W        W36825   5.764   1.387   2.897 -0.0826 -0.0543  0.0399
17972W        W36826  11.082  13.721   0.875 -0.0900 -0.0406  0.2285
17973W        W36827  14.452  12.721   2.009 -0.0896 -0.0173 -0.3258
17974W        W36828   0.778  14.114   1.433 -0.1335 -0.0339  0.2306
17975W        W36829  16.422  15.574  10.621  0.0151 -0.0874 -0.1340
17976W        W36830  13.303  13.342   1.372 -0.1479  0.2108  0.0309
17977W        W36831   7.165   4.283   0.031 -0.1685  0.1758  0.2571
17978W        W36832   5.137   5.412  12.284  0.1328 -0.0967  0.2455
17979W        W36833  18.663   3.372   2.595  0.3410 -0.3077  0.0412
17980W        W36834   5.391  10.736   2.347  0.1271 -0.2130  0.0768
17981W        W36835   3.046   1.423  11.630  0.1553 -0.0200  0.4406
17982W        W36836   0.752   1.366   3.145  0.1099 -0.0943  0.0163
17983W        W36837  18.196   8.657   1.114  0.1444 -0.1310  0.3159
17984W        W36838   5.585  15.048  12.769 -0.0407  0.1323 -0.1182
17985W        W36839  13.412  13.296   9.805  0.4428 -0.1181  0.0736
17986W        W36840   1.686  17.285   0.784 -0.1140  0.0586  0.2177
17987W        W36841   5.106   9.901  11.735 -0.0092 -0.2085  0.1019
17988W        W36842  15.616   9.193  14.239 -0.1511  0.2641  0.0993
17989W        W36843   6.602   8.575   1.828 -0.1240 -0.0645 -0.2022
17990W        W36844  12.027   9.351  11.193  0.1910 -0.0985 -0.3323
17991W        W36845   8.654   3.535   1.088 -0.0206  0.1090 -0.0146
17992W        W36846  16.464  16.791  14.579 -0.0296 -0.3011  0.0784
17993W        W36847   9.620   1.205  11.737 -0.0634  0.1808  0.2444
17994W        W36848   6.939   3.828   2.358 -0.1420  0.2554  0.1366
17995W        W36849  14.424  18.128   3.105 -0.1711  0.1399  0.0798
17996W        W36850  13.271   4.875  11.589  0.1725 -0.1687 -0.3085
17997W        W36851   9.092  13.410  14.772  0.1054 -0.1523  0.1220
17998W        W36852  12.289  13.115  13.246  0.2368 -0.2533 -0.1559
17999W        W36853  18.109  17.070  11.392  0.0328  0.1761 -0.0008
18000W        W36854   9.581   6.561   1.357 -0.0750  0.0922 -0.1946
18001W        W36855  18.606  16.339  10.883 -0.0111 -0.0623 -0.0868
18002W        W36856   2.586   4.790   1.397 -0.0553  0.5749  0.0556
18003W        W36857   0.896  17.624   1.908 -0.0787 -0.1920  0.1793
18004W        W36858  14.442   9.573   2.005 -0.1569  0.1035  0.1083
18005W        W36859   2.936   4.221   3.967  0.0362  0.0879 -0.1927
18006W        W36860  17.264   7.984  14.176  0.0775 -0.0308 -0.0082
18007W        W36861   3.529  15.638   2.625 -0.2294 -0.2611  0.0782
18008W        W36862   3.756   0.104   2.238  0.2849 -0.1336  0.2421
18009W        W36863   9.550  16.989  11.606  0.0918 -0.0937  0.5018
18010W        W36864  10.979   0.158   1.642 -0.0774  0.1104 -0.1956
18011W        W36865   4.638  15.438   0.971 -0.0506  0.2841 -0.1374
18012W        W36866  13.163   4.674   1.254 -0.0009  0.0886 -0.0711
18013W        W36867   0.078  18.609  13.032 -0.0636  0.2145  0.2564
18014W        W36868   8.010   2.298  10.616 -0.3425 -0.2264 -0.3045
18015W        W36869  17.745  11.953  11.419 -0.2488 -0.2446 -0.1698
18016W        W36870  10.357   4.110  12.857  0.1393 -0.0568  0.0263
18017W        W36871   7.232  13.508  12.061 -0.0160 -0.0065  0.0782
18018W        W36872   5.821   7.477  14.086  0.0556 -0.0067 -0.2093
18019W        W36873   7.375   5.096   9.455 -0.2383  0.3433 -0.1642
18020W        W36874   9.058   4.073  13.950  0.0690 -0.3130  0.0650
18021W        W36875   8.841  14.926   3.143  0.0404 -0.1006  0.1049
18022W        W36876  18.919   8.834  10.656 -0.1393  0.3168 -0.0992
18023W        W36877   1.656  18.910   2.691 -0.2145 -0.0361 -0.1509
18024W        W36878   3.175  14.783  10.989 -0.2380  0.0721 -0.2105
18025W        W36879  10.839   6.011  13.779 -0.0972 -0.3725  0.2561
18026W        W36880   3.734   3.641  12.281  0.0119  0.2772 -0.0440
18027W        W36881  11.756   1.464  14.263  0.1867  0.1280  0.2449
18028W        W36882  16.487  12.142  11.440 -0.1753 -0.0682  0.1425
18029W        W36883   6.085  14.007  12.697  0.0128  0.0226 -0.1744
18030W        W36884   3.764   7.300   1.779 -0.1894 -0.0873  0.0643
18031W        W36885  16.919   3.936   1.299 -0.2310 -0.0456  0.1359
18032W        W36886  14.156  13.616   2.055  0.1736  0.1244  0.2569
18033W        W36887   2.898  11.259   4.657 -0.0931 -0.0951  0.2158
18034W        W36888   9.937  11.404   9.641 -0.0368  0.1892 -0.0162
18035W        W36889  16.751   7.025   4.654  0.2508  0.0526 -0.2513
18036W        W36890  14.101   9.550   0.507 -0.0386  0.0939  0.1476
18037W        W36891  15.334   6.701  12.642  0.0773 -0.0116  0.0667
18038W        W36892  12.457   5.043  12.246  0.2608 -0.3317 -0.0727
18039W        W36893  12.392  12.678  14.693  0.1647 -0.1039 -0.0334
18040W        W36894   0.948  16.591   2.292 -0.2095 -0.1296  0.0738
18041W        W36895   8.633   8.566  14.316  0.4317  0.3394  0.1346
18042W        W36896  16.804   5.236  14.164  0.1310  0.1540 -0.0043
18043W        W36897  14.290   4.838   1.497  0.3179  0.0533  0.0194
18044W        W36898  18.960  16.281   1.396  0.2692 -0.0457  0.0312
18045W        W36899  14.632  14.905   0.354  0.1627 -0.0636 -0.0282
18046W        W36900  18.854  14.679   9.696  0.1241  0.1535 -0.0064
18047W        W36901   1.262  15.261  12.343 -0.2401 -0.1790  0.2663
18048W        W36902   0.638   0.113   2.359 -0.0384 -0.1572 -0.0151
18049W        W36903  12.552   6.416  13.883 -0.0952 -0.0525 -0.0549
18050W        W36904  11.715  14.462  10.273  0.3304 -0.1981 -0.0739
18051W        W36905   2.347   8.309  14.378  0.1498  0.2308 -0.1794
18052W        W36906  13.048  16.191   2.623 -0.0166 -0.0039 -0.0949
18053W        W36907   0.578   1.806   3.478 -0.1966  0.0487 -0.2912
18054W        W36908   2.525   4.733   1.913  0.0721  0.1538  0.0240
18055W        W36909   8.981   5.424  10.376  0.2694 -0.1585  0.0045
18056W        W36910   8.189  14.401   2.087  0.0614  0.2758 -0.0331
18057W        W36911  15.968   6.649   3.762 -0.0593 -0.0627 -0.1704
18058W        W36912   3.493  13.678  10.812  0.0172 -0.1064  0.0264
18059W        W36913   5.799  10.347  13.790  0.0129  0.1905 -0.2283
18060W        W36914  11.014  12.375  10.802  0.0550  0.0290 -0.0816
18061W        W36915  14.869   5.596  11.292  0.1774  0.1549  0.3682
18062W        W36916  17.985  16.842  13.332 -0.1867  0.1238 -0.0827
18063W        W36917   0.406   3.684   3.315 -0.3592 -0.2084 -0.0032
18064W        W36918  13.331   7.840  12.146 -0.2797  0.0872 -0.2991
18065W        W36919  17.177   9.261   9.502 -0.0293 -0.2405  0.2474
18066W        W36920  17.980   9.572   1.171  0.1730  0.1230 -0.2812
18067W        W36921  15.915  19.001   4.882 -0.2778  0.0903 -0.1080
18068W        W36922  16.714  11.342   3.473  0.2360  0.1706 -0.1503
18069W        W36923   2.705   2.298  13.643  0.2978  0.2031 -0.3203
18070W        W36924   8.323   5.405  12.206 -0.0085 -0.0829  0.0814
18071W        W36925   8.552  17.969  14.571  0.1791  0.0155 -0.2948
18072W        W36926   0.728   2.273  10.191 -0.1463 -0.1057  0.1498
18073W        W36927   5.863  13.278   3.012 -0.0976  0.2314  0.3508
18074W        W36928  13.410  18.016  12.710  0.2163 -0.1399 -0.2536
18075W        W36929   3.714  15.840  14.523 -0.0433  0.0399 -0.1112
18076W        W36930   5.644  13.402  13.374  0.1609 -0.0450  0.0944
18077W        W36931  12.482   5.010  14.318 -0.0646 -0.0317 -0.0712
18078W        W36932  12.933   7.516   1.088 -0.1604 -0.2788  0.1458
18079W        W36933   0.392  17.331  12.643  0.0580  0.3393  0.1046
18080W        W36934   8.898  10.395  11.697 -0.0112 -0.1378 -0.0558
18081W        W36935  14.316  14.338   1.184  0.0112  0.1058 -0.1407
18082W        W36936  14.632   5.979  12.249 -0.2676  0.0453 -0.0670
18083W        W36937  16.281  15.256  11.091 -0.1033  0.2312  0.3218
18084W        W36938   8.820  17.812  11.408 -0.0668  0.3611 -0.4170
18085W        W36939   5.301  12.601  14.519 -0.3341 -0.2156 -0.0278
18086W        W36940   7.550   6.845   2.818 -0.0021  0.2851 -0.2917
18087W        W36941   0.692  10.029  11.194  0.0814 -0.1420  0.2626
18088W        W36942   6.718  14.740   3.480 -0.3630  0.0845  0.1374
18089W        W36943   7.250  11.816   2.734  0.0746  0.1755  0.1152
18090W        W36944   6.140  14.320  13.656  0.1444 -0.2205 -0.0610
18091W        W36945  12.369  15.376  12.549 -0.1353 -0.0503  0.3950
18092W        W36946   8.337   3.076   2.105  0.0283  0.3207 -0.3646
18093W        W36947  13.392  11.190  13.976 -0.3314  0.0473 -0.1056
18094W        W36948   3.187   8.301   3.597 -0.1061 -0.0882  0.2965
18095W        W36949   1.378   6.023  10.599  0.3189 -0.0047 -0.0442
18096W        W36950   1.181   8.866   1.440  0.0050 -0.0447  0.1932
18097W        W36951   8.206  10.640   1.665 -0.1251  0.0964 -0.0293
18098W        W36952   4.695   5.547   3.771 -0.0729 -0.0237  0.1369
18099W        W36953   4.671   7.127  14.652  0.2220  0.0808  0.1807
18100W        W36954  14.622   1.976   3.157  0.2848  0.2018  0.1952
18101W        W36955  15.178   3.077  11.894  0.1557  0.0827  0.2512
18102W        W36956  16.766   7.168   1.339  0.0384 -0.0380 -0.0386
18103W        W36957  14.854   2.376  12.824 -0.1574 -0.1853 -0.1094
18104W        W36958   0.002  12.315   0.830 -0.0231 -0.1089 -0.0362
18105W        W36959  12.743   5.060   1.593 -0.1873 -0.3117  0.0815
18106W        W36960   7.193   9.130  11.638 -0.0606 -0.0955 -0.1394
18107W        W36961   0.673  17.095   1.699 -0.2299 -0.0993 -0.0390
18108W        W36962  13.816  11.635  14.766 -0.2050  0.1268  0.0320
18109W        W36963  16.819  16.794   0.093  0.1290  0.2777  0.0031
18110W        W36964   5.257  18.902  10.549 -0.0667  0.0464 -0.0119
18111W        W36965  15.692   7.556  11.442 -0.1957 -0.3744  0.0101
18112W        W36966  15.058  11.207  11.522  0.0937  0.0516  0.0766
18113W        W36967  19.072   6.053   1.260 -0.1118 -0.1398 -0.2345
18114W        W36968   8.121   0.810  14.140 -0.2154  0.2089  0.0275
18115W        W36969  15.076  16.632  12.335 -0.0219 -0.2520  0.2260
18116W        W36970  10.052  13.998  10.333 -0.0814 -0.0295 -0.1253
18117W        W36971  18.024   2.785  13.946 -0.1465 -0.0603 -0.1386
18118W        W36972  18.922   0.419  13.195 -0.3973  0.3358  0.2645
18119W        W36973  16.414   4.078   1.210  0.0235  0.0896 -0.4108
18120W        W36974  12.662  11.235   4.667 -0.0787 -0.0532 -0.3047
18121W        W36975  15.832  18.606   1.875 -0.1551  0.0843  0.4756
18122W        W36976  12.142  13.768  14.271  0.2057  0.2280  0.0529
18123W        W36977   9.754  11.888   3.409  0.3130  0.1325 -0.2701
18124W        W36978  16.611   8.915  14.207  0.1161 -0.1978  0.1325
18125W        W36979  14.664   4.663   2.392  0.1170 -0.0259  0.2683
18126W        W36980   9.973   4.553   1.238  0.1362  0.0465  0.2349
18127W        W36981  14.179  15.946  14.034  0.1739  0.0564 -0.1331
18128W        W36982   2.411  11.252  14.671 -0.0206  0.2058 -0.0171
18129W        W36983  15.084  15.811  12.558 -0.0880  0.2140 -0.0705
18130W        W36984  12.914   4.321  11.124 -0.0055 -0.3077  0.0851
18131W        W36985   5.211   7.321  12.405 -0.0168 -0.0581 -0.0317
18132W        W36986  12.941  17.302   1.400 -0.2378 -0.1322 -0.0551
18133W        W36987  17.118   7.302   2.668 -0.0288  0.1322 -0.0179
18134W        W36988  16.136   2.459  11.689  0.0980  0.2332  0.2937
18135W        W36989   3.170   9.050   0.726 -0.1347  0.1220 -0.0970
18136W        W36990  14.570   3.240   4.456  0.1766 -0.0172 -0.0837
18137W        W36991  18.064  11.317   2.714  0.2148  0.3857  0.1814
18138W        W36992  12.031  15.633  10.919  0.0832  0.1191 -0.2154
18139W        W36993  15.352   1.655  14.670 -0.1458  0.0611  0.0117
18140W        W36994  12.373  18.033  10.610  0.0097  0.3124 -0.3531
18141W        W36995   9.285   8.770   2.221  0.3071 -0.2251 -0.1278
18142W        W36996  15.177  14.351  12.578 -0.0591  0.2735  0.0101
18143W        W36997  11.378  12.700  11.234 -0.2369 -0.0990 -0.0027
18144W        W36998  11.295   7.524  13.626 -0.0877 -0.1457  0.2499
18145W        W36999   3.909   4.951  12.232 -0.0825 -0.0193  0.1491
18146W        W37000  14.809  14.228  12.202 -0.0571  0.0498  0.1132
18147W        W37001  16.101   2.571   2.400  0.3134  0.2364  0.0459
18148W        W37002   5.279  18.903   0.760  0.0932  0.2576 -0.0560
18149W        W37003  18.574  10.152  13.493 -0.2062  0.0798  0.1820
18150W        W37004  10.376   6.491   2.340  0.1026  0.1003 -0.0134
18151W        W37005   8.271   0.896   1.518  0.0321  0.0006 -0.0271
18152W        W37006   4.447  18.609   0.573 -0.1168 -0.0018  0.2797
18153W        W37007   3.825  12.221   0.720 -0.1229  0.3234 -0.1302
18154W        W37008   6.539  16.255  12.784 -0.1344  0.2171  0.0333
18155W        W37009   5.358  11.371   0.957 -0.3035  0.2099 -0.0667
18156W        W37010  19.137   6.690   0.021 -0.0149 -0.0747  0.0730
18157W        W37011   8.198   4.552  14.042  0.1327  0.3509  0.0260
18158W        W37012  18.527   8.297  13.169 -0.0625 -0.0410  0.1455
18159W        W37013  13.180   4.161   2.762 -0.1748  0.3463 -0.1957
18160W        W37014   8.750  11.000   2.102  0.2069  0.3246 -0.0330
18161W        W37015  13.139  17.351  10.069 -0.1418 -0.2951  0.0018
18162W        W37016  17.093  10.354  10.908  0.1083 -0.0069  0.0906
18163W        W37017  10.814   1.313  14.753 -0.0484  0.2494  0.3446
18164W        W37018  16.287  19.081   3.930 -0.2864 -0.0388  0.0859
18165W        W37019   8.408  15.466   1.284  0.1498 -0.1233  0.1056
18166W        W37020   4.494  17.001  13.825 -0.0678 -0.0665  0.2628
18167W        W37021   0.850   9.403   3.304  0.1193  0.0124 -0.1801
18168W        W37022   8.252  11.282  14.719 -0.0559  0.1065  0.0901
18169W        W37023  18.540  10.891   3.828  0.1903  0.1015  0.0464
18170W        W37024   9.647  14.121  12.239  0.1423  0.0536 -0.1298
18171W        W37025   2.990  16.606  10.893  0.1258 -0.3281  0.1153
18172W        W37026  15.587   4.617   9.956 -0.1637  0.0510  0.0869
18173W        W37027  14.411   1.633   3.510  0.2188 -0.1025 -0.2342
18174W        W37028  14.203  15.705   1.033  0.2278  0.1106  0.0677
18175W        W37029   1.188   2.063   4.075 -0.0346  0.3183  0.2439
18176W        W37030   1.421   5.725  12.654 -0.3597 -0.0272  0.1392
18177W        W37031  18.721   7.590  11.617  0.0984  0.1073  0.1190
18178W        W37032   6.814   2.641   3.683 -0.0501  0.3316  0.1670
18179W        W37033  17.307  16.154  14.332  0.0810 -0.0583  0.0449
18180W        W37034   7.998   3.086  10.205  0.0241 -0.0401 -0.2662
18181W        W37035   9.544  10.173  10.895 -0.3461 -0.0430  0.1555
18182W        W37036   4.769   5.278  12.756 -0.2403  0.3683  0.0672
18183W        W37037  15.098  12.627  11.005 -0.1393 -0.1301 -0.0541
18184W        W37038   6.286   1.859  14.698  0.2170  0.0611  0.0730
18185W        W37039   7.089   6.458  12.568  0.0040 -0.4859  0.3367
18186W        W37040   5.345   7.406   0.570 -0.0679 -0.2282  0.2559
18187W        W37041  10.205  17.082  13.088 -0.0309 -0.3059 -0.0829
18188W        W37042  11.130  12.032   4.499 -0.0977  0.1717  0.0575
18189W        W37043  10.515  15.876  13.727  0.2871 -0.2342  0.1390
18190W        W37044   1.741   0.717   2.631 -0.1201  0.5543  0.0606
18191W        W37045   8.448  11.768   0.842  0.3816 -0.2353  0.3786
18192W        W37046   5.339   3.943  14.230  0.0560 -0.0634  0.0495
18193W        W37047  15.376   8.356   9.834 -0.2828  0.0259  0.1132
18194W        W37048  11.002  16.660  12.423 -0.3260 -0.0983  0.2839
18195W        W37049   4.693   5.991  11.526 -0.0384 -0.1301  0.1801
18196W        W37050  15.451   2.195  12.448 -0.0696 -0.1446 -0.2411
18197W        W37051   4.681   6.568   0.755 -0.1302  0.0691 -0.1579
18198W        W37052   7.055   7.261  14.209  0.0472  0.0364 -0.1429
18199W        W37053  18.205  11.076   1.890 -0.2594  0.0115  0.0340
18200W        W37054   9.284   0.389   9.221 -0.1036 -0.0964  0.1619
18201W        W37055   3.637   0.605  10.407 -0.1469 -0.1125 -0.1901
18202W        W37056   4.505   0.344  13.246  0.1693 -0.0692 -0.0705
18203W        W37057  11.412  14.847  13.928 -0.0199  0.2385 -0.1189
18204W        W37058   6.078  11.493  11.146 -0.1571 -0.0241  0.0492
18205W        W37059   0.980  17.107   9.888  0.1337 -0.0675 -0.2158
18206W        W37060  17.309  14.370   0.700 -0.0530  0.1012 -0.2819
18207W        W37061  10.129   8.748   1.721 -0.1936  0.1786 -0.0418
18208W        W37062   0.713   1.938   3.986 -0.0499  0.1223 -0.1545
18209W        W37063  18.617  16.766  12.032 -0.1673  0.1874 -0.4049
18210W        W37064   8.797  13.800   4.217 -0.0408  0.2713  0.2727
18211W        W37065  10.148   8.541  11.419  0.1087  0.0486  0.2050
18212W        W37066  18.254   1.699  12.896 -0.1043  0.0843  0.1179
18213W        W37067  13.205   7.739   3.769 -0.1817  0.0791 -0.0782
18214W        W37068   7.506   0.012   3.978  0.0757  0.0566 -0.1472
18215W        W37069   2.652  15.007   2.145  0.4152 -0.2032 -0.0474
18216W        W37070  15.164  13.342  12.466  0.1649 -0.0292  0.1712
18217W        W37071  17.788   6.851   2.365 -0.1751  0.1466  0.3518
18218W        W37072  15.695   2.426   0.944 -0.1495  0.0171  0.0649
18219W        W37073   9.409   9.733  12.517 -0.2688  0.0342 -0.1870
18220W        W37074   0.960   9.836  12.536 -0.3701  0.0546  0.3958
18221W        W37075   3.369   6.060   2.251 -0.1345  0.0526 -0.1955
18222W        W37076   2.302   1.719   0.638  0.1161 -0.1118  0.0611
18223W        W37077   2.656  18.668   4.609 -0.0384  0.0068  0.3308
18224W        W37078   2.872   0.348   4.319 -0.2386  0.1083 -0.1495
18225W        W37079   9.195  15.967  14.021 -0.1754  0.0872 -0.1406
18226W        W37080   4.834   3.204  13.133  0.1230  0.3373  0.0768
18227W        W37081   5.991  18.832  12.149 -0.0753  0.1165 -0.3896
18228W        W37082   8.398   2.624   0.296  0.2946  0.0534  0.3337
18229W        W37083  17.430  16.877  10.901  0.1521  0.0973 -0.2316
18230W        W37084  15.239   9.294   4.814  0.0144  0.0544  0.1463
18231W        W37085   4.333  10.089  12.170 -0.4204  0.0051 -0.2728
18232W        W37086   0.648  10.430  11.726 -0.0520 -0.0069  0.1871
18233W        W37087  12.112  16.463  13.913 -0.0007 -0.1230 -0.1452
18234W        W37088   7.001   7.939  10.582  0.0183  0.0977 -0.0900
18235W        W37089  15.720  16.226  11.839 -0.3331 -0.0007  0.0405
18236W        W37090   0.265   6.640   3.954  0.1801 -0.1806 -0.1918
18237W        W37091   2.381  12.541   1.520  0.0977  0.0019 -0.0999
18238W        W37092  14.386   7.645   2.712 -0.1099 -0.1160  0.1104
18239W        W37093   7.834   9.513  11.221 -0.3712 -0.5896 -0.0619
18240W        W37094   6.904  16.845   3.737  0.1780 -0.0407  0.0444
18241W        W37095   1.104   5.814   0.828  0.0500 -0.2729 -0.1235
18242W        W37096   8.361  11.638   2.265 -0.1304  0.1541  0.0887
18243W        W37097   6.992  14.554  10.921 -0.3776  0.0586  0.0983
18244W        W37098  13.287  18.881  11.797 -0.0693 -0.1585 -0.1177
18245W        W37099  14.155  10.923   4.626  0.1443  0.0013 -0.1174
18246W        W37100   9.512  11.088  11.099 -0.0896  0.2526  0.0494
18247W        W37101  15.014   9.930  11.836 -0.2271  0.1256  0.0305
18248W        W37102  11.881   1.201   3.985 -0.0588  0.0183  0.0624
18249W        W37103  17.944   8.443  10.820  0.0361 -0.1414  0.3158
18250W        W37104   2.225   9.926   4.438 -0.3067  0.0632 -0.2817
18251W        W37105  12.543  14.083  14.174 -0.3316 -0.1689 -0.1269
18252W        W37106  12.807   5.501  13.669 -0.1314 -0.2545 -0.2413
18253W        W37107   7.518   1.709   5.000 -0.1273  0.0521 -0.0219
18254W        W37108  18.769  12.523   2.313  0.1487  0.1890  0.2994
18255W        W37109  13.034  12.695  11.775  0.0736  0.0299 -0.0766
18256W        W37110   7.715  11.891  11.744  0.0500 -0.2299 -0.1380
18257W        W37111   4.497  13.791  14.238  0.1719  0.0353  0.0956
18258W        W37112  18.787   6.265   0.596 -0.3421 -0.1188  0.0767
18259W        W37113  12.633   1.889  11.793  0.0385  0.2205  0.0626
18260W        W37114   1.379   2.805   1.521 -0.3166 -0.2455 -0.0687
18261W        W37115  14.004   6.774   1.197  0.1564  0.0790  0.1099
18262W        W37116   0.290   2.633   3.438 -0.1840  0.0565 -0.0912
18263W        W37117   2.399  17.501  14.560  0.1255  0.0943 -0.0663
18264W        W37118   7.460  12.037   4.365 -0.5292  0.2240 -0.0936
18265W        W37119  12.004   6.385  13.522  0.0967 -0.0009  0.0990
18266W        W37120  18.289  19.154   1.159  0.0117 -0.2543  0.2384
18267W        W37121  16.157  14.310  13.710 -0.0871 -0.1907 -0.0592
18268W        W37122   2.070  11.839  14.081 -0.7846  0.0526 -0.4566
18269W        W37123   3.745   6.738   3.848  0.1682 -0.4789  0.0161
18270W        W37124   3.242   1.387   0.492 -0.0043 -0.1342 -0.1580
18271W        W37125  11.288   4.715  14.060  0.3994 -0.0983 -0.3091
18272W        W37126  14.980   0.302   4.011 -0.3145  0.0684  0.3074
18273W        W37127  13.774   8.633   3.212 -0.0483 -0.1763  0.0445
18274W        W37128  15.715   9.707   0.622 -0.0179  0.0680 -0.1561
18275W        W37129   8.036   9.409   0.410 -0.0522  0.0479  0.3329
18276W        W37130   1.194  15.170   1.853 -0.1899  0.0311 -0.1457
18277W        W37131   1.243   7.794  11.146 -0.0094 -0.0518  0.1208
18278W        W37132   9.089   7.136   4.083  0.1912 -0.0654 -0.2370
18279W        W37133  15.104  11.667  11.323  0.0004  0.1151 -0.2098
18280W        W37134  18.038   0.107   2.392  0.2205 -0.3088 -0.2028
18281W        W37135  10.026   2.010   0.715  0.1277  0.2137 -0.0660
18282W        W37136  17.888  15.693   1.312  0.1703  0.2393 -0.1124
18283W        W37137  13.612   1.270   0.147  0.1556  0.0837 -0.0901
18284W        W37138  13.749  13.284   3.169  0.1851 -0.0045 -0.2165
18285W        W37139  11.331   2.866   1.866 -0.0704 -0.1840  0.1994
18286W        W37140  18.927   4.813   0.833  0.0755  0.0065 -0.1265
18287W        W37141  11.484   6.213  11.575  0.1677  0.2639 -0.0209
18288W        W37142   8.352   0.377  13.211  0.0402  0.2129  0.3410
18289W        W37143  16.781  17.143  10.570 -0.0951 -0.3245  0.0324
18290W        W37144  15.263  11.867   2.034 -0.0317 -0.2421  0.1238
18291W        W37145   9.780   1.891  11.749 -0.0613  0.2678 -0.0941
18292W        W37146   2.015   6.748   2.078 -0.0590 -0.1285 -0.1440
18293W        W37147  18.275   4.829  12.591 -0.0185 -0.0682  0.4392
18294W        W37148  16.126   5.724   1.697 -0.0099  0.1629  0.2359
18295W        W37149  17.016   5.586   1.332 -0.2738 -0.0374  0.1953
18296W        W37150  11.225   4.499  10.538  0.1653  0.0865  0.1365
18297W        W37151  11.952  18.732  13.635 -0.0419 -0.0048  0.0578
18298W        W37152  10.462   2.178  13.116 -0.0471  0.1595  0.0624
18299W        W37153  14.025   6.652  14.675 -0.1823 -0.1714 -0.3028
18300W        W37154   7.438   5.476   0.186 -0.2061  0.2371  0.0808
18301W        W37155  13.457   0.700   3.562 -0.0997 -0.2115 -0.1284
18302W        W37156  12.641   1.906  10.789  0.4161  0.2725  0.1134
18303W        W37157   1.234   7.352   3.486 -0.0745 -0.2031  0.2069
18304W        W37158   9.889   8.816   1.227  0.0625 -0.2380 -0.1338
18305W        W37159   7.247  12.157  11.789 -0.0721  0.1462  0.1731
18306W        W37160   6.595  10.008   3.558  0.2268  0.2640 -0.1221
18307W        W37161  17.811   1.916   9.670 -0.0729 -0.2143 -0.0115
18308W        W37162   9.416   5.359  10.681 -0.0543 -0.2377 -0.1497
18309W        W37163   3.169  12.855   3.902 -0.1793 -0.0978 -0.1943
18310W        W37164   4.399   3.369  11.534  0.0993 -0.1269 -0.2934
18311W        W37165   0.578   1.341   9.505  0.3699  0.0425  0.2579
18312W        W37166  17.528  15.221  10.189 -0.0399 -0.2003  0.0893
18313W        W37167   5.882  17.887  12.604 -0.1412  0.0202 -0.1072
18314W        W37168   1.737  12.392   2.999  0.1787 -0.2357 -0.4071
18315W        W37169   5.020  19.115  13.113 -0.0312 -0.1165  0.3461
18316W        W37170  13.693  16.354   1.312  0.1068  0.0427  0.0176
18317W        W37171   4.599   7.840   1.785 -0.2635  0.3458  0.2134
18318W        W37172  14.356  16.423  13.833 -0.2293 -0.1132 -0.2054
18319W        W37173  16.900  11.250   2.660  0.0117 -0.0242  0.2982
18320W        W37174  13.031  15.249   2.295 -0.1102 -0.0120 -0.1595
18321W        W37175   2.945  11.502   9.554 -0.3041 -0.0607  0.0144
18322W        W37176   1.952   4.919   4.055 -0.2271  0.0003 -0.0605
18323W        W37177   6.042  13.101   1.226  0.0282 -0.2035 -0.3524
18324W        W37178   0.252   3.249   4.202 -0.3107 -0.0612 -0.0607
18325W        W37179   6.590   3.099   1.956 -0.2442  0.0989  0.1600
18326W        W37180  14.723   6.389   2.889  0.3573  0.0114 -0.2935
18327W        W37181  16.341   8.978   0.648 -0.2454  0.0179  0.1040
18328W        W37182  13.547   6.530   0.101  0.0922  0.0501  0.2059
18329W        W37183   2.356   4.298  11.661 -0.2453  0.0522 -0.2598
18330W        W37184   0.591  17.468  12.054  0.1157  0.0247 -0.3133
18331W        W37185   9.166  16.559   0.140 -0.1945  0.1849 -0.3129
18332W        W37186   7.056   8.943   3.620 -0.3982  0.1464 -0.0401
18333W        W37187   6.279   5.632   0.169 -0.1778  0.4970  0.0702
18334W        W37188  14.894   1.909  13.067 -0.0604 -0.0583  0.0267
18335W        W37189   4.195  12.709   3.642  0.0639  0.5784 -0.1415
18336W        W37190   7.486  17.915   4.217 -0.1015 -0.1381  0.0081
18337W        W37191   8.572  15.591   2.266 -0.2681 -0.2490  0.2073
18338W        W37192   9.007  19.132  10.144 -0.5928 -0.1559 -0.1218
18339W        W37193  17.065   1.141   0.175 -0.4027  0.1307  0.0309
18340W        W37194  13.358  16.482   3.274 -0.1919  0.1702 -0.0150
18341W        W37195   2.313   7.804  14.385 -0.0420  0.0475 -0.0776
18342W        W37196  10.094   9.809  14.348  0.1489 -0.0183  0.0061
18343W        W37197   7.168   1.241  11.887  0.3505  0.0322 -0.1781
18344W        W37198  17.280  10.365  14.725  0.1870  0.1069  0.0755
18345W        W37199  18.705   1.962   9.873  0.0078 -0.2331 -0.1181
18346W        W37200   2.672   5.335  11.636  0.2915  0.0043  0.0706
18347W        W37201   9.064  15.696  10.370  0.1356  0.0693 -0.0942
18348W        W37202  10.250  15.466   0.262 -0.2070  0.0285 -0.0116
18349W        W37203  17.527  12.495   2.643  0.0016 -0.4672 -0.0407
18350W        W37204  14.411   1.579   1.832  0.0257  0.0297  0.1685
18351W        W37205  12.640  10.972   2.322 -0.0738 -0.1100 -0.0877
18352W        W37206  13.025   8.359  10.460 -0.1177  0.1016 -0.2676
18353W        W37207   5.707   0.898   4.503  0.1153 -0.0615 -0.0194
18354W        W37208  17.453  13.762  11.544 -0.0782  0.1436 -0.3335
18355W        W37209   6.259   1.329  14.491 -0.2720 -0.1342 -0.1898
18356W        W37210  10.391   1.064  14.653  0.2144 -0.3146  0.0539
18357W        W37211  15.994   2.234  14.434  0.1065  0.1529  0.0582
18358W        W37212  19.151   1.855  11.118 -0.1757 -0.1980 -0.0639
18359W        W37213  15.901  15.696  13.933 -0.1693  0.0353 -0.3246
18360W        W37214   6.911  17.081   2.454 -0.0392 -0.0558  0.0319
18361W        W37215   5.039   8.893  10.851  0.4069 -0.1188  0.1496
18362W        W37216  13.839  17.004  11.804  0.2783  0.1237  0.0206
18363W        W37217   7.785   9.585  12.571 -0.2318  0.1332 -0.1096
18364W        W37218  16.871   9.955   2.179  0.0249 -0.1002 -0.1827
18365W        W37219   3.453  11.222  14.379 -0.1965 -0.0270  0.1129
18366W        W37220   3.750   9.983  11.161 -0.0254 -0.0016 -0.2285
18367W        W37221  11.983  10.752  13.911 -0.0462  0.0208  0.2035
18368W        W37222  11.860   8.433   0.667  0.0924 -0.1456 -0.0616
18369W        W37223   8.761   9.570   4.211  0.2510  0.0923 -0.0565
18370W        W37224  17.535  12.635  12.476  0.1096 -0.0796  0.2247
18371W        W37225   0.959   4.786   3.964 -0.0145  0.1277  0.1318
18372W        W37226   7.357   7.863  12.832  0.0795  0.2013  0.1392
18373W        W37227  12.613   7.574  13.041 -0.0464 -0.0972 -0.0225
18374W        W37228   5.050  16.312   3.391  0.1630  0.0184 -0.0640
18375W        W37229   4.711  10.668  14.551 -0.0619  0.1842 -0.1157
18376W        W37230  11.061   1.130   1.392  0.0640 -0.2168  0.2710
18377W        W37231  18.609  13.579  13.491 -0.2702  0.2359  0.0547
18378W        W37232  18.111  10.675   1.563 -0.1456 -0.1325  0.3664
18379W        W37233  11.779  18.712   0.529  0.0453 -0.0316  0.0911
18380W        W37234   6.514   6.099   4.197  0.1916  0.1308 -0.2379
18381W        W37235  12.767   7.694   0.105 -0.0354  0.2607 -0.4201
18382W        W37236   4.556  14.506  11.139 -0.0561 -0.1479  0.0809
18383W        W37237   2.643  16.250   1.583 -0.2006 -0.3259  0.1443
18384W        W37238  18.118   1.593  13.363 -0.0344  0.2673 -0.1947
18385W        W37239  12.524  10.659   0.207  0.0189  0.0259 -0.0005
18386W        W37240  15.327  13.149   3.055 -0.1312  0.0492  0.0651
18387W        W37241  17.539  13.853  14.419  0.3271 -0.1199 -0.1341
18388W        W37242  15.463  11.837   0.775 -0.0503 -0.1159  0.1403
18389W        W37243   3.618  12.869  13.491 -0.0233 -0.0781 -0.0343
18390W        W37244  10.987  16.284   3.937 -0.2365  0.1762  0.0206
18391W        W37245  12.032   5.820   4.368 -0.0553 -0.0927  0.0315
18392W        W37246  16.369  16.864  11.469  0.2251 -0.0109 -0.0268
18393W        W37247   6.249   7.971   5.424 -0.1594 -0.0858 -0.1768
18394W        W37248  16.365  11.006   0.015  0.1286  0.1945  0.0154
18395W        W37249  12.388  11.762   2.318  0.0783  0.3068  0.0055
18396W        W37250  16.127  12.345  12.930 -0.1585 -0.0503  0.1044
18397W        W37251  17.329  11.104  14.307  0.3293 -0.2194  0.1651
18398W        W37252  11.892  17.178  10.969 -0.4415  0.0752  0.0420
18399W        W37253   2.623  13.927  12.710 -0.1818 -0.3609  0.1518
18400W        W37254  16.713   2.825   0.053  0.0954 -0.1351 -0.2045
18401W        W37255  17.077   0.718  14.458  0.0892  0.0017 -0.0732
18402W        W37256  16.038   5.049  13.496 -0.0446 -0.4594  0.2754
18403W        W37257   9.710   7.495  12.134 -0.1827  0.0265  0.2076
18404W        W37258   8.054  10.878   3.356 -0.1492  0.0229 -0.0419
18405W        W37259   8.113  11.810  10.472  0.2074 -0.0136 -0.1318
18406W        W37260  19.038   4.282   4.038  0.1091  0.3805  0.0947
18407W        W37261  11.019   6.725  10.127 -0.0193  0.2079 -0.0706
18408W        W37262  18.654   7.089   0.879  0.1521  0.0915 -0.0031
18409W        W37263  18.462  11.303  13.431 -0.2482  0.2365 -0.0064
18410W        W37264   4.637  14.387  14.511 -0.0396 -0.1809 -0.1883
18411W        W37265   2.837  10.160   0.169  0.1628 -0.0744  0.0491
18412W        W37266  17.161  11.713  10.884  0.0444 -0.2292 -0.0091
18413W        W37267  14.821   0.432   0.139 -0.2184  0.3869 -0.2613
18414W        W37268   4.706   9.419   0.091 -0.1607  0.0296 -0.0341
18415W        W37269   9.381  15.372   0.370  0.0795  0.2402 -0.1226
18416W        W37270  10.671   0.249   0.764 -0.2200 -0.1668  0.1447
18417W        W37271   1.334  15.987  12.973  0.0544  0.2515 -0.1103
18418W        W37272  16.286   4.897   0.896  0.0110  0.0941  0.1055
18419W        W37273  11.934   8.265  12.010 -0.3018  0.1178  0.2794
18420W        W37274   2.686  11.838  11.917 -0.1553 -0.1837  0.0031
18421W        W37275   5.671   5.258  14.241  0.2203 -0.0055 -0.1070
18422W        W37276  13.972   4.647   1.844 -0.0891 -0.0901 -0.0356
18423W        W37277  15.059  17.171   9.635 -0.1694 -0.1285  0.0067
18424W        W37278   2.498   1.633   0.211 -0.0030  0.0933  0.0635
18425W        W37279  18.276  11.847   0.782 -0.0402  0.1617 -0.0464
18426W        W37280   0.221   4.977  13.053 -0.1208  0.0177  0.2119
18427W        W37281   0.900   0.684  14.624 -0.0549 -0.0459  0.0315
18428W        W37282   0.910   6.872   0.296  0.1775  0.1928 -0.3776
18429W        W37283   5.043   8.562   2.047 -0.1088 -0.1184  0.1641
18430W        W37284   0.361   4.049   4.044  0.2261 -0.1227  0.1230
18431W        W37285  13.931   9.229  13.927  0.1791 -0.0429 -0.2929
18432W        W37286  15.905   2.862  14.350  0.1130 -0.2752 -0.1377
18433W        W37287  11.780  15.052  11.891 -0.3583 -0.0908 -0.0269
18434W        W37288  10.246  16.454  11.969  0.1056  0.1437 -0.2267
18435W        W37289   7.728  15.055   2.173 -0.0265 -0.1842 -0.1265
18436W        W37290   3.586  14.299   1.067 -0.1202  0.1863  0.0365
18437W        W37291   8.375   6.634   0.386 -0.0697  0.2441  0.2709
18438W        W37292   1.756  11.882  12.368 -0.1401  0.0372  0.1464
18439W        W37293   5.206   9.323  13.208  0.2556 -0.1108 -0.0282
18440W        W37294   6.574   5.412  12.042 -0.0030  0.1138 -0.0599
18441W        W37295  17.296  15.671  13.364 -0.0744  0.1523 -0.0439
18442W        W37296  16.826   8.549   4.253  0.0161  0.0071  0.0707
18443W        W37297  16.407  14.399   3.314 -0.2299 -0.0795  0.1944
18444W        W37298  11.037  18.172   0.116  0.0498  0.0503  0.2268
18445W        W37299  12.453  11.736   3.705 -0.0054 -0.0073 -0.4272
18446W        W37300  17.079   1.604   0.025  0.1018 -0.2698 -0.1937
18447W        W37301  16.227   9.847  11.130  0.0507  0.1781  0.0522
18448W        W37302  12.049   2.665   4.269 -0.4810  0.2758  0.2484
18449W        W37303  17.240  15.291   3.895 -0.1085  0.1597 -0.0453
18450W        W37304  18.883  10.968  11.477  0.1269  0.1096 -0.0155
18451W        W37305   2.023   0.929   0.768 -0.1687  0.3648  0.0201
18452W        W37306   3.467  14.653   2.585 -0.0696 -0.1300 -0.0079
18453W        W37307  11.310  15.429  13.522 -0.2928 -0.3461  0.0140
18454W        W37308   5.768   0.905   3.632 -0.1217 -0.0776  0.2829
18455W        W37309  15.341  15.389   0.068  0.3521  0.3640  0.1117
18456W        W37310  10.978   3.067  10.883 -0.1203  0.2645  0.2680
18457W        W37311  13.518   6.037   1.857  0.1161  0.1211  0.1299
18458W        W37312   9.842  16.507   1.030 -0.3248  0.2142 -0.1739
18459W        W37313   7.801   4.904   2.151 -0.1610 -0.1794  0.0991
18460W        W37314   8.694  11.157  10.800  0.0661  0.1967 -0.1320
18461W        W37315   9.360   7.451  11.744  0.0207 -0.0234 -0.2152
18462W        W37316   2.891  17.292  12.651  0.3360 -0.5218  0.0055
18463W        W37317  15.210   2.957  11.168  0.1462  0.4403 -0.1546
18464W        W37318   1.720  14.954   0.564  0.2191 -0.2954 -0.3256
18465W        W37319   3.080  11.063  12.823  0.1500 -0.3506 -0.2095
18466W        W37320  12.737   8.998   1.480  0.3853  0.0224  0.0142
18467W        W37321  16.113   1.435  13.778  0.0583  0.0845 -0.2068
18468W        W37322   7.079  17.636  11.817 -0.0448  0.0551  0.0604
18469W        W37323  11.105   7.387  12.393  0.0155 -0.0374 -0.2073
18470W        W37324   7.667  13.727  11.874 -0.0090 -0.0158 -0.2768
18471W        W37325  15.640   1.289   2.133  0.1105 -0.1245  0.1692
18472W        W37326  12.990  15.139   4.153 -0.0330 -0.2815  0.0182
18473W        W37327  11.024  14.998  13.715  0.1595 -0.3310 -0.1218
18474W        W37328   4.194  19.122   1.884 -0.0683 -0.1636  0.1302
18475W        W37329   3.629  12.740  10.376  0.0095  0.0637  0.0674
18476W        W37330  13.516   4.769   3.540  0.1438 -0.2661  0.0284
18477W        W37331  16.858  14.878   1.723  0.0045 -0.2770 -0.0505
18478W        W37332  12.530  14.617  10.282  0.0809 -0.0892  0.0593
18479W        W37333  17.942   6.524  13.554 -0.1428 -0.1454  0.2576
18480W        W37334  11.689  15.853  12.528 -0.4047  0.0820 -0.0800
18481W        W37335   7.077   3.248   1.748  0.2344  0.0351  0.0366
18482W        W37336   8.710   6.046  13.497 -0.3029  0.0927 -0.1321
18483W        W37337  15.049  15.743   0.641  0.0243 -0.1711  0.1144
18484W        W37338   4.772   3.096   1.300  0.0737 -0.0760  0.0093
18485W        W37339  11.219  16.350  11.931 -0.0832  0.3404  0.0528
18486W        W37340  15.390  12.260   4.330 -0.1365 -0.0521  0.1258
18487W        W37341  17.613  12.018   3.692 -0.0838 -0.0395 -0.0143
18488W        W37342  12.155   3.959   1.996  0.0650  0.1384 -0.2743
18489W        W37343  11.994   3.161  11.194  0.0190 -0.1333 -0.0622
18490W        W37344   6.481   6.954   4.661  0.0278  0.1026  0.2629
18491W        W37345  10.314  13.974  12.652  0.1076 -0.0266  0.0284
18492W        W37346  17.751   6.491   1.957 -0.0763 -0.0308  0.0248
18493W        W37347  14.455   5.552   9.511  0.2418 -0.0125 -0.2249
18494W        W37348  17.208   6.433  11.103  0.3777  0.2419 -0.1572
18495W        W37349   5.233   2.048  10.856  0.2675  0.1143 -0.1939
18496W        W37350   5.955   9.355  11.730  0.1647  0.1764 -0.3115
18497W        W37351   7.058  15.794   2.368  0.2088 -0.0948  0.1964
18498W        W37352  14.128  14.469  12.916  0.1163  0.1211  0.0225
18499W        W37353   2.164   9.063  13.688 -0.5074 -0.2931 -0.0641
18500W        W37354  10.165  18.720  10.535 -0.2171  0.2015 -0.1877
18501W        W37355   9.957   1.870  12.416 -0.0331  0.1794  0.2542
18502W        W37356  15.321   6.736   9.777 -0.0028 -0.1259 -0.2587
18503W        W37357  14.100   0.822   2.891 -0.0726 -0.0112  0.0770
18504W        W37358  16.923  16.229   1.659 -0.2205  0.2800  0.0777
18505W        W37359  16.552  12.825   4.030 -0.2432 -0.3366  0.0393
18506W        W37360   9.642   1.269   1.860  0.1449  0.0118  0.0250
18507W        W37361   4.511  10.271   3.099  0.0204 -0.1760  0.0105
18508W        W37362  11.442   5.279   2.935 -0.2298  0.4930  0.0795
18509W        W37363   9.721  15.361  10.430 -0.1647 -0.1639  0.1308
18510W        W37364   7.956   0.160   0.270 -0.2035  0.1988 -0.1554
18511W        W37365   9.304  11.455   2.608  0.3317  0.1182 -0.1092
18512W        W37366   0.340   4.505   3.886  0.0633  0.1280 -0.2414
18513W        W37367  10.464   6.878   0.650  0.1014 -0.1843  0.2398
18514W        W37368  15.063   3.736  12.396 -0.4127 -0.1234 -0.2048
18515W        W37369  18.611  18.964  12.190  0.3359 -0.0464 -0.1804
18516W        W37370  13.645   9.576   3.928 -0.2666  0.0838  0.0934
18517W        W37371   0.859  12.446   2.480  0.2792 -0.0193 -0.0136
18518W        W37372  15.837   1.995  12.740  0.0798 -0.1061 -0.0791
18519W        W37373   5.809  16.767   0.370 -0.0454  0.1089  0.0303
18520W        W37374   1.957  11.191   4.365  0.1329 -0.0885 -0.1167
18521W        W37375  10.698  11.797   3.684 -0.0427  0.0083 -0.0537
18522W        W37376   7.025   2.447  14.232  0.1744 -0.3250 -0.3565
18523W        W37377  14.856  16.744   2.331  0.1581 -0.2392  0.0067
18524W        W37378   6.285  16.859   0.480  0.0344 -0.1080 -0.2941
18525W        W37379  18.165  17.405   0.674  0.1539 -0.0268  0.1525
18526W        W37380  12.431   7.535  11.919 -0.2561  0.0545  0.2406
18527W        W37381  12.931   6.501  13.570  0.0150  0.1578  0.0717
18528W        W37382   2.490  10.681   0.254 -0.0571 -0.0052 -0.0809
18529W        W37383   9.653  13.103  14.394 -0.0936 -0.0649  0.1488
18530W        W37384   9.110   3.889   3.930 -0.2723 -0.0019 -0.1022
18531W        W37385  14.202  10.883  11.318  0.1606  0.4705 -0.0883
18532W        W37386   5.032   9.864   1.834 -0.0060 -0.3037  0.0153
18533W        W37387  10.308  18.109   1.819  0.0882  0.2589 -0.3555
18534W        W37388   8.797   1.649  14.084 -0.2598 -0.0020  0.0411
18535W        W37389  17.887  13.158  10.851 -0.0998 -0.0615 -0.2511
18536W        W37390   5.309   3.779   5.255  0.0113 -0.0160  0.0763
18537W        W37391   8.521   8.059  14.630  0.2418  0.1231 -0.0258
18538W        W37392  14.011  13.076  12.869  0.1699 -0.0134  0.1680
18539W        W37393   1.926   0.854  11.408 -0.1342  0.1136 -0.1503
18540W        W37394  13.610  18.357  13.034  0.0567 -0.0368 -0.0090
18541W        W37395   2.617   5.582   2.982 -0.1049 -0.1244  0.0599
18542W        W37396  12.198   8.620   3.970  0.0969  0.2768 -0.2472
18543W        W37397   2.677  15.995  13.130  0.0953  0.0312  0.0767
18544W        W37398  15.369  14.737  11.922  0.1239 -0.0640 -0.0422
18545W        W37399   4.063   1.229   0.622  0.2280  0.0818  0.1173
18546W        W37400  11.403  11.760  13.786 -0.0406 -0.2039  0.2971
18547W        W37401  16.539   9.975   0.217 -0.1717  0.2486  0.2466
18548W        W37402   3.401   6.633  12.222  0.0686  0.2596 -0.1405
18549W        W37403  15.367   9.196   4.278  0.0229 -0.0754  0.0594
18550W        W37404  12.906   9.994   2.513  0.1594 -0.0791 -0.1839
18551W        W37405   3.346   8.060   0.561  0.1016  0.0471 -0.2464
18552W        W37406   5.988   4.836   0.387 -0.1273  0.0200  0.1902
18553W        W37407   0.982   2.000   0.835 -0.2665  0.4821 -0.0962
18554W        W37408   7.602   6.301  10.799  0.0264  0.3131  0.0231
18555W        W37409  13.701   0.667  11.218  0.0196 -0.2315  0.4152
18556W        W37410  12.523   3.680   0.459  0.0928  0.2426  0.1975
18557W        W37411   0.224   5.295  13.486 -0.5023  0.1505  0.0475
18558W        W37412   6.991  10.879  10.283  0.1000  0.1793  0.2979
18559W        W37413   0.520  17.970   1.150  0.4264  0.0753  0.0646
18560W        W37414  13.917   2.917   0.054 -0.1050  0.2066 -0.1497
18561W        W37415  11.667  18.567  14.138 -0.0111  0.1364 -0.0238
18562W        W37416  12.665   5.124   0.026 -0.0760  0.0371 -0.1307
18563W        W37417  10.203   8.430   1.384  0.2141  0.2327  0.1322
18564W        W37418   5.111  18.058   0.245 -0.0760  0.2977  0.0906
18565W        W37419   2.272   7.269   9.931  0.0233 -0.1138 -0.1844
18566W        W37420   0.286   7.278   1.165  0.0084  0.2192 -0.2457
18567W        W37421  11.672  15.417  13.196  0.0679  0.0267 -0.1481
18568W        W37422   1.197  13.977  12.797  0.0883  0.2545 -0.0633
18569W        W37423  12.738   9.226   2.290 -0.2459  0.0442  0.2258
18570W        W37424   9.655   4.468   0.362  0.0935  0.1539 -0.3127
18571W        W37425  14.172  13.348  11.168  0.1512 -0.2597 -0.2696
18572W        W37426  15.499   4.483   0.275  0.0121  0.2099 -0.3050
18573W        W37427  14.575  18.326  13.020 -0.0691 -0.2970  0.1145
18574W        W37428   9.654  15.426  13.418  0.1003  0.1756 -0.2247
18575W        W37429   8.577  10.320  12.250  0.5281 -0.2614 -0.1958
18576W        W37430   4.003   4.884   3.793 -0.4172 -0.2244 -0.1816
18577W        W37431   6.319  10.537   3.188 -0.0302 -0.1582  0.1608
18578W        W37432   2.133   9.127  11.737 -0.1863 -0.1725  0.2571
18579W        W37433  13.512   1.734   3.368 -0.2047  0.0252  0.1305
18580W        W37434   7.591   4.622   3.086  0.1137 -0.0327 -0.0014
18581W        W37435  15.728   4.759   2.709  0.1231 -0.2347  0.3027
18582W        W37436  17.435   2.336  14.659  0.1716 -0.3202  0.1217
18583W        W37437   2.698   4.847   3.160  0.1602  0.0788 -0.1526
18584W        W37438   2.866  14.172  13.565  0.0715 -0.2440 -0.0922
18585W        W37439   3.873  14.995  14.113  0.1167  0.1827 -0.0662
18586W        W37440   4.689   9.103   3.256  0.2326 -0.0144 -0.1245
18587W        W37441  14.887   8.212   2.084  0.1329  0.1219 -0.0593
18588W        W37442  12.242   6.395  12.899  0.2603 -0.5314 -0.2028
18589W        W37443   5.510   2.818   1.607  0.2140  0.2548 -0.2208
18590W        W37444  19.109  19.100  11.654  0.1915 -0.2307 -0.2109
18591W        W37445   9.287   3.250   2.749 -0.1646  0.0269 -0.1297
18592W        W37446   0.123  12.603  11.140 -0.0731 -0.3037  0.1418
18593W        W37447   6.715   3.720   1.945  0.1344  0.1094 -0.0509
18594W        W37448   5.634  14.265  13.541  0.1678  0.4656  0.2757
18595W        W37449   5.184  15.861  10.310  0.0277 -0.1466 -0.1312
18596W        W37450   9.406   9.760   2.017 -0.0236 -0.1425  0.1539
18597W        W37451   8.901   1.306  10.911 -0.0246  0.0457  0.0590
18598W        W37452   8.163  14.546  10.625  0.0831 -0.0014 -0.3078
18599W        W37453  11.153  13.063   0.198 -0.0768  0.0267 -0.0323
18600W        W37454   5.446   5.677   3.427  0.4543  0.1530 -0.0821
18601W        W37455  10.686   5.629   2.409 -0.0878 -0.2201  0.2751
18602W        W37456   0.268   2.758  13.748 -0.1406  0.1452 -0.0054
18603W        W37457   1.983   4.882  12.410 -0.0725  0.0744  0.1495
18604W        W37458  16.726   0.347   2.001  0.2548  0.0036 -0.2100
18605W        W37459  12.937   6.377   0.868  0.0490 -0.0122  0.1538
18606W        W37460  14.993   0.254  13.629 -0.0280 -0.0315 -0.0377
18607W        W37461  16.230   4.688   1.739  0.3411 -0.0419  0.2154
18608W        W37462   1.464   6.967   3.000  0.1133  0.0128 -0.0687
18609W        W37463  13.876   4.976   3.238  0.2197  0.0730  0.1074
18610W        W37464   7.070   8.802   1.897 -0.0037 -0.0695  0.2944
18611W        W37465   4.120  12.226  11.703 -0.0922 -0.0177 -0.1673
18612W        W37466   2.103  13.869  13.245 -0.0872  0.2174  0.1506
18613W        W37467   9.027   0.391   1.995 -0.2482  0.2182  0.2636
18614W        W37468   3.201   4.657   2.489 -0.2479  0.2857  0.2806
18615W        W37469   8.519   0.504  11.807 -0.1043 -0.1371  0.0687
18616W        W37470   8.718  12.508  13.221  0.2477 -0.2134 -0.0736
18617W        W37471  14.990  16.795   3.510 -0.1243 -0.4357 -0.0684
18618W        W37472   6.391   8.224  14.701  0.2068  0.2510  0.2374
18619W        W37473  16.548  14.971  13.867 -0.1253 -0.1579 -0.2599
18620W        W37474   7.252  12.358  13.540 -0.0357  0.1194 -0.1077
18621W        W37475   1.212   5.320   1.422  0.2186  0.0689 -0.0601
18622W        W37476   2.241   1.289  14.223 -0.0145  0.0316 -0.3290
18623W        W37477  12.008   6.821  13.086 -0.1165  0.2039  0.0585
18624W        W37478  12.337  11.421   1.301  0.2413 -0.0456 -0.1216
18625W        W37479  11.844   8.455   2.307 -0.0731  0.2345 -0.0043
18626W        W37480   7.732  13.396   1.235 -0.1256 -0.1905  0.1064
18627W        W37481  11.483   2.542   4.875 -0.1857 -0.0224  0.2353
18628W        W37482   7.871  13.852   0.972  0.0832 -0.1131  0.0870
18629W        W37483   0.112   7.965   0.022 -0.1412  0.1573 -0.2077
18630W        W37484  14.651  11.422  13.867  0.1648  0.0068 -0.0360
18631W        W37485   8.770   2.000  10.627 -0.3908  0.2345  0.1554
18632W        W37486  10.406   2.167   1.047  0.1691  0.0350  0.1694
18633W        W37487   8.661   8.743   1.092  0.4997 -0.1869  0.1469
18634W        W37488   3.804   5.477   1.686 -0.0190 -0.0706 -0.4157
18635W        W37489   5.688  10.022   1.157  0.1127  0.0255  0.0540
18636W        W37490  10.909  13.034   1.178 -0.2350 -0.0187  0.1208
18637W        W37491  13.623  18.433   1.821  0.1345  0.0172 -0.0456
18638W        W37492   9.671  11.327  12.120 -0.0825 -0.1313  0.0316
18639W        W37493   5.244   4.639   0.167 -0.1233 -0.0815  0.0777
18640W        W37494  11.539   2.484  13.303  0.0569 -0.2069  0.1965
18641W        W37495  16.874   6.349  10.691 -0.2625 -0.0432 -0.1343
18642W        W37496  18.634   4.723  13.571  0.0169  0.0013  0.1146
18643W        W37497  11.775  10.372  14.314  0.1801 -0.2356  0.0073
18644W        W37498  10.762  17.895  11.315 -0.1042 -0.2059  0.0267
18645W        W37499   0.380  10.556   3.568  0.0728  0.1415 -0.1620
18646W        W37500  10.321  18.072   3.326 -0.2888 -0.1922 -0.0194
18647W        W37501   4.606  15.610  14.178  0.2562 -0.0016 -0.1869
18648W        W37502   0.481  16.842  14.581  0.0884 -0.3472  0.0837
18649W        W37503   6.210   8.552   4.347  0.0528  0.3489 -0.0096
18650W        W37504  13.862   3.364   2.192 -0.0129 -0.3236  0.3544
18651W        W37505  10.746   8.376  14.055  0.0793  0.1500  0.0737
18652W        W37506  12.271  11.139   0.015 -0.0670  0.0097 -0.0899
18653W        W37507   9.805  17.447   2.989  0.0889 -0.2372  0.1086
18654W        W37508  17.884  12.301   2.340 -0.0109 -0.4368 -0.0800
18655W        W37509  15.264   0.669  11.461  0.0302 -0.2556 -0.4777
18656W        W37510   1.720   4.671  12.785  0.0784 -0.2170 -0.3467
18657W        W37511  16.701  16.512   2.820  0.0391  0.0882  0.0142
18658W        W37512  19.071   4.250  11.325 -0.4363  0.1674  0.4138
18659W        W37513   0.898  17.564   2.468  0.0601 -0.1117  0.1084
18660W        W37514  11.543   1.568   4.018  0.2586  0.2197  0.1375
18661W        W37515   9.925   8.484  11.886 -0.1021  0.1524 -0.0462
18662W        W37516   8.203  18.661  11.888 -0.3877 -0.1777 -0.0585
18663W        W37517  15.832   8.881  11.379  0.1466  0.1996 -0.1115
18664W        W37518  11.011   5.578  12.147 -0.1073  0.0584  0.1030
18665W        W37519  16.078  17.317   2.717 -0.2155 -0.1376 -0.1897
18666W        W37520   7.113   9.273   1.174 -0.4230 -0.0865  0.3668
18667W        W37521  13.882   0.810   2.454  0.1607  0.2273 -0.0732
18668W        W37522  12.947   4.289  10.284  0.0019 -0.0030 -0.0717
18669W        W37523   1.670   9.170  13.722 -0.2147 -0.2097 -0.1193
18670W        W37524  17.708  17.225  13.203  0.0023 -0.0683 -0.1005
18671W        W37525  15.885   8.401  10.673  0.0808 -0.2443 -0.3596
18672W        W37526   3.795   1.128  10.147  0.1849 -0.4682 -0.0627
18673W        W37527  18.681  17.936   0.275 -0.0228  0.1237 -0.1259
18674W        W37528   5.811  11.037  13.609  0.1251 -0.1407 -0.1278
18675W        W37529   4.509   5.414   3.270 -0.1239 -0.0911  0.0261
18676W        W37530   3.749  15.866  14.004  0.1881 -0.1935 -0.2764
18677W        W37531  14.279  10.616  11.802 -0.2128 -0.2268 -0.2131
18678W        W37532   5.661   3.736   1.896  0.2091 -0.0831  0.1621
18679W        W37533   6.724  17.934  11.961  0.1470 -0.2827 -0.3216
18680W        W37534   1.489   9.588  11.257  0.2400  0.3444 -0.1149
18681W        W37535   1.791  10.888  11.351  0.0828 -0.1667  0.2824
18682W        W37536   9.227   5.405   3.453 -0.0616  0.0048 -0.0930
18683W        W37537  10.702   3.665  12.007  0.4272  0.0451 -0.1838
18684W        W37538   6.166  10.645  13.658 -0.1783  0.1762 -0.0536
18685W        W37539  12.561   0.573   3.481 -0.3583 -0.0431 -0.1402
18686W        W37540   0.410  17.479   0.947 -0.0911 -0.1949  0.2031
18687W        W37541   1.126  17.296   1.645 -0.1257 -0.1447  0.1469
18688W        W37542  10.951   3.314   1.914  0.1554  0.0927 -0.1068
18689W        W37543  12.419   3.023  10.874 -0.1455  0.1368 -0.3244
18690W        W37544  12.932   2.643   1.500 -0.2823 -0.0142  0.0903
18691W        W37545   7.234   4.586   3.381  0.4607  0.1807  0.0442
18692W        W37546   5.491   5.783  13.014 -0.1411  0.0720 -0.1019
18693W        W37547   3.136  14.092  10.800  0.1961  0.3734  0.1226
18694W        W37548  13.139   2.548  11.873  0.2058  0.1584  0.1205
18695W        W37549   7.909  13.504  10.886 -0.2393 -0.1596  0.1247
18696W        W37550   7.919   2.626   1.391 -0.2445  0.1330 -0.1205
18697W        W37551   3.117   6.835   2.383 -0.2611  0.0674  0.2103
18698W        W37552   2.142   9.072  14.477 -0.0806 -0.0907  0.2909
18699W        W37553   4.568   5.528  14.180  0.1974  0.0453  0.1459
18700W        W37554   4.179   8.950   0.784  0.1998  0.1186 -0.2332
18701W        W37555   0.362  15.867   3.402 -0.0362 -0.0156  0.3596
18702W        W37556   3.348  14.144   2.555 -0.0743 -0.0810  0.1237
18703W        W37557   5.541  11.731   3.893  0.3565  0.0322 -0.1086
18704W        W37558   2.623   0.093  14.679 -0.3559 -0.0579 -0.0835
18705W        W37559   6.747  10.556  11.739  0.1562  0.0860 -0.4073
18706W        W37560   0.565  14.386  11.212 -0.1960 -0.2087  0.0394
18707W        W37561   5.365  14.680  13.558 -0.0061 -0.3416 -0.0976
18708W        W37562   2.403   5.846   0.385  0.1314 -0.2678  0.2445
18709W        W37563  10.410   1.224  13.464 -0.1719 -0.2444 -0.0575
18710W        W37564  12.711  16.263  13.042 -0.0466 -0.1036  0.2081
18711W        W37565  10.308  10.823   0.902 -0.3229 -0.0639 -0.0198
18712W        W37566  17.512  12.608   3.650  0.0457 -0.0055 -0.0055
18713W        W37567   3.231  17.473   0.280 -0.1096 -0.0605  0.1472
18714W        W37568  10.854   8.249  14.604  0.1149  0.2652  0.2158
18715W        W37569  12.590  15.673  12.179  0.0938 -0.1662 -0.0446
18716W        W37570   5.529   9.004   3.055  0.1204  0.0593 -0.3602
18717W        W37571   4.538  15.489  12.093  0.0589 -0.1864 -0.2853
18718W        W37572   9.357   2.332   2.594  0.0329 -0.0320 -0.3776
18719W        W37573   6.755   7.668  12.261  0.0514 -0.0562 -0.0289
18720W        W37574   9.909   8.540  13.500 -0.1179 -0.0444  0.0583
18721W        W37575   1.954  17.327  14.705  0.1861  0.0138 -0.1830
18722W        W37576   8.392  15.620   9.196  0.0847  0.0748  0.2565
18723W        W37577   2.126  11.433  10.674 -0.3709  0.1241  0.1582
18724W        W37578   7.306  12.766  14.306 -0.0661  0.1170  0.1552
18725W        W37579   9.719   5.903   0.234  0.0850  0.1267  0.1216
18726W        W37580  10.467   7.655  14.308 -0.2154 -0.1100 -0.0715
18727W        W37581  17.808   7.796   5.652 -0.1594 -0.0685  0.0959
18728W        W37582  16.099  17.248   1.291  0.4532  0.2251 -0.1389
18729W        W37583  13.047  14.640   1.902 -0.3106  0.1172  0.0526
18730W        W37584  12.631  14.651  11.221 -0.2095  0.0196 -0.0438
18731W        W37585   0.657  17.417  13.740  0.1708  0.0848 -0.1296
18732W        W37586  12.821   9.266  14.232  0.0987 -0.0077  0.1276
18733W        W37587  13.693  15.147  13.990 -0.0654 -0.1740 -0.0816
18734W        W37588   8.245   5.981   4.473 -0.2708  0.0008 -0.1760
18735W        W37589  17.235   3.285   4.195  0.1030  0.1001  0.1833
18736W        W37590  13.134  16.275  12.578 -0.3180 -0.0063  0.0112
18737W        W37591   8.726   3.862   3.488  0.1951  0.5164  0.3808
18738W        W37592  16.943   2.447  14.676  0.3764  0.1026 -0.0118
18739W        W37593  15.964  13.393  11.984  0.0066  0.0681 -0.1543
18740W        W37594  12.460   4.193   0.288 -0.2518  0.3176  0.1870
18741W        W37595   7.363  13.980   4.735  0.1905 -0.1443  0.3646
18742W        W37596   4.789   8.955   0.274 -0.0346 -0.0639 -0.1674
18743W        W37597   7.481   1.969  11.203 -0.2111 -0.0790 -0.1165
18744W        W37598   3.297  16.858   3.521 -0.0323 -0.2653 -0.1162
18745W        W37599   7.748   0.062  11.384  0.1372 -0.0130  0.0963
18746W        W37600   7.121   4.149  11.697 -0.0524 -0.0714 -0.0107
18747W        W37601  14.265  10.395   0.439 -0.3187  0.0562 -0.1913
18748W        W37602   7.731   7.509   1.621 -0.2328  0.1565  0.0535
18749W        W37603  12.855  11.360   0.001 -0.0007 -0.2752 -0.1560
18750W        W37604   5.888  14.350   3.264 -0.0703  0.3798  0.2645
18751W        W37605   1.026  17.053  10.798 -0.6625 -0.1276 -0.0817
18752W        W37606   9.567  16.910   1.553 -0.0357 -0.0760 -0.2236
18753W        W37607  15.459   1.794   3.370 -0.0059  0.1781  0.0908
18754W        W37608  10.665  18.347  11.615 -0.0605  0.0430  0.3528
18755W        W37609   4.750   8.884  12.275 -0.1595 -0.0180 -0.2480
18756W        W37610   2.614   8.434  11.626 -0.4214  0.0238 -0.0299
18757W        W37611   1.534  15.366   3.089 -0.0129 -0.1783  0.2073
18758W        W37612   0.952  12.775   0.579  0.0587 -0.1411  0.2591
18759W        W37613   3.982   3.512  13.691 -0.1202 -0.0609  0.2078
18760W        W37614   8.859   2.197  14.023 -0.0663  0.0065  0.2486
18761W        W37615  16.623   3.582   4.463  0.0144 -0.1836 -0.1780
18762W        W37616   1.413  14.718   1.752  0.0133 -0.3329  0.3106
18763W        W37617  11.702   6.466  11.093  0.1708  0.1531 -0.0075
18764W        W37618  10.819   8.548  13.538 -0.0335  0.1575  0.3407
18765W        W37619   0.930   5.652  12.728 -0.0145 -0.0955  0.0463
18766W        W37620   5.414   5.287   3.046  0.1533 -0.1172 -0.0231
18767W        W37621  15.071  14.128   0.163  0.4800  0.1651  0.1343
18768W        W37622   6.331   9.328   2.446  0.3064 -0.0752  0.3264
18769W        W37623   4.543   2.964  11.115  0.0120  0.1792 -0.0064
18770W        W37624  14.007   4.944   0.605 -0.2486  0.0139  0.0426
18771W        W37625   1.588  18.821  12.347  0.1224 -0.1991  0.1069
18772W        W37626  18.910  10.353   0.654  0.0447  0.3499 -0.0228
18773W        W37627   2.068  17.075   3.683 -0.1738 -0.3150  0.3123
18774W        W37628  16.147  11.759  13.250 -0.2061  0.2104 -0.0680
18775W        W37629   7.166   1.736   2.022  0.1616  0.0491 -0.2329
18776W        W37630   6.869   4.455  14.200  0.1484  0.1823  0.0752
18777W        W37631   2.042  11.338  14.314  0.1169 -0.0168  0.0634
18778W        W37632   1.687  11.867  14.451 -0.0225  0.1772  0.3298
18779W        W37633  12.699   9.906  12.633 -0.0258  0.3294 -0.1219
18780W        W37634  11.045   3.206  14.464 -0.1469  0.0496  0.1139
18781W        W37635   9.237  17.000   4.082 -0.2865 -0.0739  0.1081
18782W        W37636  16.688   6.890  14.202 -0.2192  0.0216  0.4432
18783W        W37637  12.227  10.916   1.152 -0.4873  0.0451  0.1769
18784W        W37638   6.806  11.560   3.151  0.0941 -0.1581 -0.1436
18785W        W37639   4.924  12.771  11.539  0.1103  0.1957  0.0922
18786W        W37640   8.234  19.128  10.729 -0.4056 -0.0432 -0.1366
18787W        W37641  14.009  11.595   1.488  0.1337 -0.1405  0.0045
18788W        W37642   9.440  18.624   3.572  0.2840 -0.2420 -0.1696
18789W        W37643   4.205   4.426  12.720  0.0644 -0.1852 -0.0730
18790W        W37644  18.480   9.653  14.563 -0.0146  0.1410 -0.1308
18791W        W37645   0.048  17.217   2.745 -0.0435 -0.0745 -0.0723
18792W        W37646  10.420   8.398   2.784  0.2238  0.0518  0.0470
18793W        W37647   1.076  16.544   0.389 -0.0097  0.3170 -0.1290
18794W        W37648   2.194  19.036   3.443  0.1508 -0.0976 -0.1530
18795W        W37649  12.049   8.218   2.725 -0.1134  0.3266  0.1029
18796W        W37650   9.964  10.572   1.112 -0.0876 -0.2234  0.0179
18797W        W37651  15.605   8.465   2.826 -0.0029 -0.1613  0.2298
18798W        W37652   5.472  10.033  13.577 -0.1204  0.3406  0.1340
18799W        W37653  16.504   9.808  13.804 -0.0529 -0.1560  0.0559
18800W        W37654  13.614   1.900  11.916 -0.1030  0.3182  0.0496
18801W        W37655  14.322   6.037   4.413 -0.2700 -0.2663  0.0264
18802W        W37656  11.884   9.332   2.720 -0.2065 -0.1279  0.2136
18803W        W37657   6.851  15.483   1.647 -0.1413  0.3385  0.1878
18804W        W37658   1.913   2.792  11.720  0.1183  0.0344  0.0867
18805W        W37659  15.117  16.645   1.757 -0.0980 -0.1630  0.5409
18806W        W37660   8.822  13.224   1.927 -0.0978 -0.3262 -0.2735
18807W        W37661   8.453  14.727  13.751  0.1943  0.2623  0.1879
18808W        W37662   9.762   0.472  12.175  0.2292 -0.2472 -0.1736
18809W        W37663   7.428  15.841  14.320 -0.3229  0.3704 -0.1551
18810W        W37664   7.363   0.527  14.451 -0.1636 -0.1013  0.1579
18811W        W37665  17.772  15.098   3.881  0.0964  0.1583 -0.1632
18812W        W37666   1.777   7.017   0.005  0.2246 -0.0780 -0.0374
18813W        W37667   7.125   5.051  14.261  0.1797  0.0832  0.2646
18814W        W37668   5.474  10.283  11.900 -0.1252 -0.2184 -0.0313
18815W        W37669   1.659  15.080  12.764 -0.0681 -0.3988 -0.0464
18816W        W37670  12.223   8.531  10.846 -0.2182  0.0958  0.0348
18817W        W37671  10.958  12.491  13.140 -0.0060 -0.2976  0.1308
18818W        W37672   0.657  13.403  11.187 -0.0894 -0.5251  0.1517
18819W        W37673   1.898  10.288   4.502 -0.0354 -0.0925 -0.2365
18820W        W37674   4.016  10.104   3.394  0.1135 -0.0883  0.0692
18821W        W37675  18.503   5.546  13.081  0.1096  0.2661  0.1631
18822W        W37676   6.042  17.571   1.037 -0.0095  0.0805 -0.2746
18823W        W37677  10.710  12.818   9.990 -0.0038 -0.1321  0.2674
18824W        W37678  16.182   6.726  12.237 -0.1342  0.2826 -0.1587
18825W        W37679  11.936   6.788  10.797  0.0671 -0.2357  0.0768
18826W        W37680   2.971  11.421  11.918  0.0660 -0.0975  0.4621
18827W        W37681  10.546   2.933   2.704  0.0441 -0.1209 -0.2301
18828W        W37682  16.416   9.956  11.610 -0.0699  0.0226 -0.1093
18829W        W37683   5.157  13.109  14.636  0.1210 -0.1688 -0.2651
18830W        W37684  12.107  13.187   2.992 -0.3208 -0.0469  0.2189
18831W        W37685   2.957  15.777  12.759  0.0483  0.2058 -0.3975
18832W        W37686  16.178   2.521   1.061  0.0517  0.2410 -0.0726
18833W        W37687   6.939   8.640  12.382  0.0134 -0.1757  0.2875
18834W        W37688  18.434  16.786  13.653  0.2023  0.0126 -0.1579
18835W        W37689  11.904   8.335  11.286  0.0098  0.2501 -0.2940
18836W        W37690  11.559  11.923   3.744  0.0514  0.1073 -0.0799
18837W        W37691   2.541   7.866   2.839 -0.1896 -0.0227  0.0618
18838W        W37692   1.771   8.242   2.553  0.2683  0.0367 -0.4821
18839W        W37693  15.180   3.568   1.035  0.1660 -0.1791  0.0073
18840W        W37694  12.604   2.326  14.771 -0.0014 -0.0285  0.2007
18841W        W37695  17.695   7.409  12.445 -0.1276 -0.0404  0.4380
18842W        W37696  17.577   3.106  12.898  0.0873 -0.0581  0.0513
18843W        W37697   2.099  14.838   3.501  0.3304 -0.0508 -0.4113
18844W        W37698  19.042  15.591  13.213  0.3217 -0.4065 -0.0208
18845W        W37699  17.357  12.000  14.026  0.1693  0.0238  0.1458
18846W        W37700   8.054  17.048  12.148  0.1972  0.1059 -0.0526
18847W        W37701   1.710  15.371  13.187 -0.1948  0.1590  0.2201
18848W        W37702  12.059   7.426  10.781  0.1769 -0.0760  0.4014
18849W        W37703   8.130   4.827   0.146  0.0664  0.3996 -0.2154
18850W        W37704  11.404  16.435  14.722 -0.2621  0.0732 -0.1469
18851W        W37705  18.233   3.199  13.642 -0.0570  0.0657  0.0475
18852W        W37706   4.352  19.002  13.970 -0.0575 -0.2579 -0.1635
18853W        W37707  14.835  16.974  14.675  0.2065 -0.1736  0.3741
18854W        W37708  10.711   3.562  10.461  0.0058  0.1170  0.0687
18855W        W37709   7.737  15.565   2.033 -0.0296 -0.3463 -0.0632
18856W        W37710  15.485   1.132   1.714  0.0283  0.0736 -0.2263
18857W        W37711   2.886   2.440  14.720  0.3542 -0.2473 -0.0329
18858W        W37712   2.379  17.313  13.585 -0.1349  0.2015  0.0787
18859W        W37713   7.264   5.763   2.698 -0.6249 -0.0035 -0.1036
18860W        W37714   5.464  18.508   1.015  0.3269 -0.2729 -0.0632
18861W        W37715   2.224  11.014   1.419 -0.0116 -0.0544 -0.2578
18862W        W37716   4.691   7.824   3.172 -0.0364 -0.1817  0.0096
18863W        W37717   7.359  18.151   0.618 -0.2918 -0.0851  0.2053
18864W        W37718  15.462   5.869   2.023  0.0246 -0.1561 -0.4133
18865W        W37719   3.800  10.327  10.716 -0.0216  0.1473  0.2742
18866W        W37720   4.416   2.836  10.211  0.1209 -0.0098 -0.0765
18867W        W37721   7.755   8.113   3.240  0.2727 -0.0294 -0.0216
18868W        W37722   7.114  12.054  12.491 -0.0192 -0.0696 -0.0421
18869W        W37723  14.434   1.530  11.544  0.0959  0.1926 -0.1435
18870W        W37724  18.905   4.784   1.861 -0.4953 -0.1569  0.2239
18871W        W37725   7.776  12.823  14.611 -0.0307  0.2031 -0.4702
18872W        W37726  10.399   6.131   3.583  0.1985  0.0414  0.0750
18873W        W37727  12.303   9.761  11.291  0.3112  0.0361  0.0383
18874W        W37728   5.746   3.259  10.173 -0.0396 -0.3300 -0.0491
18875W        W37729  13.708  11.246  13.169  0.1450 -0.0676 -0.3840
18876W        W37730  13.058  16.067  14.784  0.0709  0.2380  0.1143
18877W        W37731   0.003   1.162  14.294  0.3093 -0.2221  0.1911
18878W        W37732   4.293   0.078  12.869  0.4272 -0.2630 -0.0902
18879W        W37733   5.834   4.367  10.174  0.0735 -0.4697 -0.1806
18880W        W37734   0.043   9.655   3.622 -0.2291 -0.1020  0.0362
18881W        W37735  16.336   2.312   1.531  0.1082  0.2551 -0.0744
18882W        W37736  11.277   8.804  11.900 -0.1799 -0.3744  0.0195
18883W        W37737   6.136  18.731  11.241  0.0446 -0.0466  0.0619
18884W        W37738   3.873   2.244   1.777  0.0141  0.1133 -0.0487
18885W        W37739  13.647   3.854  13.085 -0.2018  0.1737 -0.0642
18886W        W37740  13.400   9.561   4.817 -0.3188  0.0915  0.0406
18887W        W37741  17.736  14.641   3.697  0.2252  0.0245 -0.0840
18888W        W37742   4.967  11.942  11.374  0.2556  0.1817  0.3108
18889W        W37743  12.182   6.775   0.755  0.2897 -0.0540  0.3246
18890W        W37744  16.018  18.864  14.551 -0.1532  0.1150  0.1108
18891W        W37745  16.025  15.905   4.647 -0.0791 -0.2888 -0.1458
18892W        W37746  10.585  10.295  11.175 -0.2100  0.0375 -0.2242
18893W        W37747  16.718   4.868  11.864 -0.0537 -0.0988  0.0002
18894W        W37748  15.089   8.346   0.473  0.2225 -0.0223  0.1405
18895W        W37749   7.504  10.876  11.113  0.1914 -0.0699  0.0612
18896W        W37750   7.846  14.861  13.054 -0.0861  0.3216  0.1161
18897W        W37751   7.607   3.859  11.532 -0.2876 -0.0720  0.2094
18898W        W37752   1.824   9.658   3.539 -0.5073  0.1399 -0.1459
18899W        W37753   5.612  15.233   3.280  0.1294 -0.2008 -0.1356
18900W        W37754  10.729   0.645   9.294  0.2530 -0.0068  0.1911
18901W        W37755   8.353   6.175   0.710 -0.0403  0.0231  0.2693
18902W        W37756   9.418   3.639   0.228  0.1366  0.5337  0.2694
18903W        W37757  12.426   7.554  11.276 -0.3531 -0.1527  0.3238
18904W        W37758  13.765  16.772  10.849  0.0024 -0.0288 -0.0765
18905W        W37759   6.965  17.886  10.262  0.4263 -0.0969  0.0109
18906W        W37760  10.071   6.730   1.010 -0.2373 -0.1807  0.0721
18907W        W37761  16.912   4.880   1.672 -0.2360 -0.1304 -0.0380
18908W        W37762   3.333   0.399  13.110  0.0992  0.1741  0.0604
18909W        W37763  16.426   8.118  12.323 -0.0383  0.1484  0.1806
18910W        W37764   3.492  10.099   3.290  0.0979  0.1191  0.1687
18911W        W37765   3.866  11.763   3.209 -0.0722  0.1723 -0.0580
18912W        W37766   0.939   4.364   3.654  0.1818 -0.1937 -0.0169
18913W        W37767   0.237   5.672  12.332 -0.1082  0.0575  0.1806
18914W        W37768   8.593   1.647   3.374 -0.0569 -0.2763 -0.2656
18915W        W37769  18.604  12.889   1.932 -0.3373 -0.1030 -0.1333
18916W        W37770   6.090  13.346  11.934 -0.1542  0.1530  0.0637
18917W        W37771  11.712   1.904  14.601  0.0890 -0.0379 -0.1224
18918W        W37772   4.970  14.690   0.759 -0.1651 -0.1610 -0.0783
18919W        W37773  15.594  11.664  13.194  0.2472 -0.0895 -0.0051
18920W        W37774   4.133   3.254   1.436 -0.2719  0.2841  0.0071
18921W        W37775  10.775   3.072   5.207  0.1044 -0.0798 -0.1437
18922W        W37776  10.227  15.201   3.116 -0.5723  0.1687  0.0429
18923W        W37777   0.606   4.944   1.754 -0.2219  0.0692  0.1070
18924W        W37778   3.829   3.490   2.926 -0.1284 -0.2524  0.1637
18925W        W37779   8.795   0.121  12.183  0.3911  0.0769 -0.1074
18926W        W37780   2.767  10.352   2.569  0.0931 -0.2240 -0.0686
18927W        W37781   2.814   7.437   1.752  0.0318  0.2122  0.2873
18928W        W37782  17.048  14.793   0.643  0.0164 -0.0252 -0.0209
18929W        W37783  13.223  17.223   3.153 -0.1840 -0.0656  0.1824
18930W        W37784  18.598   7.688  14.460 -0.0360  0.1612  0.2908
18931W        W37785   6.717  12.785   3.761  0.0302 -0.3184 -0.4584
18932W        W37786   4.288  19.072   3.426  0.0006  0.1138 -0.2557
18933W        W37787  16.321   6.065  10.461 -0.2326  0.2712  0.0479
18934W        W37788   5.744   8.475   1.417 -0.0969 -0.0834  0.2074
18935W        W37789  16.461   8.485  11.715 -0.0320 -0.0351  0.2254
18936W        W37790   6.065   2.898  11.200 -0.3505 -0.3013  0.0111
18937W        W37791   6.969   7.010   1.110  0.1974 -0.0955 -0.2957
18938W        W37792   3.955  12.844   0.919  0.1084  0.1760 -0.1573
18939W        W37793  11.988   2.386  13.534 -0.2598  0.0657 -0.0560
18940W        W37794  11.407  11.339  11.824 -0.1450  0.0146 -0.2231
18941W        W37795  12.453   2.826   0.777  0.2309  0.0329 -0.1961
18942W        W37796  13.783  18.412   2.379 -0.4237  0.3253 -0.0913
18943W        W37797   0.327   1.875  11.471 -0.1426  0.1480 -0.2005
18944W        W37798   7.230   1.875   9.862 -0.0516 -0.1704  0.1605
18945W        W37799   0.768  14.957  10.004 -0.0268 -0.3135  0.0311
18946W        W37800  11.796  12.690   0.867  0.2864  0.0844  0.1182
18947W        W37801   0.345  14.237   1.229  0.0713  0.0035  0.0868
18948W        W37802  11.761   1.869  11.380 -0.1506  0.1746 -0.0438
18949W        W37803   2.333   1.988   1.029 -0.4926  0.0314 -0.5109
18950W        W37804  11.899  18.213  12.595  0.0739  0.1039  0.1300
18951W        W37805  12.620   6.606  12.645 -0.3210 -0.0954 -0.1972
18952W        W37806  13.320   0.519  13.123 -0.0959 -0.0061 -0.1628
18953W        W37807  12.744   4.491  13.419 -0.1306 -0.0698 -0.0864
18954W        W37808   9.940  13.800   3.987 -0.0452  0.0456  0.1410
18955W        W37809  10.482  10.525   2.200 -0.0919 -0.0163  0.1961
18956W        W37810   7.541  16.087  13.076 -0.0416  0.2463 -0.1559
18957W        W37811   7.798  15.233   3.593 -0.4904  0.0985 -0.3187
18958W        W37812  17.153   1.746  13.148  0.0567 -0.2221  0.0233
18959W        W37813  16.663   2.500   1.202  0.0449 -0.0460  0.1190
18960W        W37814   2.507   9.264  14.069 -0.1128  0.0293 -0.0318
18961W        W37815  10.324   1.556   3.372 -0.0689  0.1597 -0.0443
18962W        W37816  15.724   9.582   3.146  0.2077  0.0495  0.2354
18963W        W37817   9.845  18.535   5.232 -0.2924 -0.1267 -0.1960
18964W        W37818   6.404   7.867   3.730 -0.0877  0.3315 -0.1003
18965W        W37819  13.198  18.816   0.392 -0.1292 -0.2360  0.0352
18966W        W37820  13.536  18.136  11.540  0.2998 -0.1607  0.1307
18967W        W37821   5.258   1.361  14.777 -0.1051 -0.2376 -0.0860
18968W        W37822   9.768   0.375  10.426  0.2325  0.1175 -0.0157
18969W        W37823   2.072  14.340   4.334 -0.3179  0.2796  0.0842
18970W        W37824  10.205   1.842   0.265 -0.0741 -0.0425  0.1651
18971W        W37825   0.350   4.913  12.556 -0.0260 -0.1003 -0.0898
18972W        W37826  14.860  12.948  10.629 -0.2391  0.3546 -0.0659
18973W        W37827  15.761   8.732  12.658  0.0146  0.2553 -0.0663
18974W        W37828   5.680  11.749  11.967  0.3419 -0.0763  0.3681
18975W        W37829   4.667  10.369  10.740  0.0130 -0.1972  0.4346
18976W        W37830   1.699  11.910   1.438  0.3068  0.2213  0.1447
18977W        W37831  10.035  14.686   2.741 -0.2062 -0.1708  0.1362
18978W        W37832  11.804  16.707   0.094 -0.0290 -0.0965  0.2122
18979W        W37833  14.132   2.017  11.357  0.1501  0.3270 -0.0245
18980W        W37834   1.217  14.137  14.440 -0.0701 -0.4369  0.0318
18981W        W37835  19.112  12.829  10.218  0.0287  0.1393  0.2532
18982W        W37836  13.910   3.739  13.914  0.1159  0.1197 -0.3670
18983W        W37837   6.251   6.817  14.230  0.0031  0.1026  0.2787
18984W        W37838   1.422   5.581   2.289 -0.1412 -0.2853  0.1684
18985W        W37839   7.693   9.227  11.690 -0.2350  0.1572 -0.0710
18986W        W37840   4.844   8.421  13.954 -0.3607  0.2299  0.1084
18987W        W37841  13.227   2.134   4.164 -0.1837 -0.2290 -0.0327
18988W        W37842  16.155   8.150  11.899 -0.2767  0.0703  0.0303
18989W        W37843   5.653   0.617  11.406 -0.2956 -0.0138  0.1514
18990W        W37844  11.525   1.590   2.426 -0.3408 -0.0974  0.3363
18991W        W37845   4.773  16.770  14.708 -0.1632  0.1360  0.2003
18992W        W37846  10.400  13.907   3.827 -0.2947  0.0756  0.0934
18993W        W37847   4.403  16.857   1.095 -0.0821  0.0034 -0.2049
18994W        W37848   3.639   4.467   3.783  0.4693  0.3225 -0.2008
18995W        W37849  14.415   5.507  12.525  0.0113  0.0966  0.0335
18996W        W37850   6.560  10.534   9.809 -0.0913 -0.3705  0.3137
18997W        W37851   0.804   4.150   0.040  0.1329  0.0848  0.1082
18998W        W37852   0.165   4.474   1.078  0.1074 -0.0541  0.1385
18999W        W37853   4.288  13.975   2.470  0.0537 -0.0249  0.3262
19000W        W37854   4.237   1.909  12.928 -0.1781  0.3164 -0.1316
19001W        W37855   4.390  10.179   0.225 -0.3462  0.1650  0.3586
19002W        W37856   8.155  18.855   1.614  0.2338 -0.2661 -0.1494
19003W        W37857  12.987  14.885  12.590  0.3511  0.0471 -0.1381
19004W        W37858  10.040  10.617   4.550 -0.0922  0.0604 -0.0996
19005W        W37859   8.181  12.585  13.246 -0.2357  0.1218  0.1290
19006W        W37860   0.976   2.656  12.377 -0.1105 -0.3139 -0.1006
19007W        W37861   1.524   6.288  11.277 -0.0971  0.3671 -0.2149
19008W        W37862   4.666  12.549  13.480  0.0284 -0.0697 -0.3292
19009W        W37863   6.958   2.887  12.401  0.2408  0.0667  0.2715
19010W        W37864  13.345   8.770   3.565 -0.2638 -0.2044 -0.1842
19011W        W37865   4.901  15.415   9.313  0.3190 -0.1292  0.2848
19012W        W37866  12.375  17.650   2.085  0.0795  0.2405 -0.2495
19013W        W37867   8.012   9.869  10.929  0.2239 -0.0899  0.0763
19014W        W37868   3.139  17.133  11.932  0.1697 -0.2655 -0.0906
19015W        W37869   8.943   3.601   1.612 -0.0262  0.1615  0.1138
19016W        W37870  15.885  16.450   0.721  0.0900 -0.1652 -0.3323
19017W        W37871  17.560   9.795  12.128 -0.0272 -0.0383  0.3584
19018W        W37872   8.449   5.212  14.682 -0.1050 -0.0628 -0.1153
19019W        W37873   9.773   1.485  12.158  0.0802  0.0768  0.1126
19020W        W37874  15.246   2.049  12.006 -0.0515  0.1450  0.0936
19021W        W37875   1.280  15.244  13.413 -0.2993 -0.2868 -0.3113
19022W        W37876  18.193  12.604   3.556 -0.0170  0.2534  0.1375
19023W        W37877   1.574   7.539  10.210  0.1633  0.1262  0.2088
19024W        W37878   1.109   4.746   1.681  0.0330  0.0390  0.1869
19025W        W37879   7.440  15.278   3.128 -0.0290 -0.1779  0.1788
19026W        W37880   6.293  17.683  12.919  0.3814  0.0303  0.0352
19027W        W37881   7.876  11.674  11.010 -0.0581  0.0630  0.0920
19028W        W37882   1.608   9.415   4.963  0.1865 -0.1291 -0.0416
19029W        W37883  17.165  16.425  13.094 -0.1745 -0.2821 -0.1002
19030W        W37884  15.919   3.665  12.112 -0.3930 -0.3730 -0.2248
19031W        W37885   4.817  16.052  13.369 -0.0183 -0.3351 -0.0028
19032W        W37886   3.449  12.405   4.070  0.2734  0.1444  0.0597
19033W        W37887  14.422   4.925  11.859 -0.0216 -0.4293 -0.0015
19034W        W37888  17.261   3.325  11.008 -0.0757  0.1368 -0.2051
19035W        W37889  10.485  16.349   3.744 -0.3777  0.2136  0.0553
19036W        W37890  14.136   4.095  14.176  0.2517 -0.1099  0.3006
19037W        W37891   8.985   4.854   0.713 -0.1582 -0.1143 -0.3026
19038W        W37892   6.755   3.019   1.405 -0.0838 -0.2885  0.1481
19039W        W37893   4.019   8.038  11.340  0.0664 -0.3199 -0.2663
19040W        W37894  14.729  17.829   1.297 -0.3938 -0.2762  0.1832
19041W        W37895   0.234  17.746   9.624  0.1272  0.4395 -0.2108
19042W        W37896   2.771  16.920  14.372 -0.0506  0.1728  0.0941
19043W        W37897  13.144   8.251   0.112  0.0148 -0.0175 -0.3802
19044W        W37898  10.263  14.076   1.057  0.0643 -0.1663 -0.0027
19045W        W37899   7.506  16.753  10.288 -0.0618 -0.0764 -0.2593
19046W        W37900  12.125  12.420  14.250  0.1583 -0.1070 -0.0446
19047W        W37901   6.205   2.282  10.691 -0.2240  0.2920 -0.1713
19048W        W37902   1.410  12.092  10.906  0.2632 -0.2978  0.1699
19049W        W37903   6.840  13.969  13.344  0.1753 -0.3124  0.0073
19050W        W37904   3.346  16.406   0.489  0.3687 -0.3169 -0.2418
19051W        W37905  14.698   0.200  11.898 -0.2110  0.0315  0.1828
19052W        W37906   3.807  18.766   1.993  0.1839 -0.1499 -0.1765
19053W        W37907  16.040  11.894   2.712  0.0278  0.3868 -0.0210
19054W        W37908  15.607  13.211  14.791 -0.2493 -0.3199  0.1511
19055W        W37909  15.393  14.345  10.314  0.1681 -0.0408 -0.1029
19056W        W37910  12.074  18.195   9.739 -0.0904  0.0637 -0.2230
19057W        W37911  17.912   4.899   0.445  0.2270  0.0699 -0.0240
19058W        W37912   0.220   7.283  11.134  0.0980 -0.0729 -0.1550
19059W        W37913   4.317   4.746   4.146 -0.1758  0.0747  0.1098
19060W        W37914   7.467   5.488  13.547 -0.0488 -0.2026 -0.5075
19061W        W37915   0.657  14.068   1.906 -0.0978  0.0598  0.4133
19062W        W37916   8.476   5.580  10.357  0.3836  0.1331  0.0158
19063W        W37917  16.308   3.442   2.094 -0.2097 -0.0434  0.0829
19064W        W37918   8.142   5.003  13.906  0.0772 -0.0716  0.3226
19065W        W37919   4.213  17.474   0.278  0.4265 -0.3368  0.0626
19066W        W37920   1.003   9.511  14.434 -0.0765  0.0353  0.3438
19067W        W37921  17.652  14.487  12.802 -0.2773 -0.1557 -0.0517
19068W        W37922   8.614  12.586   2.653  0.0103  0.0112  0.0914
19069W        W37923   9.096  18.617  10.875  0.1974 -0.1211  0.0526
19070W        W37924  17.650   1.399  10.914  0.0481 -0.0273  0.0824
19071W        W37925   3.781   5.090   0.216  0.2605 -0.3022  0.0448
19072W        W37926   6.377   7.874  11.899 -0.1564  0.1701  0.0508
19073W        W37927  16.131   8.917  12.887  0.0501  0.1139  0.3235
19074W        W37928   0.563   0.434   2.885 -0.3087  0.2572  0.0961
19075W        W37929   5.673   9.745  11.805  0.1291  0.0117  0.0234
19076W        W37930   0.459   7.037   3.016 -0.3736  0.0612 -0.1971
19077W        W37931   4.190   4.925   2.408  0.1369  0.2480  0.0566
19078W        W37932  18.244   2.189  12.862  0.0541  0.0519  0.0915
19079W        W37933   1.068   2.028  10.469  0.2411  0.0761 -0.1066
19080W        W37934  15.133   0.126   2.900 -0.0925  0.1840 -0.2395
19081W        W37935   4.625   6.280   3.645 -0.0842 -0.0774 -0.4740
19082W        W37936  17.486   7.667  13.853 -0.0250  0.2151  0.0590
19083W        W37937   0.572   8.491  11.681  0.0465 -0.1281 -0.2347
19084W        W37938   3.883  15.984  13.468 -0.2253  0.0524  0.0486
19085W        W37939   3.165   5.493   2.925 -0.2427 -0.0221 -0.0468
19086W        W37940  15.072  14.047   1.582 -0.1553  0.2216 -0.0669
19087W        W37941   9.263   9.332  10.947 -0.0173  0.0558  0.2634
19088W        W37942  18.815  19.065  10.750  0.0632  0.0402 -0.0151
19089W        W37943  11.096  11.455   4.455  0.2737 -0.0308 -0.0591
19090W        W37944   7.938  18.487  14.527  0.1296 -0.0146 -0.4593
19091W        W37945   1.669  13.678   4.356 -0.0411  0.1810  0.2780
19092W        W37946  11.287  10.088  12.600  0.1177  0.2903 -0.0489
19093W        W37947  13.767  12.583  13.025 -0.1372  0.2035 -0.1338
19094W        W37948  10.792  12.979   4.531  0.0289 -0.1888 -0.1336
19095W        W37949  17.914   5.484   2.020 -0.2988 -0.1032  0.2783
19096W        W37950  12.871  15.959  10.686  0.3169 -0.2443 -0.0616
19097W        W37951  16.482  18.430  11.664 -0.0201 -0.1261  0.1296
19098W        W37952   8.234   6.403   1.201 -0.4499 -0.0668  0.0627
19099W        W37953   5.396   5.990  13.505  0.0413 -0.2889  0.1984
19100W        W37954   8.954   6.022   0.820 -0.1551  0.2662 -0.0783
19101W        W37955  18.663   1.750  11.253 -0.2319  0.0609 -0.2007
19102W        W37956   5.349   9.192  14.098  0.0966  0.0071  0.0481
19103W        W37957   9.367  16.257   9.502  0.3556  0.0305 -0.2198
19104W        W37958   7.170   6.376  12.057  0.1686 -0.4556 -0.0390
19105W        W37959   2.598   3.371  14.562 -0.3382  0.3777  0.0656
19106W        W37960   5.667  15.774  13.992  0.0419  0.0803  0.0665
19107W        W37961   5.467   5.558   0.426  0.2093  0.1224  0.0739
19108W        W37962  14.612   7.395   0.110 -0.0646  0.0720  0.1123
19109W        W37963  16.874  17.325  13.023 -0.1712  0.2416  0.1969
19110W        W37964   6.833   6.531   1.759 -0.0866  0.1199 -0.1961
19111W        W37965  11.709  18.167  13.829  0.0703  0.1627  0.2070
19112W        W37966  13.728   2.244   4.130  0.0157  0.2187  0.4118
19113W        W37967   1.336  10.545  14.524  0.0231 -0.0822 -0.0390
19114W        W37968  12.139   1.720   2.959  0.0989 -0.2789  0.3628
19115W        W37969  16.562  15.292  10.234 -0.2025  0.1859  0.0505
19116W        W37970   8.872   4.019   4.733  0.0780 -0.3601 -0.1513
19117W        W37971  15.063   4.303   3.164 -0.0997 -0.0282 -0.1419
19118W        W37972   0.172   7.634   2.066  0.1353 -0.0728 -0.2398
19119W        W37973   6.386   6.963  12.986  0.0754 -0.0479 -0.1030
19120W        W37974   5.047   2.386   2.677 -0.0664  0.1012 -0.0886
19121W        W37975   4.892  12.406   3.782  0.2307 -0.1762  0.0346
19122W        W37976  18.415  11.331   9.637  0.1014  0.3659  0.2690
19123W        W37977  18.424   5.539  11.445 -0.3161  0.1300  0.0921
19124W        W37978  14.943  14.378  11.136 -0.0993  0.2836  0.2579
19125W        W37979   1.256   5.040  11.391 -0.1484  0.3195 -0.1171
19126W        W37980   2.881   6.579   0.018 -0.1246 -0.0695 -0.2275
19127W        W37981  17.125   5.743  14.465 -0.3573  0.0359  0.0074
19128W        W37982   7.969   3.217  12.137 -0.0174  0.2113 -0.0727
19129W        W37983  16.451  12.846  12.204  0.3357  0.2071  0.2559
19130W        W37984   4.278   3.574   2.719 -0.0850  0.0625  0.3835
19131W        W37985  17.790  10.231   4.300 -0.1207 -0.2553 -0.1061
19132W        W37986   7.070   2.954  12.926  0.1935 -0.2096 -0.0787
19133W        W37987   7.854   3.848  13.004  0.0507 -0.1824 -0.0951
19134W        W37988   9.164   0.646   3.493 -0.0526 -0.4273  0.4341
19135W        W37989  14.665   9.620  12.469  0.4005 -0.0222 -0.0276
19136W        W37990  13.754   6.421  11.827  0.3042 -0.2606  0.1908
19137W        W37991  15.581  12.161   2.798  0.2143  0.3235 -0.0840
19138W        W37992   7.125   7.140  13.539 -0.0638  0.1871 -0.0697
19139W        W37993   5.744  15.394  14.748 -0.0671 -0.0344  0.3147
19140W        W37994  11.836   4.431   0.763 -0.0096  0.1459 -0.0036
19141W        W37995  10.157   1.739   1.155 -0.1658 -0.1139 -0.2177
19142W        W37996  16.210   3.490  10.119 -0.1050  0.0977  0.4410
19143W        W37997   8.420  15.927   0.367 -0.0686 -0.0981  0.0435
19144W        W37998   9.000   5.160  13.489  0.3311  0.0874 -0.1737
19145W        W37999  14.256  15.152  14.454 -0.0478  0.1430  0.0383
19146W        W38000   1.961  18.900   1.782 -0.1818 -0.0750  0.0990
19147W        W38001  11.872  10.470  12.165 -0.3057 -0.1290  0.0206
19148W        W38002  18.578   9.294   1.721  0.1256 -0.0539  0.0712
19149W        W38003  18.657   0.534   1.792  0.0902  0.0947  0.0972
19150W        W38004  17.810  12.594   1.916  0.1294  0.1561 -0.2737
19151W        W38005   5.826   7.305  13.574 -0.1798  0.0069  0.1846
19152W        W38006  11.318  10.428   0.663 -0.0179 -0.1306 -0.0188
19153W        W38007  13.626   3.241   0.376 -0.1028 -0.0468 -0.0145
19154W        W38008   7.374  14.727   1.875  0.2188 -0.0923 -0.3236
19155W        W38009   8.162   8.582   2.646 -0.1820 -0.0188  0.0422
19156W        W38010  10.629  12.303   3.239  0.1116  0.5539 -0.2137
19157W        W38011   5.257   8.209   0.749 -0.0106  0.0758 -0.1018
19158W        W38012  15.944   3.350  11.360  0.0498  0.1737 -0.3083
19159W        W38013  18.097  11.948  10.734  0.1216 -0.1275  0.0639
19160W        W38014  11.023  12.438   1.397 -0.2514 -0.0371  0.1658
19161W        W38015   6.650  16.790   0.150  0.0591  0.1995  0.1675
19162W        W38016  17.305   8.784   4.323 -0.0882  0.1327 -0.0817
19163W        W38017   8.985  16.585  11.111 -0.0915 -0.0796  0.1266
19164W        W38018  15.851  16.541   1.234 -0.3074 -0.3260  0.0681
19165W        W38019   1.058  11.436   0.958 -0.1811 -0.1522  0.0554
19166W        W38020  11.617   9.392  11.447 -0.1974 -0.0652 -0.1246
19167W        W38021   3.801  14.559   4.967 -0.3696  0.3115 -0.1851
19168W        W38022   0.125   4.271   1.973 -0.0992 -0.0196  0.1790
19169W        W38023  10.762  18.697  11.941 -0.3290  0.2178 -0.0150
19170W        W38024   2.187   8.872   0.733 -0.0005 -0.0316 -0.0951
19171W        W38025  17.812   5.245  14.220 -0.1150 -0.1653  0.0489
19172W        W38026  14.395  15.278   3.964 -0.0656 -0.2019 -0.4527
19173W        W38027  18.259  17.776  13.571  0.0266  0.0337  0.0714
19174W        W38028   5.729  17.409  11.677 -0.2722 -0.1890  0.1723
19175W        W38029   8.745   2.391  12.935  0.0972 -0.2590  0.1895
19176W        W38030   0.763  18.770  13.497 -0.0961 -0.2567 -0.0356
19177W        W38031  16.695  12.123   3.311  0.0772 -0.1424 -0.0546
19178W        W38032   9.597  13.283  13.868 -0.2110 -0.2455  0.0638
19179W        W38033  10.891   5.378   4.883  0.1769 -0.1645 -0.3157
19180W        W38034   6.689   4.433   9.489 -0.2289  0.2309 -0.1260
19181W        W38035   5.332  16.018  12.152  0.0123 -0.2495  0.2033
19182W        W38036  17.575  15.113  14.258  0.1329 -0.1000 -0.0885
19183W        W38037  18.090   3.192   1.723 -0.3052  0.1738 -0.0349
19184W        W38038  12.764  15.182  14.191 -0.1656  0.0493 -0.0465
19185W        W38039  13.421   7.546   2.095  0.0906 -0.0867 -0.1739
19186W        W38040  16.784   5.661  11.570 -0.0344  0.0045 -0.1845
19187W        W38041   4.496   6.870   1.551  0.1078  0.1193 -0.1265
19188W        W38042   6.837  11.048   2.334 -0.1540 -0.0662  0.0009
19189W        W38043   7.072   9.811  14.001 -0.1795  0.0541 -0.1044
19190W        W38044  17.912   3.394   2.199  0.0974  0.2736  0.1242
19191W        W38045   1.591   7.574  13.317 -0.3677 -0.2205 -0.1342
19192W        W38046  18.919  17.721  13.505 -0.1738  0.0603 -0.2358
19193W        W38047  14.287   2.924  12.288 -0.0082 -0.1618 -0.1399
19194W        W38048   5.782  12.950   9.983  0.0517 -0.2318 -0.3138
19195W        W38049   3.814   3.379   0.379 -0.2360 -0.1983  0.0839
19196W        W38050  11.498  17.424   3.915  0.0815 -0.2773 -0.5305
19197W        W38051  16.606   9.142  12.451  0.0173  0.2092  0.0493
19198W        W38052  16.115   2.058  11.460 -0.1732 -0.3552  0.0272
19199W        W38053  11.512  13.455  12.781  0.1529 -0.1419 -0.1773
19200W        W38054  15.471   8.078   3.335  0.2369  0.3194 -0.3021
19201W        W38055   5.622  13.684   0.881  0.0283  0.0036 -0.2556
19202W        W38056  16.782   1.291   4.423  0.0596  0.2160  0.3240
19203W        W38057  14.114   1.152   1.100  0.1250 -0.0526  0.4566
19204W        W38058   2.121  17.053  11.388  0.0215 -0.1830 -0.3444
19205W        W38059  11.899   0.126   2.130  0.0425  0.2059  0.0639
19206W        W38060  10.944   9.936   0.188 -0.0887 -0.0154 -0.0469
19207W        W38061  10.041  11.348   2.311 -0.3939  0.0629 -0.1891
19208W        W38062   6.764   2.934  11.529  0.0449 -0.3395  0.1439
19209W        W38063  16.924   5.389  12.660  0.0156 -0.3886 -0.3546
19210W        W38064   5.230   9.929   1.372  0.1142  0.1968  0.0011
19211W        W38065   3.999   3.824  11.477  0.2395 -0.2324  0.4848
19212W        W38066   6.507   7.519   1.854 -0.0569  0.3123 -0.2426
19213W        W38067  19.020   0.021  13.805  0.2276 -0.0847  0.1653
19214W        W38068   8.211   8.640   0.941  0.0308 -0.1597 -0.0052
19215W        W38069   5.880  13.109  14.233 -0.0835  0.1621 -0.0559
19216W        W38070  18.786   8.225   4.296 -0.2895 -0.0885  0.2061
19217W        W38071  10.539   2.863  13.292  0.2159 -0.3415 -0.0080
19218W        W38072  19.115   2.009  10.583 -0.0807 -0.1330 -0.1263
19219W        W38073  14.219  12.441   3.408 -0.3003  0.3675  0.0145
19220W        W38074   2.514  12.467   4.110 -0.0607  0.1119 -0.1709
19221W        W38075   7.468   8.909  12.569  0.2064 -0.2380 -0.0574
19222W        W38076   7.343   3.257  13.362  0.0804 -0.3175  0.1225
19223W        W38077  16.979  10.448   1.681  0.1924  0.1178  0.1905
19224W        W38078   1.090   7.593  13.045  0.0918 -0.2129 -0.1980
19225W        W38079   5.577  10.851   3.505  0.0110 -0.1098  0.0663
19226W        W38080  18.906  17.303   3.102 -0.0865 -0.0014  0.0771
19227W        W38081   9.227   0.555   5.328  0.1271  0.0067 -0.0382
19228W        W38082   1.348  15.754  10.644  0.0888  0.1724  0.0314
19229W        W38083   5.202   6.216   4.378  0.0480  0.3991 -0.1505
19230W        W38084   1.699   7.928   1.241  0.4064 -0.2971  0.0027
19231W        W38085   0.190   5.879  11.436 -0.1235  0.1001 -0.0199
19232W        W38086  13.474  12.228  12.828 -0.2011 -0.1916 -0.0740
19233W        W38087  15.097  19.152  12.064  0.2835 -0.3583  0.0043
19234W        W38088   0.305  13.255   4.223  0.2590  0.1818  0.0240
19235W        W38089  14.505   9.041   1.721  0.0633 -0.1746  0.1703
19236W        W38090   2.407  11.390  12.148 -0.0603 -0.0272 -0.1457
19237W        W38091  11.425   9.208   3.580 -0.0949  0.0723  0.0658
19238W        W38092   9.666  10.054  14.355 -0.0223 -0.1692 -0.0645
19239W        W38093  17.432   7.721  10.568 -0.1583 -0.1628  0.2182
19240W        W38094   8.387  18.554   1.322  0.1336  0.0363  0.5200
19241W        W38095   5.827   1.106  12.762  0.0142  0.1319  0.1559
19242W        W38096   8.978   8.153  14.452  0.1998 -0.1076 -0.1944
19243W        W38097   6.945  10.799   1.140 -0.1370 -0.0574 -0.0831
19244W        W38098  18.683  15.665   0.616  0.0846  0.1193  0.1808
19245W        W38099   2.132  12.151   3.834  0.1207 -0.0310  0.0617
19246W        W38100   1.046  14.971   5.453 -0.3021 -0.0772 -0.2316
19247W        W38101  18.978  13.862  13.717  0.0302  0.0185  0.3120
19248W        W38102   3.123   8.658  14.320 -0.0520  0.0554  0.1384
19249W        W38103   8.850   2.337  11.114  0.0572 -0.0496 -0.0702
19250W        W38104  14.520  11.952  14.180  0.2050  0.3533  0.1925
19251W        W38105  15.873  16.772  13.119  0.0419 -0.0501 -0.0588
19252W        W38106   9.195   6.269   0.359 -0.0689  0.2304  0.1432
19253W        W38107   2.473  12.796  12.716  0.1302 -0.1907 -0.1142
19254W        W38108   3.181  15.799   2.304 -0.1369  0.2252 -0.3933
19255W        W38109   3.591   5.635  13.061  0.1111  0.1328 -0.0555
19256W        W38110  11.064   6.244   1.129  0.0390  0.0664 -0.0334
19257W        W38111  11.928   9.836  11.611 -0.0137 -0.0280  0.0320
19258W        W38112  15.637   1.243  10.572  0.1107  0.2714 -0.0442
19259W        W38113  16.189   7.594   0.313 -0.1226  0.2084 -0.1603
19260W        W38114   0.357   8.596  10.885  0.1444  0.0561 -0.0278
19261W        W38115   4.492   7.824   2.306  0.1498  0.1297 -0.5220
19262W        W38116   4.233   7.312   1.460 -0.1935  0.1071  0.1259
19263W        W38117  11.452  15.317   4.087 -0.1122  0.1737 -0.1392
19264W        W38118  18.902  18.108  11.066  0.0122  0.0443  0.1017
19265W        W38119   4.734   5.045   2.569  0.0720  0.2768  0.0366
19266W        W38120   3.830   4.040   3.635  0.0439  0.0773 -0.2674
19267W        W38121   4.233  15.850  14.432 -0.0518 -0.1053 -0.3469
19268W        W38122  12.541  14.004  14.713  0.1127 -0.1704 -0.1157
19269W        W38123  17.071  12.972  11.199 -0.1900  0.0590  0.2156
19270W        W38124  16.523  16.332   0.138 -0.1842 -0.1510  0.0881
19271W        W38125  11.825   0.580  11.959 -0.2413 -0.0386  0.2380
19272W        W38126   3.316  16.947   4.169  0.0459 -0.2436 -0.2528
19273W        W38127   9.508  12.587   0.227  0.1145  0.2934 -0.3433
19274W        W38128   1.370  17.062  12.317  0.0445  0.0629 -0.4171
19275W        W38129  12.320   2.754  12.283  0.1589 -0.0383 -0.2452
19276W        W38130  15.984  11.580   0.995 -0.3435 -0.1636 -0.2451
19277W        W38131  12.161   2.786   1.792 -0.1039 -0.1365  0.1625
19278W        W38132   5.596   1.980   1.143 -0.1673 -0.0766 -0.0245
19279W        W38133   2.566   2.463   3.552  0.1215  0.0485  0.4858
19280W        W38134   7.868   0.926  13.720 -0.5124 -0.1112  0.4488
19281W        W38135   2.500   0.280   2.056 -0.2976 -0.0152  0.2697
19282W        W38136   6.965   8.611   1.415  0.1966 -0.2797 -0.1778
19283W        W38137  13.758   3.244   3.990  0.1648 -0.1323  0.3461
19284W        W38138  14.122   2.573   0.950 -0.2763 -0.0732 -0.2549
19285W        W38139  15.203  12.951  11.921  0.0004 -0.3272 -0.1434
19286W        W38140  16.067   4.565  13.871 -0.1126 -0.1126  0.0179
19287W        W38141  12.050   2.803  14.161  0.1672  0.0002  0.0738
19288W        W38142   0.233  18.045   2.756  0.1153  0.1138 -0.3300
19289W        W38143  13.317  19.045  14.708  0.0428 -0.5621 -0.0641
19290W        W38144  13.882   9.637  13.086 -0.1570  0.0678  0.0224
19291W        W38145   7.771  18.383   0.344  0.0870  0.0062 -0.0455
19292W        W38146  14.605  12.812   3.406  0.1243 -0.0102  0.0740
19293W        W38147   6.598  11.656  12.927  0.2467  0.0691 -0.1161
19294W        W38148  18.226  13.338   2.441  0.0835 -0.0995 -0.0848
19295W        W38149   1.187   0.053  13.425 -0.0689 -0.0996  0.2762
19296W        W38150   6.298  15.285   2.934 -0.4025 -0.1124  0.1442
19297W        W38151  10.385   7.903  14.762 -0.2988  0.0612  0.0225
19298W        W38152   5.074   3.327   2.355  0.1469  0.1125 -0.0292
19299W        W38153   7.753  14.188  12.187 -0.0170  0.1418  0.0350
19300W        W38154  15.469   8.983   3.808  0.1076  0.0609  0.3754
19301W        W38155  12.051   3.585   2.605 -0.2711 -0.2956 -0.0370
19302W        W38156  16.201  16.425  13.831 -0.1107 -0.0484  0.1088
19303W        W38157   9.025   4.756  12.534 -0.0420  0.1215 -0.0089
19304W        W38158  13.940   2.708   2.849  0.0647 -0.0249  0.0076
19305W        W38159   1.619   3.927  12.266  0.2302 -0.1643 -0.0250
19306W        W38160  17.837   3.973   0.693  0.0668  0.0287  0.0156
19307W        W38161   4.424   4.896   3.436 -0.2048 -0.1474 -0.0710
19308W        W38162  16.111  14.643  12.578  0.2028 -0.1179  0.1129
19309W        W38163  16.987   1.585   3.596 -0.1838  0.4138  0.0194
19310W        W38164  16.330   0.606   0.549  0.1057  0.0669  0.0931
19311W        W38165  11.168  10.135   3.278 -0.0956  0.0832 -0.0875
19312W        W38166  13.527   6.729  12.240  0.0292 -0.1425  0.4095
19313W        W38167  17.498   9.881   4.522  0.2345  0.0242 -0.0421
19314W        W38168   6.778  10.999  12.539  0.3167  0.0498  0.0790
19315W        W38169  11.190  18.751   4.242 -0.0715  0.0930 -0.1341
19316W        W38170  11.047  12.236   3.781 -0.1420  0.0050  0.2183
19317W        W38171  11.909  13.692   2.821 -0.1704 -0.4035  0.2262
19318W        W38172   0.519   6.186   4.030 -0.0276 -0.0374  0.3952
19319W        W38173  14.215   1.645   0.359 -0.3827  0.1664  0.0203
19320W        W38174   2.528   0.583  12.773  0.0730  0.0075 -0.1529
19321W        W38175  10.377  11.296   1.273  0.0683  0.1141  0.0637
19322W        W38176  15.585  16.649  10.754  0.2663 -0.1269 -0.2238
19323W        W38177   5.355   4.295  12.589  0.1890  0.1932 -0.1112
19324W        W38178   3.792   9.251  11.359  0.0099 -0.2856 -0.1819
19325W        W38179  16.263   4.466  11.056 -0.0165  0.1943  0.1942
19326W        W38180  10.563  14.565   2.630  0.0533 -0.0909 -0.4126
19327W        W38181  18.141  14.700   2.394  0.1767  0.0038  0.1303
19328W        W38182   0.742   0.894   3.082  0.1590 -0.1242 -0.1235
19329W        W38183  13.434  11.741   1.557  0.3571  0.0110 -0.0677
19330W        W38184  15.274  16.002   1.890  0.1975 -0.3051 -0.0817
19331W        W38185  16.122   6.839   4.257 -0.3657  0.1144 -0.1061
19332W        W38186  12.755  12.584  11.291  0.1537 -0.0593 -0.1810
19333W        W38187  12.307  16.971   3.321 -0.1858 -0.2655  0.2152
19334W        W38188  11.699   3.206   2.595 -0.3534  0.0075 -0.2534
19335W        W38189   1.655   0.035  10.777 -0.0033  0.2473  0.0421
19336W        W38190  17.098  15.225  14.594  0.1811  0.3121  0.0187
19337W        W38191  10.617  17.469   3.556 -0.0643  0.0051 -0.0681
19338W        W38192  11.199  14.974   2.188 -0.4343  0.1390 -0.2310
19339W        W38193  15.390   9.753   2.307 -0.1398  0.1480  0.1109
19340W        W38194   4.441   0.638  12.905  0.1772 -0.1428 -0.1433
19341W        W38195   3.164  16.457  12.215  0.3568  0.3533 -0.0103
19342W        W38196  15.927   3.995   0.317 -0.0189 -0.3053  0.3948
19343W        W38197   6.873  16.230   2.220  0.1659 -0.1351  0.1712
19344W        W38198   4.648  18.580   2.699  0.5125  0.0708  0.4266
19345W        W38199  16.128  13.209   1.717  0.0673  0.4111  0.1378
19346W        W38200  19.076  17.168  10.723  0.1724  0.0563 -0.2107
19347W        W38201   6.705  18.390  11.863 -0.1938  0.0285  0.1434
19348W        W38202   6.850  15.980   0.161  0.2104 -0.4486  0.1324
19349W        W38203   5.392  16.337  13.081  0.0533  0.0530 -0.0959
19350W        W38204   2.612  17.368  14.126 -0.2902 -0.0367  0.0043
19351W        W38205   2.223   4.920  14.366  0.1206 -0.0292  0.1140
19352W        W38206   6.738   9.517   1.594  0.0503 -0.0911 -0.0607
19353W        W38207   2.858   5.378   3.400  0.0925  0.1254 -0.0324
19354W        W38208  13.835  10.221   2.390 -0.1087  0.2647  0.2205
19355W        W38209  16.275   6.067  13.574  0.1509 -0.2027 -0.0772
19356W        W38210   2.127   6.710  13.423  0.2475  0.1254  0.2106
19357W        W38211  18.389  18.888  12.655 -0.0243 -0.2880  0.1388
19358W        W38212   6.025   1.800   1.067  0.2145 -0.0309  0.3111
19359W        W38213  13.963  18.483   9.601 -0.2529 -0.3139  0.2245
19360W        W38214  15.600  17.697   0.890 -0.1599  0.0894 -0.1416
19361W        W38215   3.799  15.342   0.833 -0.1401 -0.2004  0.0476
19362W        W38216   5.294   3.037  11.532  0.1914 -0.0175  0.0454
19363W        W38217  17.571   1.040   3.060 -0.0687  0.0115  0.0150
19364W        W38218   8.473  11.368   1.879  0.0034 -0.2473 -0.0304
19365W        W38219   7.391  11.285  11.450 -0.0062  0.3471  0.2764
19366W        W38220  14.602   8.722  10.414 -0.2249  0.1349 -0.1314
19367W        W38221   2.291   9.540  14.435 -0.1111 -0.2328  0.2932
19368W        W38222   1.110   3.189  13.208  0.1407 -0.3230  0.1837
19369W        W38223  11.215  18.627  13.220 -0.1057  0.1868  0.2664
19370W        W38224   8.765  11.272   0.715  0.0858 -0.4680 -0.0628
19371W        W38225  13.472   5.153  10.996  0.1426 -0.0816 -0.0191
19372W        W38226   3.034  10.408  11.018 -0.0260 -0.2276 -0.1976
19373W        W38227  14.365   1.924  13.179 -0.0673 -0.4132  0.0962
19374W        W38228   7.255  18.039   2.904 -0.1817 -0.0384  0.1862
19375W        W38229  16.673  13.889  14.507 -0.1159  0.1541  0.0031
19376W        W38230  19.125  11.059   2.968  0.2393 -0.3437  0.1177
19377W        W38231   3.136  17.175  14.141  0.1533  0.1073  0.0018
19378W        W38232   3.408   9.369  14.521 -0.2905 -0.0090 -0.2108
19379W        W38233   2.496   2.630  11.213 -0.0611  0.1763  0.0509
19380W        W38234   8.433   9.897   4.394  0.3018  0.2816 -0.1248
19381W        W38235  18.376   8.592  12.771 -0.3658 -0.1420 -0.1801
19382W        W38236   2.949   5.148   0.351  0.3496  0.3957  0.1976
19383W        W38237  14.803  18.323  14.349  0.3587  0.3237 -0.0761
19384W        W38238   4.220  14.865   2.309 -0.0847  0.1277  0.0553
19385W        W38239   8.914   0.858  12.843  0.2060 -0.1924  0.0622
19386W        W38240  14.689   3.625  13.056 -0.0319 -0.3432  0.0828
19387W        W38241   2.353   1.609  11.201 -0.2625  0.0216 -0.0787
19388W        W38242  10.870   9.552   1.660  0.1581  0.0003 -0.0038
19389W        W38243   0.815  17.612   3.831 -0.0537  0.1036  0.0721
19390W        W38244   3.943  14.362   1.460 -0.1692 -0.1143  0.0674
19391W        W38245   3.773   3.602   1.618  0.0600 -0.2758  0.2351
19392W        W38246  18.652   2.488   3.294 -0.1246  0.1378 -0.1604
19393W        W38247  11.303   9.530   1.869  0.0796 -0.0358 -0.0320
19394W        W38248   9.395  14.462  12.875  0.2964 -0.2985 -0.0417
19395W        W38249  17.939   0.962  12.648 -0.0594 -0.1102  0.0384
19396W        W38250  12.369   8.705  12.763 -0.2299 -0.1329 -0.1748
19397W        W38251  17.279   7.009   1.425  0.0827  0.3220 -0.2648
19398W        W38252   7.155  15.652  13.941 -0.0903  0.2791  0.1027
19399W        W38253  16.798  11.042  14.592  0.1903  0.1305 -0.2460
19400W        W38254  10.741  10.390  13.791 -0.0040  0.4883 -0.1558
19401W        W38255  10.101   9.349   2.977  0.2714  0.1383 -0.1994
19402W        W38256  13.398   2.566   1.741 -0.0430 -0.1111 -0.1843
19403W        W38257   9.243  11.584  13.502 -0.0890  0.1030  0.0952
19404W        W38258  17.613  10.702  12.172 -0.1880 -0.2111 -0.0727
19405W        W38259  14.402  11.763   0.621 -0.1108  0.0574  0.2155
19406W        W38260   1.780   3.329  14.459  0.0541 -0.0144  0.2705
19407W        W38261  15.476  10.141  11.084 -0.0629 -0.1459  0.2340
19408W        W38262  16.478  11.449  14.665  0.1902  0.2178  0.0415
19409W        W38263   0.846  17.250   3.494  0.2061 -0.0150 -0.1114
19410W        W38264   5.697   8.512   3.752  0.1529  0.1787 -0.2248
19411W        W38265  13.201   8.740  13.468  0.1785  0.0178  0.0803
19412W        W38266  10.712  11.315   4.784 -0.0293 -0.2469 -0.0907
19413W        W38267  16.055  18.058  13.785  0.2137 -0.0639  0.1800
19414W        W38268   4.777  13.452  13.685  0.0122  0.0835 -0.0048
19415W        W38269  13.680  11.149   0.064 -0.0091 -0.1436  0.3280
19416W        W38270   9.760  10.541   3.694 -0.3328  0.0841 -0.0090
19417W        W38271  13.644   6.512   2.015 -0.1129 -0.0693 -0.2440
19418W        W38272   9.122  12.541  13.737 -0.1258 -0.0983  0.0696
19419W        W38273   1.581  10.533   2.372  0.0248 -0.1788 -0.5178
19420W        W38274  18.411   2.857   0.708 -0.2214  0.0718 -0.2909
19421W        W38275   9.849  18.055  12.160 -0.0231  0.1064 -0.1220
19422W        W38276   6.075   9.016  12.149  0.0037 -0.0514 -0.0320
19423W        W38277  19.065  11.978   1.869  0.0899 -0.0101 -0.2010
19424W        W38278   0.604  11.133  12.909  0.1339  0.2508 -0.1771
19425W        W38279  15.261  17.149   3.823 -0.0386 -0.1282 -0.1967
19426W        W38280   8.940  10.865   3.506  0.2321 -0.0006 -0.3098
19427W        W38281   8.452   6.789   0.904 -0.1786 -0.3409 -0.2008
19428W        W38282   1.105   1.512  10.752 -0.4357 -0.0262  0.1183
19429W        W38283  13.781   3.901   1.005  0.1003  0.0257 -0.1300
19430W        W38284  14.230   0.267   3.111 -0.1556 -0.2642  0.0659
19431W        W38285   7.207  10.426  11.795 -0.3345  0.0083  0.0500
19432W        W38286   8.923  18.296  14.400 -0.0699  0.0190 -0.1317
19433W        W38287  10.377  12.440  12.642  0.1269 -0.0491  0.3102
19434W        W38288   5.619   9.537   3.658  0.1307 -0.1029  0.1169
19435W        W38289   6.278  10.771   2.452  0.0358 -0.1083 -0.0901
19436W        W38290   1.208   6.291  14.790  0.0733  0.1515 -0.0061
19437W        W38291   7.339  12.051   1.500 -0.2336  0.0848 -0.2693
19438W        W38292   5.423  11.682   0.504 -0.2189  0.0506  0.0250
19439W        W38293   8.428   5.554   3.591  0.0037  0.0819 -0.0208
19440W        W38294   7.311   8.655   2.294  0.1320 -0.0671  0.3251
19441W        W38295   5.377  14.418   1.282 -0.0054 -0.1827 -0.1958
19442W        W38296   7.395  15.178   0.429 -0.2514 -0.0964 -0.0279
19443W        W38297   2.661  17.254  12.176 -0.3535  0.1911  0.0477
19444W        W38298   0.962  16.151  13.790  0.0366 -0.0599  0.0136
19445W        W38299  13.726   4.301   2.254 -0.1561 -0.0025  0.3292
19446W        W38300  13.990   4.814   4.350  0.0297  0.2264 -0.1668
19447W        W38301  15.007   4.240  11.544 -0.0293  0.4411  0.0080
19448W        W38302  16.174   3.689   3.107  0.0319 -0.0194  0.0457
19449W        W38303  15.699  10.791   0.638 -0.1146 -0.1553 -0.0330
19450W        W38304   0.065  10.553   3.154  0.0254  0.1519 -0.0903
19451W        W38305  18.326  14.486   1.981 -0.1326  0.2658 -0.0619
19452W        W38306   1.641   6.588   4.011  0.2815 -0.3001  0.1413
19453W        W38307   8.759  14.394  10.623  0.0548  0.0959  0.1701
19454W        W38308  13.602   4.260   9.985  0.0994  0.0832  0.2472
19455W        W38309  16.632   8.111   3.974 -0.1255  0.0067 -0.1014
19456W        W38310   8.445  16.514  11.384  0.0439  0.3984  0.0865
19457W        W38311   2.778  17.344  13.192  0.0647 -0.0144  0.1856
19458W        W38312   9.195  19.058   1.850  0.3310  0.2585  0.0258
19459W        W38313   3.774  17.001   1.894  0.0177  0.2372 -0.2056
19460W        W38314   9.980  12.324   3.298  0.0184  0.0607 -0.1170
19461W        W38315   6.191   9.821  14.391 -0.1880  0.0627  0.0291
19462W        W38316   9.419   5.083   2.655  0.0367  0.3913  0.0497
19463W        W38317   8.246   9.665   2.548  0.1424 -0.2482 -0.4442
19464W        W38318  13.009   4.851   2.405  0.0690  0.3046 -0.2155
19465W        W38319  12.743  17.674  10.685 -0.0311 -0.2667  0.0155
19466W        W38320   1.801  11.461   0.745  0.1336 -0.0494  0.1612
19467W        W38321   1.839  10.304   0.426 -0.0996 -0.0585  0.0967
19468W        W38322  18.789  13.744   3.878 -0.0343 -0.0064 -0.3115
19469W        W38323   3.336   0.659  10.809  0.2335  0.0951 -0.0273
19470W        W38324   3.114  14.983  11.459  0.2427  0.0696  0.2552
19471W        W38325   5.344  17.620   9.692  0.0151 -0.1383  0.3520
19472W        W38326   8.735  16.145  10.432  0.0261  0.0235 -0.3891
19473W        W38327  13.831   1.346  13.655 -0.0807  0.1160 -0.0782
19474W        W38328  17.500   0.143   3.393  0.3102 -0.1395  0.0200
19475W        W38329   1.976   5.784  13.581 -0.0831 -0.3186 -0.0698
19476W        W38330   9.234  10.333  14.026 -0.1354  0.0561  0.0673
19477W        W38331  13.392   1.219   3.511 -0.1193 -0.3036 -0.2451
19478W        W38332   3.118   4.686   3.924 -0.0702  0.1209  0.0241
19479W        W38333   5.229   1.397   3.776 -0.2810 -0.0539 -0.1462
19480W        W38334  15.861   1.497  12.669  0.1644 -0.0292 -0.1020
19481W        W38335  15.277   6.357  13.491 -0.1856 -0.1594  0.0571
19482W        W38336  14.117  14.662  14.231 -0.1180 -0.2542  0.3081
19483W        W38337  13.912  11.427  12.020 -0.0816  0.0562 -0.0446
19484W        W38338   4.770   3.709   2.631 -0.4582 -0.0757 -0.0560
19485W        W38339   0.775  15.596   2.718 -0.1229  0.1262 -0.2497
19486W        W38340  10.530   4.744   2.892 -0.1319  0.1715 -0.1865
19487W        W38341   5.426   2.889   3.562 -0.0292  0.0722 -0.1921
19488W        W38342   7.501   9.036  13.937 -0.2165 -0.0082  0.1437
19489W        W38343  11.995  12.036  11.145  0.0627 -0.0377  0.2916
19490W        W38344  13.712  14.514   3.129  0.0337  0.1554 -0.0610
19491W        W38345  14.929  14.801  11.617 -0.1566 -0.1549 -0.2026
19492W        W38346  15.321   1.567  11.923 -0.0963 -0.0061  0.1522
19493W        W38347   2.715   4.764   0.063  0.0641  0.0632 -0.2814
19494W        W38348   8.224   3.082  14.329  0.1173  0.0715 -0.1104
19495W        W38349  10.876  15.208   3.336  0.2162  0.2401 -0.1791
19496W        W38350  14.791  12.000   2.796  0.4547  0.0558 -0.0456
19497W        W38351   4.687  15.040  12.799 -0.0041  0.0086 -0.0111
19498W        W38352  11.967  11.267  11.784 -0.1947 -0.0372  0.0290
19499W        W38353   0.347   8.783  11.379 -0.1396  0.2019  0.1098
19500W        W38354  17.701   0.763  10.742  0.0480  0.1716  0.2231
19501W        W38355  10.185  18.181   0.334 -0.0638 -0.0035  0.0837
19502W        W38356  11.546   4.459  10.936 -0.0882  0.0897 -0.0206
19503W        W38357  10.040  18.599  11.133  0.1549  0.2943  0.0593
19504W        W38358   6.469   2.823  13.913  0.5607 -0.0202  0.3675
19505W        W38359  13.238   0.263   1.756 -0.0009  0.4798 -0.1827
19506W        W38360   6.396  17.763   0.275 -0.2996  0.1633  0.0796
19507W        W38361   6.994  17.886   3.688  0.2347 -0.2512  0.0414
19508W        W38362  16.564   8.176  13.727  0.0266  0.0402  0.1641
19509W        W38363  15.898  12.036  11.957  0.0162  0.1941 -0.2768
19510W        W38364  11.760   9.006   1.291 -0.0282  0.1764  0.2216
19511W        W38365   3.113   0.678  14.166  0.2792  0.0653  0.1124
19512W        W38366  15.993  12.360  11.340  0.2958 -0.1300  0.0844
19513W        W38367  18.256   3.878   5.485  0.4628 -0.5616  0.0633
19514W        W38368   9.424  13.798  14.500  0.2239  0.2061 -0.1928
19515W        W38369   0.492   3.399   2.280  0.1306  0.1263  0.0809
19516W        W38370  10.601  12.272   1.257 -0.2163  0.1758  0.0242
19517W        W38371   5.690  13.586   0.364  0.1065 -0.2369  0.0046
19518W        W38372  13.121   5.400   5.215 -0.1848  0.0012 -0.0808
19519W        W38373   7.526  16.455  11.163 -0.0672  0.3064 -0.2524
19520W        W38374  19.143  11.896  11.913 -0.1320 -0.1685  0.4031
19521W        W38375   4.130   3.761  10.639 -0.2241 -0.1299  0.0914
19522W        W38376   9.337   5.693   1.006 -0.0272 -0.1918 -0.1859
19523W        W38377  17.876   2.826   2.959 -0.1420  0.3691 -0.0980
19524W        W38378  15.733   3.435  12.524  0.2327  0.2009  0.4051
19525W        W38379   5.612   4.399  11.207  0.1698  0.3606  0.0282
19526W        W38380  18.148   1.894   0.893 -0.0069 -0.1236 -0.1160
19527W        W38381  11.496   3.714   0.821  0.3092 -0.1210 -0.2919
19528W        W38382   3.782   6.589  14.243 -0.1294  0.3181  0.1770
19529W        W38383  14.852  10.841  13.037 -0.0011  0.0874 -0.1799
19530W        W38384   4.819   9.657  13.095  0.1109  0.2879  0.1283
19531W        W38385   5.314   2.481  11.117  0.1210 -0.1963 -0.2673
19532W        W38386   9.174   3.754  10.244  0.2605 -0.0627 -0.1988
19533W        W38387   8.515   3.529  12.681 -0.1448  0.0253  0.2535
19534W        W38388   6.962   3.146  11.971  0.1079  0.0311  0.0769
19535W        W38389   9.655   7.566   1.391  0.1678 -0.5302 -0.3548
19536W        W38390   6.325   4.835   3.623  0.0834 -0.5691 -0.3083
19537W        W38391  12.725   1.790  12.769 -0.1645 -0.0813 -0.1144
19538W        W38392   9.473  17.923  11.754  0.1784  0.0473  0.1202
19539W        W38393   9.585   6.225  11.666 -0.0495 -0.1682  0.0297
19540W        W38394   2.882  11.073  11.387  0.2042 -0.0186 -0.2086
19541W        W38395   8.964  11.834   0.886  0.1431  0.3316 -0.0838
19542W        W38396  18.271  18.578  12.117 -0.0767 -0.2052  0.1790
19543W        W38397   6.465   8.096   4.224  0.1603 -0.1008  0.1375
19544W        W38398  19.016  13.992  11.962  0.0413 -0.2479  0.2707
19545W        W38399   2.741   1.971  14.718  0.0662 -0.1380  0.0513
19546W        W38400  19.087  15.192  10.992  0.0568  0.1508  0.1594
19547W        W38401   4.383  15.711  12.530  0.0930 -0.3032 -0.1271
19548W        W38402  14.938   8.956   2.469 -0.4120  0.1083  0.0299
19549W        W38403   9.886  14.331   9.870  0.1532 -0.0823 -0.0599
19550W        W38404  18.058   0.868  12.114 -0.0883 -0.0707 -0.3109
19551W        W38405  15.478   7.143  12.975 -0.0760  0.0901  0.0210
19552W        W38406   1.191  12.078   2.878  0.1136 -0.0796 -0.1485
19553W        W38407   8.263  17.852  11.432 -0.0555  0.1203  0.0101
19554W        W38408   8.752  16.589   0.417 -0.0082 -0.0123  0.0737
19555W        W38409   8.420  18.171   4.057  0.1525  0.0223  0.3903
19556W        W38410   2.411   3.853  11.034  0.2704  0.0411  0.0425
19557W        W38411  17.204   3.527   9.521  0.2991 -0.1527  0.3325
19558W        W38412   4.052  11.222   0.317 -0.1499  0.1781  0.1214
19559W        W38413   2.007   0.998   4.328  0.1066  0.0146 -0.0371
19560W        W38414   8.780   0.851   3.197 -0.0558 -0.1856 -0.2527
19561W        W38415  17.461   4.614   0.241  0.0869 -0.5347  0.0776
19562W        W38416   5.491   8.593  14.758  0.2528 -0.1136 -0.0163
19563W        W38417   4.643   1.768   1.311 -0.0389  0.1357 -0.1635
19564W        W38418   3.787  17.864   1.540  0.0784 -0.1315 -0.0459
19565W        W38419  12.818   4.996  13.552  0.1378  0.2462  0.2924
19566W        W38420   5.492   2.490  14.187 -0.1461  0.1560  0.1460
19567W        W38421   1.177   5.030  12.726 -0.1517  0.0211  0.2118
19568W        W38422   2.244   0.152   4.246 -0.0033  0.0568  0.1653
19569W        W38423  17.591   2.939  10.854  0.3281 -0.0573 -0.1522
19570W        W38424  11.366   3.276   2.178 -0.0563  0.0559 -0.1654
19571W        W38425   5.465   8.783   2.543 -0.1080 -0.1274 -0.2761
19572W        W38426   5.154  18.221  12.998  0.2248  0.0622  0.2512
19573W        W38427  12.004  18.155   3.912 -0.1456  0.3090  0.0326
19574W        W38428  13.692  17.236  13.251 -0.0395 -0.0639  0.1540
19575W        W38429  13.239   8.997  14.037  0.3139  0.1412  0.0351
19576W        W38430   0.898  12.667   1.305  0.5002  0.1093  0.1032
19577W        W38431   4.430   2.111   0.097  0.1618 -0.3936  0.1443
19578W        W38432  11.917  12.085   1.216  0.2670  0.0707 -0.0899
19579W        W38433  12.074   4.300  12.862  0.0235  0.0182 -0.1804
19580W        W38434   1.394  16.818  13.386  0.0394 -0.1612  0.1050
19581W        W38435   7.353  16.713   2.930 -0.0484  0.1201  0.0407
19582W        W38436  16.103   2.084  10.955 -0.3375  0.0422  0.0369
19583W        W38437  13.214  14.379   9.581  0.2280  0.1128 -0.3305
19584W        W38438   4.826   1.198  11.359 -0.1668  0.0581  0.1630
19585W        W38439   4.924  10.957  11.560 -0.0657 -0.0018  0.2751
19586W        W38440   1.310  12.362   2.229 -0.4306 -0.1202 -0.0648
19587W        W38441   4.162   0.580   4.005 -0.0087 -0.2043 -0.1528
19588W        W38442   4.907   5.595  11.796 -0.2442  0.1268 -0.0427
19589W        W38443   2.338   0.557   9.354  0.4646  0.2503 -0.1388
19590W        W38444  15.866  13.312   0.474 -0.3673 -0.2600  0.1964
19591W        W38445   5.563   4.977   0.545 -0.0610  0.0607  0.1861
19592W        W38446  11.324   7.340   1.728  0.0301 -0.1034 -0.4941
19593W        W38447  11.363   3.102  13.378  0.0490  0.1223  0.0126
19594W        W38448  13.168  17.622  11.600  0.2406 -0.0452 -0.0141
19595W        W38449   4.918  18.660  13.294  0.3212  0.2655  0.1196
19596W        W38450   1.965  11.415  13.770 -0.1233 -0.2488 -0.0590
19597W        W38451   3.999   8.512  12.722  0.2437 -0.0667 -0.1073
19598W        W38452   5.936  17.121   0.718 -0.1408 -0.0090  0.1791
19599W        W38453   5.056   0.784  13.480  0.1296  0.2516  0.0927
19600W        W38454  17.361  11.230  10.649 -0.2186  0.1578 -0.2080
19601W        W38455   6.745   2.204  10.476  0.2784 -0.1604  0.1782
19602W        W38456   5.237  10.820   0.396 -0.1028  0.0637  0.2415
19603W        W38457  10.120  10.072   4.242  0.2754  0.0110  0.0068
19604W        W38458  12.813  14.814   2.448 -0.2487 -0.1385  0.1208
19605W        W38459  12.550  14.055  11.101 -0.1834  0.2066 -0.0928
19606W        W38460   9.189  12.266  13.249  0.0708  0.1175  0.0393
19607W        W38461   3.784   0.123  12.746 -0.4309 -0.3773 -0.2486
19608W        W38462   6.208  16.981  14.022  0.2359  0.0042 -0.0231
19609W        W38463   2.273   6.468   3.409 -0.1586 -0.0860 -0.1307
19610W        W38464  10.246   0.377  13.376 -0.5775 -0.0340  0.0124
19611W        W38465  10.986  17.163   1.390  0.1562 -0.1170  0.0481
19612W        W38466   9.927   7.433   1.756  0.2706  0.0331  0.0196
19613W        W38467  15.689  18.486  10.403  0.2057  0.1213  0.0559
19614W        W38468  10.684   0.974  13.835  0.0810  0.1573 -0.2994
19615W        W38469   4.104   5.194  11.307 -0.0202  0.2168 -0.1312
19616W        W38470   1.128  11.210   3.422 -0.0290 -0.1009  0.2183
19617W        W38471   3.260   6.365  11.382 -0.1643  0.0668  0.1271
19618W        W38472  17.242   7.800   4.568 -0.0672  0.3852  0.0652
19619W        W38473   1.875  12.195  11.106 -0.0663  0.3364  0.1042
19620W        W38474   2.078  10.677   4.178 -0.4100  0.2590  0.2257
19621W        W38475  13.106   7.241   1.481 -0.0018 -0.0627  0.2277
19622W        W38476   9.679   3.690  11.747 -0.3261 -0.2468 -0.0645
19623W        W38477   6.177  15.137  13.578 -0.0112 -0.0303 -0.0048
19624W        W38478   1.824   4.247   1.348 -0.1201  0.0023 -0.0154
19625W        W38479  16.004   0.998  11.858  0.1812 -0.3403 -0.0292
19626W        W38480  17.455  13.990   0.225 -0.0814 -0.0815 -0.1164
19627W        W38481   1.612  12.398  14.250 -0.4092 -0.0406  0.2367
19628W        W38482  18.255  15.871  12.760 -0.0773 -0.1283 -0.1009
19629W        W38483   4.798  16.684   1.474 -0.0168 -0.0780  0.1442
19630W        W38484   9.443   3.250  11.777  0.1498  0.3416 -0.3741
19631W        W38485  16.113  17.990  12.353  0.2313  0.2632  0.0922
19632W        W38486   5.593   3.498  10.734 -0.0338 -0.0048 -0.0585
19633W        W38487  16.112   4.718  13.170 -0.1824  0.2116  0.1830
19634W        W38488   5.990   8.835   0.624 -0.0887 -0.0272  0.0792
19635W        W38489   8.121  17.223   3.195 -0.0553  0.0114  0.3159
19636W        W38490  12.337   6.074   1.941  0.1016  0.3097 -0.3696
19637W        W38491  11.398   4.622  12.531 -0.0099 -0.0665  0.2227
19638W        W38492   0.755   4.089  12.681 -0.0121  0.0928 -0.1227
19639W        W38493  11.870  13.988  11.572 -0.1494  0.2493 -0.0181
19640W        W38494  14.608  16.265   0.405  0.1189 -0.1511 -0.4128
19641W        W38495  16.653   6.165  11.496  0.0846  0.2830  0.1590
19642W        W38496  12.243  18.590   2.820  0.2412  0.1384  0.2916
19643W        W38497   0.962   3.990  13.541  0.1297  0.1709 -0.3584
19644W        W38498   7.786   5.324  14.169  0.1927 -0.3629 -0.1065
19645W        W38499   7.216  16.879  11.209  0.1964 -0.2137 -0.0234
19646W        W38500  15.245   3.544   0.548  0.0938 -0.2534  0.1964
19647W        W38501   5.323   0.756   0.383  0.0421 -0.3613 -0.0258
19648W        W38502   5.451   4.389  13.957 -0.0473 -0.1888  0.0494
19649W        W38503   5.339  15.592  12.510 -0.0480 -0.0011 -0.0354
19650W        W38504   0.757  16.156   0.340  0.2000 -0.0336 -0.0340
19651W        W38505  11.530  12.828  13.481 -0.0409  0.0159 -0.0156
19652W        W38506   1.612   3.652  13.108 -0.1932  0.0807  0.0512
19653W        W38507  14.455   7.508  11.117  0.0080 -0.0693  0.0827
19654W        W38508   8.037  17.261   0.461 -0.0897  0.2768  0.3268
19655W        W38509  10.922  13.372  12.907 -0.1635 -0.2008  0.2358
19656W        W38510  13.673   0.893   3.118 -0.0122 -0.0542 -0.2379
19657W        W38511  13.747  15.899   2.108  0.2897 -0.0779 -0.0708
19658W        W38512   0.524   5.317   2.209  0.0479 -0.0040  0.0726
19659W        W38513  11.153   6.411  12.874  0.0518 -0.1107 -0.0196
19660W        W38514  13.101   4.261   1.553  0.0210  0.0569  0.1564
19661W        W38515  15.577   8.312   1.838  0.1465 -0.3212 -0.0507
19662W        W38516  12.482  18.326  12.230  0.1911  0.0486 -0.2415
19663W        W38517   0.396  10.061   4.492 -0.3362  0.1412 -0.0648
19664W        W38518   9.230  14.284  11.281 -0.0309 -0.0753  0.0010
19665W        W38519  14.222   1.191  13.411  0.5196  0.0659 -0.1073
19666W        W38520  17.411  14.666  12.353 -0.2864 -0.1486 -0.1842
19667W        W38521  15.046   9.310  12.544  0.1544  0.1176  0.2201
19668W        W38522   3.305   4.008  10.804 -0.0610  0.0413  0.0746
19669W        W38523   0.082  10.542  13.992  0.3506  0.1974  0.0246
19670W        W38524   5.813   7.519   2.277  0.0053  0.1998 -0.0246
19671W        W38525   3.619   8.306   0.205  0.3157  0.1476 -0.2275
19672W        W38526   8.121  18.041   4.470  0.1730  0.0782  0.0745
19673W        W38527   2.148   9.429   4.938 -0.0685 -0.1692 -0.1170
19674W        W38528  18.729   3.186   0.855  0.4354 -0.1492  0.1261
19675W        W38529  13.905  13.288   1.410  0.0496 -0.1460 -0.1273
19676W        W38530   6.200  13.384  14.571 -0.2362 -0.0332  0.0343
19677W        W38531  19.133   7.267   2.598 -0.0325 -0.2654  0.2416
19678W        W38532   5.540  12.868   2.763  0.2313  0.4070 -0.2140
19679W        W38533   0.836   7.748   3.114 -0.2053 -0.0963 -0.0706
19680W        W38534  18.086   5.882  11.428 -0.1367 -0.1036 -0.1542
19681W        W38535   5.515   6.381  10.130  0.0196  0.0019 -0.2623
19682W        W38536  17.968  12.559  12.939  0.1501 -0.0753  0.0281
19683W        W38537  16.278  10.982  11.848 -0.3707  0.0210  0.1186
19684W        W38538  16.408  14.453   4.515  0.0230 -0.1223 -0.0554
19685W        W38539   7.474  18.883  12.053  0.2831 -0.1211  0.0506
19686W        W38540  17.562   2.920   4.160 -0.0487  0.2531  0.0521
19687W        W38541  19.108   6.777   2.505 -0.1202  0.3116  0.0971
19688W        W38542   0.489   5.020  11.468 -0.2522 -0.0373 -0.1318
19689W        W38543  11.788   0.192  13.232 -0.2605  0.1087  0.0956
19690W        W38544  17.989   2.318   1.726  0.0814 -0.1444  0.1180
19691W        W38545  14.359  11.254  13.529 -0.1084 -0.0393  0.0391
19692W        W38546   9.078   6.038   2.164  0.2004 -0.0061  0.5840
19693W        W38547   2.135   1.288  11.599 -0.1004  0.3234 -0.1536
19694W        W38548  14.551   6.562  14.588  0.1417 -0.0634  0.2417
19695W        W38549  12.121   9.182   1.694  0.1606  0.0353  0.0909
19696W        W38550   3.377  18.984  14.223 -0.0269 -0.0046 -0.2986
19697W        W38551   9.361  13.392  12.573 -0.3441  0.1569  0.0205
19698W        W38552  13.135   9.589   2.394 -0.2577  0.3125 -0.0602
19699W        W38553  15.065   5.259   3.668 -0.3009  0.0125  0.1178
19700W        W38554  18.410  10.972   3.365  0.0348  0.1801  0.2179
19701W        W38555   8.008   3.886   3.330 -0.1058 -0.2075 -0.0204
19702W        W38556   7.508   5.828  10.495  0.0767 -0.1002  0.1621
19703W        W38557  17.983   0.835   2.831 -0.3701  0.2616  0.1441
19704W        W38558   4.852  17.114   1.281 -0.0758  0.1830  0.0188
19705W        W38559   8.153  13.086   3.810 -0.1967 -0.0243  0.0088
19706W        W38560   0.818   8.901   4.331  0.4473  0.0469  0.3678
19707W        W38561   6.682   6.192   3.050 -0.1131  0.0252  0.0420
19708W        W38562  10.364  10.854  11.347  0.0520 -0.0126  0.0276
19709W        W38563  16.986   8.050  11.304 -0.0162  0.0538  0.2581
19710W        W38564  18.890   5.879  11.185  0.1108 -0.0433 -0.1933
19711W        W38565  12.516   7.282   2.966 -0.0837 -0.0839 -0.1159
19712W        W38566   8.923  11.494   2.044 -0.0966  0.0001 -0.0233
19713W        W38567  16.432   9.839   3.017 -0.0927  0.0315 -0.1859
19714W        W38568  11.006   8.404   4.036  0.0152 -0.1245 -0.1433
19715W        W38569   8.571   9.778  13.769  0.3041  0.0873 -0.0327
19716W        W38570  10.687   0.978   0.388 -0.1981  0.0838 -0.1043
19717W        W38571   5.358  18.024  10.718  0.1314 -0.1089  0.0262
19718W        W38572   6.859  12.413  12.049  0.3024 -0.3344  0.1126
19719W        W38573  18.990  11.306   3.743 -0.3305 -0.0541 -0.3675
19720W        W38574  14.892  17.738   2.228 -0.1395  0.1217 -0.0481
19721W        W38575   1.286  13.516   2.775  0.0999  0.1314  0.1363
19722W        W38576   6.841  13.595  13.020 -0.0279  0.0180  0.2956
19723W        W38577  10.467   4.147  14.720  0.2202 -0.3637  0.1472
19724W        W38578  17.645  12.042   2.855  0.2840  0.2268 -0.0415
19725W        W38579   6.456  17.881   3.560 -0.1950  0.0232  0.2411
19726W        W38580  11.783   0.159  10.966 -0.0669 -0.0408 -0.0976
19727W        W38581  17.136  13.522   1.217  0.0500 -0.3433 -0.0202
19728W        W38582   6.353   9.478  11.387  0.0561 -0.0219 -0.3588
19729W        W38583   6.637  13.143  13.265 -0.0135 -0.0622 -0.5777
19730W        W38584  11.934  12.032  13.922 -0.3021  0.0666  0.1766
19731W        W38585  14.508  17.784  13.197  0.0460  0.0551 -0.0365
19732W        W38586   8.994  13.987  13.675  0.1900 -0.0163 -0.1891
19733W        W38587   4.990  12.753  13.788 -0.0165 -0.2406  0.0290
19734W        W38588   7.649   4.676   0.047 -0.1681 -0.1554  0.1123
19735W        W38589   5.232   0.745   9.557 -0.2774  0.4421 -0.1986
19736W        W38590   6.921  15.659  14.503 -0.0738 -0.2575 -0.0606
19737W        W38591  18.391   1.170  12.812 -0.1691  0.1592 -0.0420
19738W        W38592  13.720  10.092   4.613  0.2083  0.1656 -0.0179
19739W        W38593   3.845   4.479   2.852  0.0647 -0.0154  0.0053
19740W        W38594   3.986  19.152   0.106  0.0154 -0.1453  0.1798
19741W        W38595   4.874  16.954  12.171  0.0419 -0.1198  0.1626
19742W        W38596   7.417   7.300  10.847 -0.1817 -0.0978  0.4352
19743W        W38597   3.309  17.177  11.413  0.2115 -0.3133 -0.0825
19744W        W38598  14.823   2.984  10.863  0.2479  0.0933 -0.0499
19745W        W38599  17.315   1.076  13.599  0.2867  0.0009 -0.2812
19746W        W38600  16.133  18.883   1.058  0.0288  0.1007 -0.0443
19747W        W38601   0.523   9.924   3.715 -0.0475 -0.3858  0.0071
19748W        W38602   6.517  11.193   1.000 -0.1359 -0.3434  0.1491
19749W        W38603  16.132   5.674   0.290  0.1182  0.0622  0.1162
19750W        W38604   3.840   1.420   1.197 -0.0767 -0.0880 -0.0993
19751W        W38605   4.703  12.275  14.667 -0.0938 -0.4420 -0.0537
19752W        W38606   7.414   3.518   2.493 -0.0869 -0.0957 -0.2974
19753W        W38607   5.006  10.474   4.364  0.0274 -0.1876  0.1570
19754W        W38608  10.823  12.947  14.053  0.2181  0.0022  0.0568
19755W        W38609  13.386  14.604   1.037  0.3950 -0.1609  0.4128
19756W        W38610   3.704   7.912  14.079  0.3769 -0.0454 -0.2337
19757W        W38611  11.140  10.607  12.583  0.2237 -0.1184 -0.1331
19758W        W38612  17.428  11.864   3.254 -0.4055  0.0828 -0.0272
19759W        W38613   9.379  14.511  14.386  0.0793  0.2142 -0.0004
19760W        W38614  16.172   7.453  13.116 -0.2143 -0.0886 -0.0494
19761W        W38615  14.276   8.578   1.655  0.0673 -0.1509  0.0161
19762W        W38616   0.866   3.496  12.146 -0.1634 -0.3264  0.1269
19763W        W38617   8.528   0.854  10.887 -0.0449  0.0169  0.2330
19764W        W38618  13.258   5.645  13.546 -0.0134 -0.4925  0.0975
19765W        W38619   3.704   2.947   2.245  0.0006 -0.0134 -0.0012
19766W        W38620  18.697  13.812  12.444  0.1619 -0.1748 -0.0626
19767W        W38621   2.387   8.363   0.948  0.0755  0.0328 -0.2423
19768W        W38622   5.302   4.100   0.492 -0.2962  0.1477  0.0442
19769W        W38623  14.897   5.443  10.789  0.1008 -0.1871 -0.1415
19770W        W38624  11.367   6.196   1.900  0.0091  0.1386  0.0818
19771W        W38625  14.241   5.624  13.796 -0.1044  0.1395 -0.1684
19772W        W38626  13.398  10.446   5.660  0.1501  0.0645 -0.1123
19773W        W38627  17.138  12.199   3.533  0.0557  0.0224 -0.0884
19774W        W38628   3.764  16.833   4.332  0.0152 -0.1825 -0.0635
19775W        W38629  18.669   9.080   2.933  0.2142 -0.0953  0.4137
19776W        W38630  16.443  10.419   1.087 -0.1426 -0.0224  0.0679
19777W        W38631  18.941   1.236   0.269 -0.0835  0.3777 -0.0152
19778W        W38632  16.113   3.446  12.886  0.1611 -0.0182  0.2373
19779W        W38633   8.008   1.468  13.869  0.1777 -0.2560 -0.0854
19780W        W38634   4.437   0.729   0.865 -0.0527  0.1489  0.0498
19781W        W38635  12.838   6.681  13.125  0.1325  0.1739 -0.0275
19782W        W38636  18.094  10.666  12.021  0.1451 -0.1488  0.0933
19783W        W38637  13.607  12.007  12.411  0.1564  0.1103 -0.2817
19784W        W38638  12.863  13.201  14.255 -0.1352 -0.1244 -0.0387
19785W        W38639   6.288  11.272   2.558  0.0971  0.2173 -0.2066
19786W        W38640   5.246  13.750  12.094  0.1228 -0.2589 -0.0952
19787W        W38641   7.683   2.894  11.283 -0.0320  0.0088 -0.0679
19788W        W38642  10.294  10.243   3.376  0.2183 -0.3216  0.0046
19789W        W38643   7.506  18.151   3.779 -0.1013  0.4900 -0.0351
19790W        W38644  15.595   8.849   1.185  0.1236 -0.0987  0.0307
19791W        W38645   1.547   6.945   2.106  0.2351  0.1275 -0.0549
19792W        W38646  14.283   0.286   0.910 -0.2669  0.3541 -0.2722
19793W        W38647   7.070  15.335  13.506 -0.0474 -0.0596 -0.0897
19794W        W38648   4.766   1.853  13.685 -0.0358  0.0447  0.0087
19795W        W38649   8.460   1.562  13.111 -0.2259  0.0096 -0.0496
19796W        W38650  15.768  14.350  14.108 -0.4486 -0.0434  0.1240
19797W        W38651   9.996  17.022  13.937  0.3023  0.2380  0.2923
19798W        W38652   9.868   4.097  13.648 -0.3070 -0.0274 -0.1637
19799W        W38653   0.141   6.597   4.838 -0.2458 -0.0912 -0.0186
19800W        W38654  15.965  12.164  14.421  0.1501  0.0923  0.0689
19801W        W38655  16.577  16.036   2.607 -0.0172  0.5751  0.2140
19802W        W38656  12.525  15.900  14.370  0.1425  0.0104  0.1524
19803W        W38657   9.063   1.551   0.874  0.2691 -0.1944 -0.2593
19804W        W38658  13.770   0.269  12.380  0.4701 -0.2172  0.0333
19805W        W38659   3.962  10.379   4.524  0.0833  0.1095 -0.1114
19806W        W38660   1.041  11.352  13.924  0.1701 -0.1628 -0.2862
19807W        W38661   7.712   6.804  11.845 -0.1112  0.0023 -0.0401
19808W        W38662  16.361  13.870   2.098  0.0665  0.2313 -0.3490
19809W        W38663   0.082   8.467   0.010 -0.0936 -0.1890 -0.2402
19810W        W38664   9.622   5.984   1.277 -0.2266 -0.0329 -0.1785
19811W        W38665  18.797   2.953   3.535  0.1427  0.0772  0.2312
19812W        W38666   7.339   2.954   0.016 -0.0649  0.4219 -0.0298
19813W        W38667  16.350  14.252   2.385  0.1026 -0.0499 -0.1822
19814W        W38668   5.902  14.545  11.033  0.0323 -0.2160  0.2441
19815W        W38669   0.038   3.986   2.422  0.3743 -0.1814 -0.1182
19816W        W38670  18.500   2.283   1.437  0.1080 -0.0213 -0.0278
19817W        W38671  11.093  11.490   0.777 -0.0523  0.0556 -0.0131
19818W        W38672   8.247   9.009  10.964 -0.0693 -0.1079 -0.4165
19819W        W38673  17.886   0.633   0.465 -0.0694  0.2459 -0.4143
19820W        W38674  14.880   6.877   0.002 -0.1982 -0.0622  0.2618
19821W        W38675   2.726   9.622  12.816 -0.0351 -0.0892 -0.0464
19822W        W38676   5.949   8.137   3.518 -0.1175  0.1822 -0.1197
19823W        W38677   7.121  11.251   1.038 -0.0863 -0.2077  0.0130
19824W        W38678   7.432   2.220  13.141  0.2553  0.1144  0.2845
19825W        W38679   3.906  14.593   1.954 -0.1482 -0.0963 -0.2756
19826W        W38680   1.047  15.419   3.253  0.0964  0.0050  0.1719
19827W        W38681  13.667  12.858   2.718 -0.2080  0.2413 -0.0404
19828W        W38682   4.705  13.707   2.624  0.0275 -0.2218  0.0469
19829W        W38683   9.697   3.721   2.923  0.0284  0.1811 -0.1934
19830W        W38684   6.517   0.304  12.560  0.0506  0.0627  0.0927
19831W        W38685  15.939  11.546  11.889 -0.0379  0.4677  0.0695
19832W        W38686   6.534   8.361   2.624  0.3618 -0.1530 -0.1088
19833W        W38687  12.220  16.819  10.922  0.0182 -0.2573 -0.1165
19834W        W38688  18.201   7.434   5.554  0.3394  0.2825  0.2334
19835W        W38689  10.708   3.828   0.217  0.1252  0.2563 -0.1960
19836W        W38690   1.971   6.094  11.937  0.2283  0.1657 -0.0521
19837W        W38691  16.441  12.152   2.899 -0.1270  0.1720 -0.2113
19838W        W38692   0.689  10.678   0.410 -0.0711 -0.0379 -0.0260
19839W        W38693  15.776   1.140  10.089 -0.2643  0.0001 -0.0849
19840W        W38694  11.519   3.440  12.901 -0.2516  0.0911  0.0945
19841W        W38695  16.369  11.352   2.620 -0.0320 -0.1151  0.5556
19842W        W38696  13.069   8.901   2.092  0.4185  0.1780 -0.0188
19843W        W38697   8.766  11.733   0.312  0.2206 -0.0581  0.0818
19844W        W38698   9.631  12.924  12.710  0.0342 -0.0428 -0.3118
19845W        W38699  15.288  14.277   1.084 -0.0276 -0.1152  0.0486
19846W        W38700  17.171  17.523  14.215 -0.0816  0.4790 -0.0307
19847W        W38701   0.072   8.951  11.760 -0.3238 -0.0231  0.0576
19848W        W38702   5.285   9.534   2.120  0.1833 -0.1357  0.0393
19849W        W38703  11.586   3.848  14.702  0.3569 -0.1709  0.0894
19850W        W38704  14.598   1.598   2.255  0.0786 -0.1292 -0.1052
19851W        W38705   9.575  16.408   2.832  0.2045 -0.0186 -0.1790
19852W        W38706   1.358  17.145  11.167 -0.2277  0.0841  0.1585
19853W        W38707   3.622   2.470  11.915 -0.0373  0.2076  0.0953
19854W        W38708   0.955  15.724  12.153 -0.3173 -0.1258  0.0937
19855W        W38709   2.382   9.425  10.923  0.0276  0.2113 -0.0258
19856W        W38710  15.872   4.004  13.248 -0.2748  0.0225  0.1462
19857W        W38711  11.654   4.974  14.260  0.3669  0.0828  0.2451
19858W        W38712   5.887  13.134   0.338 -0.2115 -0.4267  0.1896
19859W        W38713   5.051   4.693   9.913  0.1027  0.0053 -0.0711
19860W        W38714  10.171  10.467   2.773  0.2392  0.3364  0.1367
19861W        W38715  17.174  12.089  13.578  0.1763  0.0703  0.3223
19862W        W38716  12.693   0.140  14.245 -0.2719  0.4347  0.2863
19863W        W38717   2.059  12.923  12.908  0.1174 -0.0272 -0.3360
19864W        W38718  15.300  13.783  11.734  0.3840 -0.1206  0.3592
19865W        W38719  16.456   4.048   3.337 -0.0272  0.3143 -0.0918
19866W        W38720  18.350  17.620  11.398 -0.1558 -0.0688 -0.0439
19867W        W38721  17.567   3.680   2.764 -0.2171 -0.3795 -0.0347
19868W        W38722  18.643   6.949  11.793 -0.0386  0.0001 -0.0579
19869W        W38723  11.549   5.811  12.898  0.1229  0.0373  0.1485
19870W        W38724   7.855  15.562   3.979  0.4688 -0.1216  0.0780
19871W        W38725   1.305  18.942   2.314 -0.0583 -0.0633 -0.2569
19872W        W38726   3.492   2.692  11.181  0.3540 -0.0244  0.1601
19873W        W38727   1.850   5.301  13.480 -0.1723  0.4539  0.3280
19874W        W38728   1.149   5.176   3.769  0.1897 -0.0678  0.0810
19875W        W38729   4.352   7.752  13.533 -0.0955  0.0020 -0.1892
19876W        W38730   8.791   5.865  11.794 -0.2342  0.2986 -0.0041
19877W        W38731   4.650  10.174  11.808 -0.1827 -0.0668 -0.0794
19878W        W38732   8.779  19.132   2.855  0.1165  0.0156 -0.0782
19879W        W38733  11.618   2.207   0.643 -0.0205 -0.3054 -0.1618
19880W        W38734  12.121   0.586  10.998 -0.0801 -0.0075 -0.1979
19881W        W38735  11.032  13.557  14.751  0.1077  0.2755  0.0022
19882W        W38736   8.594   2.709  10.943 -0.1381  0.1854  0.1247
19883W        W38737  14.855  17.519  10.835  0.1974  0.0397  0.1288
19884W        W38738   7.164   4.216   3.668 -0.0842  0.0123 -0.1015
19885W        W38739   4.422  14.614  10.552 -0.0350  0.0280  0.1137
19886W        W38740  12.898   0.710   1.491 -0.1280  0.0047 -0.0524
19887W        W38741  14.339   5.970   2.044 -0.0891 -0.1324  0.0935
19888W        W38742   0.678   6.141   0.770  0.4291  0.1685  0.2561
19889W        W38743   6.307   2.342  14.620  0.1538 -0.0745 -0.0020
19890W        W38744   3.603   4.684  13.962  0.1166 -0.0657  0.4839
19891W        W38745  13.289   7.282  11.469  0.1081 -0.2553 -0.1104
19892W        W38746  10.686  10.590  11.580 -0.0913  0.0992  0.2507
19893W        W38747   2.906  16.146  13.579  0.1865 -0.1828 -0.3403
19894W        W38748  11.419   4.206   0.917  0.0824 -0.1614  0.0251
19895W        W38749  11.078  11.176  13.133 -0.1565 -0.0071 -0.3763
19896W        W38750   4.656   2.164  12.573  0.0948 -0.0473 -0.0439
19897W        W38751   0.302  11.048   1.303 -0.2933  0.0856 -0.0552
19898W        W38752   6.250  13.573   1.300 -0.0231  0.0225 -0.0980
19899W        W38753   7.284   9.381  12.133 -0.1009 -0.3427  0.1610
19900W        W38754  10.715  11.958   0.888 -0.3220 -0.0967 -0.1349
19901W        W38755  13.408   1.057  13.402 -0.3256  0.1482 -0.0484
19902W        W38756   3.522   3.744   0.068  0.1335  0.2776 -0.0865
19903W        W38757   2.529   6.351  12.140  0.0516  0.1898 -0.2350
19904W        W38758  10.615   0.717   3.194 -0.1930 -0.1571 -0.0327
19905W        W38759  10.919   2.595   1.956  0.1370 -0.1121 -0.0632
19906W        W38760   6.122   7.992   0.298 -0.2465  0.3002 -0.2689
19907W        W38761  14.477  14.794   1.410  0.2344  0.1182  0.0656
19908W        W38762  14.974   4.134   3.652  0.0947 -0.0367  0.2955
19909W        W38763   8.790  17.717  14.170  0.4228 -0.0569  0.4094
19910W        W38764   2.459   2.064  13.134 -0.1468 -0.0116 -0.0775
19911W        W38765   3.603   3.378   2.503  0.0683  0.0395  0.0411
19912W        W38766   3.245  13.597  14.732 -0.1356  0.3605  0.0366
19913W        W38767  13.578   2.056  11.249  0.0568 -0.2769 -0.0145
19914W        W38768  17.804  12.840   3.266  0.1667 -0.0678 -0.3439
19915W        W38769   7.007  13.949  10.925  0.1373  0.0382  0.0269
19916W        W38770  12.676  17.853   0.731 -0.4490 -0.2428  0.2069
19917W        W38771  13.694  13.497   1.821  0.1843  0.0897 -0.1588
19918W        W38772  13.768   2.649   5.148 -0.1933 -0.0334  0.0979
19919W        W38773   9.662   9.011   1.649 -0.1601  0.4123  0.0933
19920W        W38774   3.564  15.831   1.402 -0.1444 -0.2938 -0.2142
19921W        W38775   2.748   2.862  12.605 -0.4576 -0.1096 -0.0113
19922W        W38776   8.328  17.971  13.061  0.1256 -0.0811 -0.1415
19923W        W38777   0.191  17.359  11.069 -0.2516  0.2127  0.2432
19924W        W38778   5.723   8.578   3.218 -0.2104 -0.0987  0.2526
19925W        W38779  15.542  15.506   0.588 -0.2130 -0.1876 -0.1769
19926W        W38780   5.848  15.704   0.761 -0.1014  0.1213  0.2971
19927W        W38781  13.313   7.885   0.928  0.1052  0.0104  0.1370
19928W        W38782  17.625  18.954   0.708 -0.0965  0.1737  0.1324
19929W        W38783   6.545  10.561   2.042 -0.2048 -0.3587  0.0748
19930W        W38784  16.255  18.810  12.533  0.1941  0.2307 -0.1250
19931W        W38785   5.209   4.673  13.537  0.1752 -0.2947 -0.0280
19932W        W38786   7.307   9.700  12.547 -0.0986 -0.2288 -0.1949
19933W        W38787   6.034   6.886  14.742  0.0454  0.2448  0.4544
19934W        W38788  18.297  12.812  13.643 -0.0478 -0.1285 -0.2858
19935W        W38789   4.800  12.246   4.313  0.1396  0.1149  0.1785
19936W        W38790  17.593  14.758   4.276 -0.1180 -0.0073 -0.3290
19937W        W38791  15.138   6.549   1.119  0.0974 -0.0563 -0.0087
19938W        W38792   0.004  12.802   2.019 -0.0603  0.0570 -0.5327
19939W        W38793   7.131  12.442   2.442  0.1953  0.3946 -0.3097
19940W        W38794   0.765  11.063   2.157  0.0660 -0.0749  0.1536
19941W        W38795  10.602   2.531   2.399 -0.1032  0.0088 -0.1966
19942W        W38796   0.096  17.778   1.327 -0.2653  0.0389 -0.1737
19943W        W38797   3.172   2.788   2.789 -0.0185  0.1059  0.0556
19944W        W38798   5.804  13.489  11.526  0.0923  0.3559 -0.0285
19945W        W38799   3.390   9.259  13.466 -0.1665  0.2070  0.1463
19946W        W38800   7.001   9.159  12.509 -0.2707 -0.3902 -0.3557
19947W        W38801   8.507  18.132  11.096  0.2503 -0.1820  0.2231
19948W        W38802   0.938  14.253   3.872 -0.0028  0.0408  0.0372
19949W        W38803  14.123  18.753  10.455 -0.0705  0.3109 -0.1787
19950W        W38804  19.111  14.812  13.802  0.0169 -0.2264  0.0289
19951W        W38805  18.738   1.459  11.962 -0.2917 -0.1127  0.1220
19952W        W38806  15.264   6.166   9.549 -0.0073  0.0489 -0.1860
19953W        W38807   3.473   4.263   0.107  0.2788  0.2681  0.0885
19954W        W38808   9.448   5.801  10.907  0.2527 -0.1098  0.0402
19955W        W38809  17.900  15.657  13.207  0.0598  0.0669 -0.0651
19956W        W38810  13.208  14.162  13.205 -0.2924  0.0177 -0.1182
19957W        W38811  13.274   5.865  13.984 -0.2975  0.0282  0.0555
19958W        W38812  17.722  16.215   2.707  0.1594 -0.2608 -0.1064
19959W        W38813   3.982  12.006  13.049  0.1266 -0.0379  0.0621
19960W        W38814   4.651  12.884   1.525  0.1707  0.3583  0.2834
19961W        W38815   6.382  12.187  11.708 -0.1611 -0.0999 -0.2111
19962W        W38816  16.141   0.584  14.671 -0.1750  0.1453  0.2408
19963W        W38817   5.671  12.214   3.848  0.3133 -0.2904 -0.1252
19964W        W38818   3.107  12.845   0.518  0.3938  0.2477 -0.1247
19965W        W38819  10.360  17.581  13.228  0.1892  0.0703 -0.1611
19966W        W38820  15.650   1.589   1.057  0.0325 -0.1196 -0.1212
19967W        W38821  15.208  15.614   4.061  0.1949  0.3239  0.0220
19968W        W38822  14.165   3.332  13.919  0.1516  0.1725 -0.2633
19969W        W38823  16.659   0.459  12.499 -0.2731 -0.3287  0.0369
19970W        W38824   4.506  14.382   2.701 -0.1897 -0.0356 -0.1340
19971W        W38825  11.580   2.052  13.641 -0.1340 -0.1634  0.2388
19972W        W38826   8.706  18.205  12.805 -0.1762  0.0457  0.1275
19973W        W38827   0.490  16.029  11.705 -0.2338  0.1973 -0.3321
19974W        W38828  13.701   2.010   2.968  0.0005 -0.1329 -0.0807
19975W        W38829   2.325   7.713  13.368 -0.1987  0.0791 -0.3157
19976W        W38830  14.816  18.871  11.709  0.2908  0.1510 -0.2396
19977W        W38831  18.104  14.723  11.003 -0.1210  0.0719  0.1729
19978W        W38832   1.763   1.586   1.481 -0.0536 -0.3149 -0.3145
19979W        W38833  15.599  13.452   2.324  0.3595 -0.2154  0.1560
19980W        W38834   6.785  16.457   1.587  0.0301  0.2234 -0.1770
19981W        W38835  13.205   7.408   3.405  0.0094 -0.0506  0.0132
19982W        W38836   7.806   0.255   1.825 -0.0209  0.1844  0.1406
19983W        W38837  13.815  10.848   1.500 -0.0259 -0.2488  0.0506
19984W        W38838   4.041  11.010  11.516 -0.2172  0.0985 -0.0001
19985W        W38839   8.406  15.784  12.243 -0.0440 -0.0989  0.0909
19986W        W38840  16.945  13.353   0.770 -0.1951  0.0622  0.0507
19987W        W38841  15.216   1.566   3.876  0.4894 -0.1864  0.0273
19988W        W38842   4.138  13.509   3.218  0.3618  0.0875 -0.1321
19989W        W38843  16.862  13.707  12.479  0.2079  0.0020  0.3775
19990W        W38844  11.133  10.954  14.550  0.0900  0.2913 -0.1091
19991W        W38845   8.524   0.524  14.285 -0.1136 -0.1462  0.3109
19992W        W38846   5.509  14.053  14.376 -0.1500  0.2390  0.1681
19993W        W38847  11.160   0.099  13.854  0.5012 -0.0668  0.1155
19994W        W38848   3.743  11.911  12.543 -0.2320 -0.1087  0.0319
19995W        W38849   6.220   7.903  10.845  0.1401 -0.0962 -0.1529
19996W        W38850  17.972  10.611   3.359  0.0871  0.0435 -0.2840
19997W        W38851  16.655   3.050  13.404 -0.0839  0.3575  0.0937
19998W        W38852   2.657  12.519   0.711  0.3620 -0.0956 -0.0873
19999W        W38853   2.851  18.754  12.658 -0.0356 -0.0402  0.0476
20000W        W38854   9.238  13.056   0.971 -0.1119 -0.0663 -0.1014
20001W        W38855   5.790  12.983   1.707 -0.1249  0.0363  0.1788
20002W        W38856   3.907  17.754   0.641 -0.2553  0.1209  0.1070
20003W        W38857   9.188  16.126   3.069  0.0788 -0.0776 -0.1306
20004W        W38858  19.100  13.351  13.598 -0.1790 -0.1975 -0.1416
20005W        W38859   5.002  10.867   2.638 -0.0830  0.1302 -0.2167
20006W        W38860   6.237   3.075   3.971  0.0450 -0.1228  0.2756
20007W        W38861   1.515  11.367  12.644  0.0427 -0.0956 -0.0627
20008W        W38862   7.554  15.016   3.964  0.0274 -0.1662  0.2356
20009W        W38863   3.958  11.975  13.905 -0.0531  0.0985  0.2074
20010W        W38864  13.816  17.289  14.070 -0.1482  0.1294  0.0039
20011W        W38865   9.947   9.172  12.286  0.2371 -0.0704  0.1180
20012W        W38866  19.063  18.034   1.705 -0.0824  0.1572  0.0454
20013W        W38867  10.461   2.754  10.774  0.0788  0.4944  0.0128
20014W        W38868  14.335   6.136  13.788  0.1129  0.1168  0.0963
20015W        W38869  13.094   0.258   3.945 -0.3189 -0.0159 -0.0931
20016W        W38870   6.060  11.918   3.737  0.1073 -0.1316  0.0969
20017W        W38871  15.298  17.156  10.586 -0.0723  0.4138 -0.0406
20018W        W38872   6.629   8.292  11.657  0.2595 -0.1392  0.2168
20019W        W38873   9.158  10.039   9.885 -0.2558  0.0478  0.0768
20020W        W38874  11.747   6.795  14.330 -0.1328 -0.2095 -0.0861
20021W        W38875   2.006   9.288   2.572 -0.0861  0.0245 -0.0376
20022W        W38876  18.399   2.566   1.977  0.0783  0.2276  0.0698
20023W        W38877   5.858   1.617  14.613  0.2114 -0.3886  0.1306
20024W        W38878  16.753   2.198  12.938 -0.2376 -0.3073 -0.2637
20025W        W38879   0.587   1.758   0.073 -0.0037 -0.5841 -0.0383
20026W        W38880   6.261  17.224  13.635  0.1448 -0.1499  0.0274
20027W        W38881   0.962   1.134   0.058  0.2049 -0.1153  0.1479
20028W        W38882   5.044  17.088   0.418 -0.0761  0.2366  0.1802
20029W        W38883   0.019  17.937   2.236  0.0030  0.2889 -0.5437
20030W        W38884  18.699  12.590  14.568 -0.1998 -0.0920  0.0612
20031W        W38885  16.946   6.749   4.187 -0.0952 -0.4791 -0.1038
20032W        W38886   1.169   5.024   5.259  0.1223 -0.1184 -0.0905
20033W        W38887   9.593   4.455  12.330 -0.3646 -0.0996  0.1919
20034W        W38888   5.850   5.723  13.437 -0.3118  0.1103  0.0216
20035W        W38889   7.196  13.366   3.612  0.4726  0.0817  0.2562
20036W        W38890  19.035  18.279   3.858 -0.2350 -0.1895  0.2025
20037W        W38891  13.900  15.799  11.351 -0.1233  0.0088 -0.0653
20038W        W38892   1.077  18.020   3.614 -0.1633 -0.0054  0.4261
20039W        W38893   4.920   5.380   2.215 -0.1389  0.0434  0.0621
20040W        W38894  14.929   5.457   2.385 -0.3627  0.0164 -0.1801
20041W        W38895  11.851  11.630  13.609 -0.1846  0.1203 -0.1232
20042W        W38896   2.134  17.668  14.112  0.1735 -0.0698  0.0339
20043W        W38897  18.870  11.136   1.367 -0.3021 -0.2150  0.2179
20044W        W38898  15.284  10.788   3.888  0.1723 -0.1917  0.2606
20045W        W38899  14.209   5.765   1.577  0.1463 -0.0880  0.0649
20046W        W38900   5.781   2.864  12.378 -0.2848  0.5574 -0.0716
20047W        W38901   2.333  11.494   1.576 -0.0621 -0.0546 -0.1160
20048W        W38902   2.891  15.262   5.004 -0.1816 -0.2535  0.0669
20049W        W38903  15.706  15.938  13.194  0.2233  0.0828  0.1335
20050W        W38904  16.393   2.529  12.817  0.1065  0.2801  0.0508
20051W        W38905  16.507   2.417   4.506  0.1239  0.0294 -0.2504
20052W        W38906   0.720   9.639  13.794 -0.1367  0.1625  0.1852
20053W        W38907   4.256  13.242  12.701 -0.2227  0.1787  0.2699
20054W        W38908   1.250  15.364   0.909  0.3163 -0.0454  0.3020
20055W        W38909  12.741   5.166   4.391  0.0325 -0.0031 -0.0174
20056W        W38910   2.390   7.593   0.067  0.0386  0.1224 -0.1020
20057W        W38911  10.876   6.906  13.984 -0.0835 -0.1266  0.0577
20058W        W38912   1.913  12.620   0.035 -0.1339  0.0483  0.1396
20059W        W38913   5.821  15.356   2.669  0.1240 -0.0430 -0.0080
20060W        W38914   9.322  12.932  13.480 -0.2794  0.1753 -0.1525
20061W        W38915  15.952   0.996   0.766  0.0136 -0.1228 -0.1393
20062W        W38916  17.455   7.183  13.201 -0.0438  0.3149 -0.1692
20063W        W38917  18.492  16.439  14.255  0.1582 -0.0932 -0.2697
20064W        W38918  17.991   5.436   1.448  0.2491  0.1241 -0.1950
20065W        W38919   1.432  13.781  14.774  0.0215 -0.1246 -0.0407
20066W        W38920  12.601   7.795   0.760 -0.2398 -0.1381 -0.1593
20067W        W38921   9.887  17.510   0.871 -0.2795 -0.2557  0.2209
20068W        W38922   2.286   8.283   1.432  0.0656  0.1335 -0.0315
20069W        W38923   8.502   1.146  13.895  0.1057 -0.1825  0.2324
20070W        W38924   2.680  17.199   2.085 -0.3022  0.0509 -0.1158
20071W        W38925  12.454  10.757  13.083  0.0496  0.0713 -0.0577
20072W        W38926  18.531   7.184   2.604  0.0595  0.2327  0.1676
20073W        W38927   0.651  15.770  11.240  0.1396 -0.1652 -0.0219
20074W        W38928  14.475   8.951   4.337  0.1230  0.5805 -0.2267
20075W        W38929  16.915   4.777  10.758  0.0083 -0.1575  0.0381
20076W        W38930  12.328  14.741   2.127 -0.2550 -0.3146  0.1140
20077W        W38931   8.450   6.987   3.140  0.0014 -0.0074  0.0520
20078W        W38932  10.570   0.368  11.624 -0.0896  0.1459 -0.0187
20079W        W38933   9.952   4.582  13.962 -0.0039  0.2731 -0.1644
20080W        W38934  10.735  16.077   2.312  0.0071  0.0732 -0.0426
20081W        W38935   0.155  17.777  11.924 -0.0032  0.1055  0.0910
20082W        W38936  10.994  15.951  13.619  0.0832 -0.1289 -0.0207
20083W        W38937  13.050   4.635  13.068  0.1790 -0.1095 -0.1986
20084W        W38938  13.309  10.093  14.615 -0.1015  0.0375 -0.1917
20085W        W38939  13.434  17.300  12.124  0.1196  0.1057  0.2707
20086W        W38940  17.139  17.062  11.275  0.3241  0.2967 -0.2257
20087W        W38941  12.830   5.600   2.926  0.0920  0.1310  0.2237
20088W        W38942   5.368  11.343  11.792 -0.1183  0.1827 -0.3737
20089W        W38943   0.053  10.149   4.149 -0.0608  0.0964  0.1490
20090W        W38944   5.477   8.640   0.991 -0.0679 -0.0338 -0.0486
20091W        W38945  16.001  11.856  11.470  0.2424  0.0701 -0.2645
20092W        W38946  12.482   1.427  12.945 -0.1436 -0.1225 -0.0627
20093W        W38947   6.400   6.610   0.595 -0.1214 -0.0105 -0.0922
20094W        W38948   0.162  15.654   9.751  0.0261 -0.4020 -0.0025
20095W        W38949   5.853   4.294  14.447  0.2329 -0.3751 -0.0717
20096W        W38950  14.375   9.873   3.320  0.1267  0.1267 -0.0911
20097W        W38951  18.720   1.728   4.392  0.4072  0.3845 -0.1279
20098W        W38952   3.336   9.865  14.445 -0.1544  0.0503  0.1170
20099W        W38953  12.931  17.255   4.021 -0.0960 -0.0703  0.0884
20100W        W38954   3.942   5.904  13.372  0.0118  0.0146  0.0156
20101W        W38955  16.190   5.650  13.260 -0.0644 -0.1091 -0.1216
20102W        W38956   4.223  15.103  12.322  0.0707 -0.3630 -0.0755
20103W        W38957  16.021  13.501   3.499  0.2704 -0.2887 -0.3922
20104W        W38958  17.911  12.849  11.970  0.0555 -0.0640 -0.2522
20105W        W38959  11.093   3.716  14.358  0.0659  0.2678  0.0753
20106W        W38960  13.713   2.249   0.880  0.0740  0.1186 -0.1316
20107W        W38961   4.522   3.809  11.715 -0.0725 -0.0397  0.0337
20108W        W38962   4.454  17.324   1.945  0.3639 -0.2535  0.0382
20109W        W38963  11.301   2.559  11.684 -0.2362  0.0579  0.0581
20110W        W38964   7.700  18.371  14.086 -0.3130  0.2726  0.0895
20111W        W38965  12.575  10.622  10.998  0.0417  0.0287 -0.2394
20112W        W38966  16.052   5.491   3.657  0.1668 -0.3939  0.2484
20113W        W38967   6.828  14.902   1.924  0.1020  0.1278 -0.2211
20114W        W38968   3.364  10.732  14.420  0.3560 -0.2197 -0.0274
20115W        W38969   2.080   8.825   2.642 -0.1576 -0.1154 -0.1545
20116W        W38970   1.781  14.123   0.204 -0.0188 -0.0447  0.1955
20117W        W38971  10.140  13.694   2.974  0.2570  0.1527  0.1979
20118W        W38972   4.979  10.500  11.622 -0.2848  0.1368 -0.2592
20119W        W38973  16.484  13.371   1.993 -0.0058 -0.1137  0.0193
20120W        W38974  18.289  12.751   0.719 -0.0530 -0.0021  0.4617
20121W        W38975  10.514   4.452   2.443 -0.1136 -0.0668 -0.1703
20122W        W38976   0.892  18.228  12.633 -0.1889 -0.1254  0.0916
20123W        W38977  11.652  11.844  12.310  0.0539  0.0935  0.0223
20124W        W38978  16.263  17.634  13.456  0.0485  0.2612 -0.0780
20125W        W38979   3.430  16.909  10.984 -0.0374 -0.1029  0.1046
20126W        W38980   4.193  14.211  10.007 -0.0037 -0.0208 -0.0878
20127W        W38981  14.293   0.638  11.257 -0.0482  0.2091 -0.2675
20128W        W38982  15.243  10.252   3.618  0.0765 -0.2353  0.0942
20129W        W38983   6.574  16.984  13.254  0.0068 -0.4877  0.0435
20130W        W38984   3.215   9.614  10.689 -0.1972  0.3614  0.1100
20131W        W38985  13.514   6.921   3.412 -0.1030 -0.2017 -0.3126
20132W        W38986   0.776   5.106   2.600 -0.2265  0.0168 -0.1781
20133W        W38987  12.464  12.977   1.375  0.3178 -0.2962 -0.4460
20134W        W38988   7.277  17.768  14.681  0.1639 -0.0910 -0.0963
20135W        W38989   6.428  13.908  13.036 -0.0588 -0.1102 -0.2262
20136W        W38990   1.014   9.183  10.789 -0.2085 -0.1438  0.0664
20137W        W38991  13.852   3.613   2.891  0.3485  0.2365 -0.1269
20138W        W38992  16.117   9.069   1.791  0.1430 -0.3161  0.2209
20139W        W38993  14.775   4.453   4.242 -0.3520  0.1250 -0.1976
20140W        W38994   3.208   9.566   0.571 -0.0156  0.0189 -0.0343
20141W        W38995   8.793   9.865   0.986  0.2559  0.0887 -0.0597
20142W        W38996   2.651  16.146   4.742  0.0359 -0.0870 -0.3377
20143W        W38997   2.512   5.661   4.229  0.2584 -0.0538  0.1399
20144W        W38998  16.216  13.198   3.180 -0.2905  0.1502  0.2963
20145W        W38999   5.813   7.064  11.580 -0.0180  0.2212 -0.2159
20146W        W39000  16.316   6.350   3.619 -0.0579 -0.1973 -0.1159
20147W        W39001  13.114   0.567   0.206 -0.0658 -0.0087 -0.5050
20148W        W39002   2.470  11.425  11.575 -0.0424 -0.1654 -0.2513
20149W        W39003   7.386   9.993   0.683  0.1227 -0.0689  0.2914
20150W        W39004   7.798   2.231   2.780 -0.1540  0.0988  0.4525
20151W        W39005   2.224   2.760   3.798 -0.0011 -0.1544  0.0994
20152W        W39006   8.781  15.600  12.631  0.0642  0.2355  0.1731
20153W        W39007   4.476   7.692   1.168 -0.1632 -0.0244  0.2557
20154W        W39008  17.507   3.398  10.545  0.0595  0.1082  0.0306
20155W        W39009   3.661  18.420  11.141  0.2117  0.0849 -0.1355
20156W        W39010   6.356   7.105   4.198  0.2844  0.3359 -0.0237
20157W        W39011   8.116  12.986   8.997 -0.0652 -0.0190  0.0385
20158W        W39012   0.101   9.140  12.344  0.1303  0.0565  0.0237
20159W        W39013  10.900   1.614   1.868 -0.1000  0.0987 -0.1256
20160W        W39014   4.884   2.074  10.399 -0.0260  0.0066 -0.2835
20161W        W39015   0.850   9.157  14.078  0.1763  0.1125  0.1686
20162W        W39016   8.475   3.251  10.535  0.1986 -0.0842 -0.0322
20163W        W39017   2.768   1.002   3.510 -0.0596 -0.2235  0.1470
20164W        W39018   7.592   8.409   0.177 -0.0878  0.1643  0.0988
20165W        W39019  17.394   1.331  13.058 -0.1570  0.0046  0.0412
20166W        W39020   0.758   6.094   3.115 -0.1347 -0.0990  0.1574
20167W        W39021  14.794   1.621  13.905 -0.2071 -0.0239 -0.1626
20168W        W39022  11.190  12.219  13.955 -0.1200 -0.2059 -0.0326
20169W        W39023  12.294  17.092   2.616 -0.0930  0.0292  0.3915
20170W        W39024   0.383  14.603   2.135 -0.1614  0.3553  0.2717
20171W        W39025  16.754  15.309   2.131  0.0505  0.1902  0.2284
20172W        W39026  15.644  18.091   1.190  0.2249  0.0655  0.2397
20173W        W39027  12.915   3.217   0.119  0.1520 -0.2418 -0.0982
20174W        W39028   2.389   0.935   1.980 -0.1233  0.0628 -0.0969
20175W        W39029   0.948   3.834   1.506 -0.0375 -0.2352  0.1648
20176W        W39030   8.903  10.564   2.222  0.2941  0.0686  0.0223
20177W        W39031  14.287  13.426  12.568  0.1249 -0.0822 -0.2054
20178W        W39032   1.652   1.472  13.438 -0.0891  0.0090 -0.2104
20179W        W39033   8.019  18.334   2.742  0.0762  0.0712 -0.2068
20180W        W39034   2.898   2.544   9.478  0.1846  0.1198  0.1833
20181W        W39035  15.678   7.998  11.209  0.1152 -0.2213  0.0929
20182W        W39036   9.039  13.648  12.937  0.1052  0.2215  0.2955
20183W        W39037  16.430   4.297   0.394 -0.1804 -0.2069 -0.1600
20184W        W39038   5.887   9.729   2.879 -0.2391  0.2690  0.0894
20185W        W39039   1.104   3.993   2.740  0.2337  0.2436  0.0869
20186W        W39040   5.771   7.112   2.735 -0.1798  0.0913 -0.1918
20187W        W39041   7.388   8.917  13.045  0.1476  0.2304 -0.0392
20188W        W39042   8.926   1.917  11.354  0.2974  0.0782 -0.0677
20189W        W39043   3.954   6.283  13.791  0.0473  0.3963  0.2274
20190W        W39044   1.338   8.744  11.586  0.5049  0.1125  0.0459
20191W        W39045   9.496  15.329   2.639  0.0993  0.0787  0.0247
20192W        W39046   0.710  16.416  13.458  0.0651  0.2973  0.1163
20193W        W39047  10.125   3.873   1.987 -0.0300 -0.0172 -0.2256
20194W        W39048  13.347   8.309   3.270  0.0562 -0.0896 -0.0197
20195W        W39049  14.679   6.119  10.110  0.0286  0.2781 -0.2263
20196W        W39050   1.258   5.250  13.718  0.2000 -0.2637  0.3818
20197W        W39051   5.395  14.157   3.168 -0.0949 -0.1884 -0.1902
20198W        W39052  14.288   4.209   2.491 -0.2059 -0.1443 -0.1419
20199W        W39053   8.357  18.479  13.152 -0.0690  0.0939 -0.1555
20200W        W39054   7.311  10.682   4.458  0.0728  0.0122 -0.0818
20201W        W39055  13.556   0.545   4.546  0.0176 -0.5938 -0.0643
20202W        W39056  17.500   8.609   4.832 -0.1198  0.0643  0.0945
20203W        W39057   6.778   7.569  14.408  0.2473 -0.0795 -0.1316
20204W        W39058   6.321   1.545   2.998  0.0725 -0.1209 -0.3075
20205W        W39059   8.740   9.362   1.011  0.1701  0.0784 -0.1749
20206W        W39060   6.945  10.109  13.663 -0.1282  0.3793  0.0569
20207W        W39061  16.264   8.824   3.402 -0.2822 -0.1513  0.0823
20208W        W39062  17.365  13.776  12.563 -0.1104 -0.4155  0.1565
20209W        W39063  16.522  15.314   1.714  0.0231  0.0199  0.1158
20210W        W39064   3.666  11.270  13.755  0.1062 -0.2849 -0.0282
20211W        W39065   8.761  15.261  11.672  0.1080 -0.2625  0.2417
20212W        W39066   6.309   2.676  12.344 -0.1252 -0.2456 -0.0087
20213W        W39067  18.820  14.461  11.971 -0.0464 -0.1967  0.3597
20214W        W39068   6.747  10.691   2.692  0.4954 -0.3916 -0.1302
20215W        W39069   4.263   6.943  11.392 -0.1453  0.0829  0.1078
20216W        W39070   4.642   4.543  14.315  0.0944 -0.1972  0.0885
20217W        W39071  10.498   0.863  11.830  0.5760  0.0878 -0.1575
20218W        W39072   7.622   7.359   9.986  0.0842 -0.1601  0.0055
20219W        W39073  10.439  11.965   0.249 -0.0842 -0.3022 -0.1716
20220W        W39074   7.837   4.176  13.357 -0.0611  0.1715 -0.2488
20221W        W39075   1.849   7.213   2.870 -0.3883 -0.1138  0.0331
20222W        W39076  14.473  15.419   0.639  0.4672 -0.3004  0.1232
20223W        W39077  18.086   2.918   4.133  0.0591  0.2499 -0.0475
20224W        W39078  15.178  11.850   4.126 -0.0578  0.0594  0.1999
20225W        W39079  18.966   3.360  13.446  0.0779  0.0483  0.0514
20226W        W39080   9.389   5.661  13.686  0.1088 -0.1737  0.3160
20227W        W39081   3.710  16.945   4.828 -0.1698 -0.0517  0.1880
20228W        W39082  16.732   3.511   1.750  0.0229 -0.3624  0.1151
20229W        W39083  10.124   3.580   3.350 -0.0490  0.0928 -0.2206
20230W        W39084   2.672   3.060   2.737  0.0104 -0.1253 -0.2848
20231W        W39085  19.064  13.833  12.751 -0.0302  0.0331  0.3230
20232W        W39086   7.425   8.424   1.767  0.1830 -0.0914  0.0086
20233W        W39087   5.797   2.797   0.776 -0.0242 -0.0909  0.1338
20234W        W39088  11.748   1.053  12.029 -0.0474 -0.0334  0.0321
20235W        W39089  10.212  18.621   0.092 -0.2027 -0.1025 -0.0890
20236W        W39090  11.311  13.904  11.530 -0.2036  0.0335  0.0736
20237W        W39091   0.051   2.449  13.297  0.4705 -0.1348 -0.0464
20238W        W39092  13.219   9.134  13.094 -0.2950  0.4941 -0.1337
20239W        W39093   8.387  11.566  12.653 -0.0093  0.1581 -0.1263
20240W        W39094  17.773   9.399  13.898 -0.0817  0.4187 -0.1052
20241W        W39095  17.737   8.525  14.778  0.0236 -0.1591 -0.0865
20242W        W39096   8.960   1.403   4.132 -0.0268 -0.0547  0.0003
20243W        W39097  12.483  18.673  13.448 -0.2313 -0.0423  0.2225
20244W        W39098  10.268   7.031   3.992  0.2886  0.2545  0.2715
20245W        W39099   4.555   3.198   9.460 -0.1752 -0.0043 -0.3597
20246W        W39100   6.743   6.684   2.924 -0.0134  0.4794 -0.3167
20247W        W39101   0.646  16.690  11.000 -0.0814  0.2939  0.0069
20248W        W39102  17.463   5.620  11.613 -0.2059 -0.0293 -0.1566
20249W        W39103   9.536  11.567   3.063 -0.2627 -0.1671 -0.1900
20250W        W39104   4.599   1.006  13.240  0.0522 -0.1508  0.1106
20251W        W39105  18.750  15.591  11.519  0.3518  0.0061  0.3325
20252W        W39106  18.946  17.776   0.797  0.0626 -0.0412 -0.0539
20253W        W39107  10.603  12.573  11.675  0.1113  0.0808  0.3584
20254W        W39108   2.460   0.266   0.526 -0.0123  0.3785  0.0202
20255W        W39109   2.135   3.741  14.630  0.0237  0.2496  0.0372
20256W        W39110   9.179  15.535  14.280  0.0923 -0.1466  0.3815
20257W        W39111   6.915   8.106  10.143  0.2558  0.0934  0.3340
20258W        W39112   3.420   9.397   2.042 -0.1665 -0.1826  0.4582
20259W        W39113  16.776   8.427  14.200 -0.2144  0.3745 -0.2314
20260W        W39114   0.385  13.425  11.600  0.0226  0.1401 -0.1442
20261W        W39115  14.999  12.658   3.718 -0.2194 -0.1821 -0.0128
20262W        W39116   1.611  14.214   4.418 -0.1212  0.1383  0.0376
20263W        W39117   4.174   9.597  13.731  0.0896 -0.2406 -0.0455
20264W        W39118   4.566   8.112   2.772  0.0647  0.0858  0.0393
20265W        W39119  12.529   3.626  13.861 -0.0945  0.3997  0.1551
20266W        W39120  16.758  18.544   0.376  0.3049 -0.0567 -0.1714
20267W        W39121   9.815  11.456  14.140 -0.3453 -0.0683 -0.0387
20268W        W39122   9.144   8.416   9.982 -0.0663 -0.1636  0.0946
20269W        W39123   1.030  14.176   3.378 -0.0047  0.3381 -0.1207
20270W        W39124  18.336  17.828   4.387  0.0717 -0.0563 -0.0816
20271W        W39125  18.261   5.832  13.426 -0.0956 -0.0722  0.1143
20272W        W39126  18.562   9.143  13.776 -0.2134 -0.1113  0.0837
20273W        W39127  15.247   2.739  10.742  0.1863 -0.2396  0.2667
20274W        W39128  11.812   0.440   0.052  0.0065 -0.1623 -0.0856
20275W        W39129   1.243   6.785   2.522  0.0300 -0.1961 -0.0566
20276W        W39130  10.615   5.513   3.965 -0.2349  0.3170 -0.3006
20277W        W39131   5.422   6.419  14.337 -0.1079  0.3824 -0.1951
20278W        W39132  18.800  12.429  10.501  0.0612 -0.1356 -0.0626
20279W        W39133  10.131   7.521   3.082  0.0801 -0.0225 -0.1255
20280W        W39134   2.958  16.463   4.062  0.3143  0.1866  0.1256
20281W        W39135   7.428   0.821  12.266 -0.1685 -0.0137 -0.0284
20282W        W39136  11.186  18.631   9.438  0.1018 -0.0910 -0.1601
20283W        W39137   6.288   7.749  14.187 -0.0769  0.0238  0.0552
20284W        W39138   6.460   1.557  10.819  0.0120  0.1006 -0.2527
20285W        W39139   7.922   4.648   0.643 -0.0347 -0.0457 -0.0262
20286W        W39140  14.070  12.866   3.158 -0.2763 -0.1154 -0.0188
20287W        W39141  12.174  15.913  13.994 -0.0813  0.1399  0.2390
20288W        W39142  10.539  12.852   0.827 -0.0684  0.2952 -0.1984
20289W        W39143   3.994  10.243  13.989 -0.1449  0.1942 -0.3016
20290W        W39144   5.554  13.996  12.457  0.1022  0.1438 -0.1380
20291W        W39145  14.459  13.009   1.543 -0.3522 -0.1297 -0.1738
20292W        W39146   1.784  17.811   3.074  0.0591 -0.1195 -0.1851
20293W        W39147   3.187   0.485  13.584 -0.2110 -0.0872 -0.0139
20294W        W39148   7.992  16.548   0.839  0.0868 -0.1491 -0.6005
20295W        W39149  12.310   7.861   3.347 -0.5431  0.1400 -0.1254
20296W        W39150   8.520  13.368   4.288 -0.1577  0.3437  0.1541
20297W        W39151   4.523  18.021  12.781  0.0182  0.4245 -0.0408
20298W        W39152  10.010  15.977  13.695  0.1810  0.0981  0.0571
20299W        W39153   4.871   4.574  11.048  0.0679  0.0255  0.0207
20300W        W39154  14.380   5.302   1.521  0.1909  0.2564  0.0663
20301W        W39155   1.913   2.102   2.116  0.1104  0.2324  0.0730
20302W        W39156   8.971  12.145   1.970  0.1103 -0.0997 -0.1125
20303W        W39157   4.747  15.075  12.255 -0.2033  0.0444  0.1110
20304W        W39158   1.993  16.485  13.759 -0.0167  0.2021 -0.0932
20305W        W39159  16.511   7.106  13.307 -0.0230 -0.0705 -0.2482
20306W        W39160  15.120   8.609  10.661 -0.2709 -0.1927  0.1729
20307W        W39161   9.737   8.739  11.510  0.1067 -0.2652 -0.3851
20308W        W39162   4.971   6.189  11.084  0.2162 -0.0453  0.1667
20309W        W39163  14.842  13.931  11.380 -0.0946  0.0997  0.0042
20310W        W39164   1.625  15.264   2.066 -0.5724  0.0257  0.1432
20311W        W39165  17.167  18.003  10.661 -0.0588  0.2492  0.1137
20312W        W39166   3.421   6.242   1.743 -0.3072 -0.1252 -0.1841
20313W        W39167  16.158   7.695  14.541 -0.2363  0.1850 -0.2555
20314W        W39168   6.483  16.289  10.858 -0.3670  0.0519  0.2940
20315W        W39169   8.471   3.888   4.082 -0.1387  0.0766  0.3371
20316W        W39170   9.315   3.692   2.005  0.3767 -0.0007  0.2260
20317W        W39171  10.056   3.000  13.458  0.1968 -0.5794 -0.0980
20318W        W39172   3.520   4.074  11.539 -0.0519  0.0125  0.0539
20319W        W39173  11.519   0.695   0.400 -0.2514 -0.1060 -0.1193
20320W        W39174  10.446   9.339  13.322  0.0394 -0.0216  0.0308
20321W        W39175   1.632  13.456   3.865  0.1930  0.0988 -0.1313
20322W        W39176   0.370   9.653  11.169 -0.1400  0.0120  0.2853
20323W        W39177   7.394  12.311  12.239 -0.0551 -0.0315  0.1076
20324W        W39178   9.321  11.108   4.398  0.3507 -0.1497 -0.0732
20325W        W39179   9.464  16.185  13.665  0.0462  0.2678 -0.0099
20326W        W39180  16.100   4.217   1.595  0.3544  0.0932 -0.2854
20327W        W39181  18.034  11.080   3.648  0.2938  0.2105  0.0693
20328W        W39182  12.105   1.968   0.520  0.2899  0.2981 -0.4687
20329W        W39183  12.758  12.681  12.645  0.5058 -0.0676 -0.0227
20330W        W39184   6.470   8.884   2.690 -0.0470 -0.0582  0.2712
20331W        W39185   4.455  14.558   0.767  0.2119  0.1551 -0.1916
20332W        W39186  12.672  12.869  13.063  0.0003  0.0155  0.0776
20333W        W39187   1.657   0.063  13.303 -0.0953 -0.0729 -0.1094
20334W        W39188   1.649   4.165   0.311 -0.1726 -0.0300 -0.3782
20335W        W39189   1.222   4.217  12.321  0.0455  0.0643  0.0654
20336W        W39190  11.568  10.838   1.823  0.3239 -0.0827  0.2124
20337W        W39191   2.565   0.954   1.464 -0.2506 -0.5079  0.2406
20338W        W39192   9.566   5.985  13.186  0.1520 -0.0587  0.2437
20339W        W39193   8.959   3.118  11.784  0.3581 -0.1752 -0.0013
20340W        W39194   1.415  13.116  11.621 -0.0811  0.0467  0.3668
20341W        W39195   2.210   9.994   2.028  0.1669  0.0699 -0.3452
20342W        W39196   3.492   3.585  13.766  0.2707 -0.0076 -0.2755
20343W        W39197  13.481  16.712   3.647  0.0354 -0.0010 -0.1288
20344W        W39198  11.305  19.059   2.925 -0.1493  0.2788  0.1192
20345W        W39199   0.783   8.040  11.987 -0.0372 -0.1412  0.2134
20346W        W39200  18.766   1.802   9.435 -0.1291 -0.1853 -0.0655
20347W        W39201   1.650  16.954   3.480  0.3288  0.1688  0.0816
20348W        W39202   4.513  15.385  11.260  0.1914  0.0961  0.0227
20349W        W39203  13.689  13.345   0.941  0.0744  0.0183 -0.1112
20350W        W39204   3.813   4.297   0.978  0.2247 -0.0943 -0.1771
20351W        W39205  12.111  13.256  11.503  0.1889  0.1027 -0.0052
20352W        W39206   5.667  17.307   1.783  0.0057  0.0099 -0.0057
20353W        W39207   5.085   7.064  13.624 -0.4559  0.3488 -0.6582
20354W        W39208   4.114  12.110   1.146  0.0057 -0.3784 -0.2001
20355W        W39209  15.954   9.389  12.837  0.0604  0.1304 -0.0785
20356W        W39210  16.297  15.785   1.899 -0.1959  0.1985  0.2837
20357W        W39211   9.468   9.366   3.389  0.2414 -0.0703  0.3122
20358W        W39212  13.588   6.811   4.281  0.3791 -0.1446 -0.0557
20359W        W39213  14.290  14.424   3.835 -0.0262  0.0508 -0.2495
20360W        W39214  13.299  12.025  10.918  0.0440 -0.0939 -0.1776
20361W        W39215   1.217   2.137  13.816 -0.3423  0.2301 -0.0066
20362W        W39216  17.640   5.707   1.645 -0.5334  0.2370 -0.5278
20363W        W39217   8.049   4.459  14.536 -0.0146  0.2548 -0.1324
20364W        W39218   7.959   1.237   0.061 -0.1671  0.3717 -0.0797
20365W        W39219   0.902  14.408  12.609  0.1040  0.0227 -0.3270
20366W        W39220   7.934  10.221   2.473 -0.1273  0.0961  0.0719
20367W        W39221  17.045  17.918   5.294  0.1367  0.0517 -0.0686
20368W        W39222  17.595  14.286   4.062  0.0405  0.0919 -0.1041
20369W        W39223  13.320  10.755   4.745 -0.1169 -0.0202 -0.2079
20370W        W39224  13.126  11.356   1.493  0.1536  0.1510  0.0353
20371W        W39225  13.236  13.989   3.662  0.0488 -0.1649  0.3390
20372W        W39226  16.709   0.017  13.040 -0.0334 -0.2041 -0.0500
20373W        W39227   5.959  12.158  12.020  0.0659 -0.3413 -0.1995
20374W        W39228   3.350  17.066  13.259  0.3584 -0.5839 -0.3915
20375W        W39229   1.611  15.858  11.068 -0.0858 -0.2803  0.0168
20376W        W39230   3.129   5.632   1.196  0.1171  0.0870 -0.0205
20377W        W39231  14.866  17.817  11.809  0.2278  0.1028  0.0727
20378W        W39232  13.192   8.838  12.675 -0.2434  0.3383  0.0123
20379W        W39233   8.010  17.944   1.404 -0.1262  0.0733  0.1414
20380W        W39234   5.926  12.333   1.543 -0.0983  0.1263 -0.1527
20381W        W39235  10.321   9.691   2.339 -0.1368  0.1278 -0.0944
20382W        W39236   8.521   3.248   0.578 -0.1543  0.1407 -0.0911
20383W        W39237   3.908  12.723   3.173 -0.3066 -0.1558  0.1570
20384W        W39238   3.087  14.417   1.361  0.0967 -0.5784 -0.0815
20385W        W39239   0.115   4.736  12.112  0.0243 -0.2658  0.0328
20386W        W39240  13.589  11.221   0.542  0.2124 -0.1425  0.0679
20387W        W39241   0.520  14.782  12.270 -0.1702 -0.1190 -0.2018
20388W        W39242  10.241  12.828   3.506 -0.0027 -0.1203 -0.1137
20389W        W39243  15.939  11.690   4.240  0.1697 -0.0076  0.1542
20390W        W39244   4.623   7.314   1.814  0.1992  0.0171 -0.0514
20391W        W39245   0.043   2.339  10.930  0.2314  0.0329 -0.2385
20392W        W39246  17.198   0.796   4.965 -0.1373  0.3758  0.0015
20393W        W39247   2.228  16.621  14.347 -0.1197 -0.1313 -0.0275
20394W        W39248  14.734   4.592  12.439  0.1377 -0.1292  0.1684
20395W        W39249  12.339   3.917  10.825 -0.0669  0.3915  0.4167
20396W        W39250  15.854  18.568   1.395 -0.0585 -0.2004 -0.3041
20397W        W39251   9.662  12.268   9.225  0.1569 -0.1801 -0.3343
20398W        W39252  14.989  16.403   2.612 -0.2542  0.0217 -0.2120
20399W        W39253  12.670   7.147  11.595 -0.0307  0.1920 -0.0821
20400W        W39254   7.797   8.605  13.959 -0.1129 -0.0642  0.1767
20401W        W39255  17.404  17.028  14.256  0.0605 -0.1255  0.1130
20402W        W39256  11.574   7.605   0.692  0.0464 -0.1785 -0.0322
20403W        W39257   7.853   2.716   3.702  0.1135 -0.0671 -0.2051
20404W        W39258  15.989   8.243   3.523 -0.2639  0.0252 -0.2870
20405W        W39259  10.199   0.192   3.627  0.3204  0.0968  0.0626
20406W        W39260   2.720   4.957  14.245 -0.0682 -0.2279  0.2543
20407W        W39261   4.323   4.723  10.336 -0.2661  0.1756 -0.2451
20408W        W39262   0.410   3.989  12.322 -0.0406 -0.3529 -0.2035
20409W        W39263  12.650   3.089   1.670  0.2256  0.1335 -0.0100
20410W        W39264   7.861  11.035  11.667  0.3288 -0.4431  0.0838
20411W        W39265   5.880  13.631  14.242 -0.1949 -0.3724  0.0191
20412W        W39266  10.019  18.207   2.682 -0.3623 -0.1211  0.1504
20413W        W39267  11.745   2.634   5.325 -0.1900  0.1019 -0.0234
20414W        W39268  17.867   5.842   2.558  0.0055 -0.0865  0.0700
20415W        W39269   0.482   7.533   2.896 -0.3418  0.0376 -0.2488
20416W        W39270   1.228   2.291  11.453 -0.2762  0.0766  0.2533
20417W        W39271   3.186   1.211   4.534 -0.0070  0.1857  0.1384
20418W        W39272   3.914  10.036   0.180  0.0463  0.0373  0.0276
20419W        W39273   8.156  18.136  14.121  0.1221 -0.0934  0.3954
20420W        W39274  10.644   3.964   0.690 -0.2165 -0.0685 -0.1978
20421W        W39275  13.918   6.835   1.705 -0.1854  0.1515 -0.0343
20422W        W39276   8.071   0.413  10.430  0.4255 -0.2436 -0.0302
20423W        W39277   5.004   9.362  10.677 -0.1124 -0.4079 -0.1506
20424W        W39278  11.733  16.031   0.644 -0.0277 -0.1736 -0.1862
20425W        W39279   8.266   2.791  10.537 -0.1352  0.0589  0.0658
20426W        W39280   7.018  11.157  14.536 -0.0771 -0.0483 -0.1549
20427W        W39281   1.226   2.347   0.437 -0.3524  0.0122 -0.0863
20428W        W39282  14.907   8.742  14.465  0.2089 -0.2938  0.1670
20429W        W39283   5.686   9.095  11.448 -0.0485 -0.2079 -0.0312
20430W        W39284   7.358   7.075  11.466  0.0891  0.1272 -0.0369
20431W        W39285   0.076   9.770  11.650  0.0458  0.2556  0.2508
20432W        W39286   9.904   9.128   9.773  0.1252  0.1717  0.1345
20433W        W39287   9.563   8.738   5.568  0.2196 -0.0549  0.0950
20434W        W39288  16.698   7.571   0.427  0.1017  0.1802 -0.1901
20435W        W39289  17.367   6.486   0.193  0.4013  0.1318 -0.1402
20436W        W39290  11.911  15.165   0.315  0.0032  0.4119  0.0868
20437W        W39291   9.030  18.318   2.418 -0.0371  0.2003  0.2749
20438W        W39292  15.355   6.070   3.530  0.2308 -0.0444  0.0266
20439W        W39293  16.233   1.804   1.607 -0.0443 -0.4738  0.2353
20440W        W39294  12.329  14.185  10.539 -0.0208  0.1006 -0.1351
20441W        W39295   5.870   3.062   0.131 -0.0714  0.3424 -0.0946
20442W        W39296   0.332  17.608   2.528 -0.1839  0.1075  0.4464
20443W        W39297  18.891   2.499   4.159  0.0993  0.0336  0.0066
20444W        W39298  19.073   8.731  11.185 -0.0802 -0.3850 -0.1211
20445W        W39299   8.334  14.274  14.492  0.3596  0.0714 -0.0704
20446W        W39300   6.736   0.899  14.757 -0.0927  0.0659  0.0859
20447W        W39301   6.251   9.043   3.154 -0.2680  0.0795  0.0540
20448W        W39302   2.733   2.384  10.737 -0.0431  0.2837 -0.2057
20449W        W39303   1.807  17.749  14.468  0.1800 -0.0144 -0.1669
20450W        W39304   5.410  10.772  14.075  0.2101  0.3351 -0.0934
20451W        W39305   9.225  17.450  13.771  0.1056 -0.2179  0.0544
20452W        W39306  12.376   2.679  12.769  0.2616  0.0605  0.1260
20453W        W39307   1.591   4.635   0.038 -0.1812 -0.1088  0.0563
20454W        W39308  11.246   3.174  11.864 -0.0866 -0.0763 -0.2490
20455W        W39309   2.101  15.477  13.493  0.0490 -0.0815 -0.0706
20456W        W39310  13.808   6.622   3.778 -0.2262  0.0126  0.3837
20457W        W39311   8.839   9.169  13.116 -0.1193 -0.1717 -0.1851
20458W        W39312   3.502  13.038   3.226  0.2677 -0.2561  0.3294
20459W        W39313  16.953  12.155   1.026  0.0286  0.1331  0.0482
20460W        W39314   5.607   8.307  11.396 -0.1077  0.4353  0.1634
20461W        W39315   2.357   7.104   1.944 -0.3623  0.1266  0.0221
20462W        W39316  12.308  12.551  12.386 -0.2301 -0.0386 -0.4610
20463W        W39317   4.666   9.207  11.452  0.1241  0.1072  0.3370
20464W        W39318   6.179   0.035  13.957  0.3334  0.2879  0.2789
20465W        W39319   8.405  13.565  12.698 -0.0668 -0.0086  0.1235
20466W        W39320   8.864  12.655  10.958 -0.1893  0.1345  0.3390
20467W        W39321   7.830  15.227  12.288  0.1963  0.6045  0.1801
20468W        W39322  12.746   6.985   4.055 -0.3440 -0.2332  0.1359
20469W        W39323  12.550  18.284   4.144  0.0357 -0.1524  0.0124
20470W        W39324  15.510  12.352   0.325 -0.0640  0.1650 -0.2347
20471W        W39325  18.365   4.593   0.632  0.1755 -0.1228 -0.0981
20472W        W39326  17.714   5.196   0.860  0.0906  0.1100 -0.0381
20473W        W39327  12.793   1.085   0.583  0.1110  0.1282 -0.1160
20474W        W39328   1.395  16.928   2.352 -0.0511  0.0346  0.2136
20475W        W39329   6.152  14.222   3.872 -0.1682  0.2989  0.2710
20476W        W39330  16.604  12.570   2.043  0.1236 -0.1876 -0.2216
20477W        W39331   8.667  10.127   0.596  0.1150 -0.0214  0.1783
20478W        W39332   3.876   4.675  13.238 -0.2165  0.4321  0.0724
20479W        W39333  13.554  13.198   4.217 -0.0917  0.1252  0.0249
20480W        W39334  11.354  10.763  11.063  0.0871 -0.1309 -0.0408
20481W        W39335   9.620  17.287  10.554 -0.2960  0.0583  0.4545
20482W        W39336   2.675  11.774  11.222  0.1539  0.0417  0.0202
20483W        W39337   5.802  17.060  12.036 -0.2423  0.1045  0.0575
20484W        W39338  14.469  16.196   1.659 -0.0550  0.0803  0.1754
20485W        W39339  13.269  11.237   5.569 -0.4964  0.0956 -0.0444
20486W        W39340   3.811  13.394   1.473  0.0231  0.0466  0.2513
20487W        W39341   7.029  18.474  10.503 -0.0519  0.0104 -0.1651
20488W        W39342   2.953  12.265   3.113  0.0714 -0.2957  0.1945
20489W        W39343   9.013  12.515  11.462  0.1830 -0.0316  0.0095
20490W        W39344   0.632   7.800  11.410  0.2271  0.2108  0.3143
20491W        W39345   7.351  15.740  13.403 -0.1604  0.1685  0.0379
20492W        W39346   7.122  14.454   2.953  0.1020 -0.0330 -0.1971
20493W        W39347  12.267   2.378  11.541 -0.0216  0.0933 -0.2483
20494W        W39348   8.241  17.425  11.732 -0.0043 -0.1013 -0.1956
20495W        W39349  15.389  12.335   2.274  0.1753  0.0283 -0.1025
20496W        W39350  13.635  17.633   0.792  0.0100 -0.0467  0.0998
20497W        W39351   3.662  17.616   0.082 -0.1039  0.2059  0.1457
20498W        W39352  15.674   6.740  14.441  0.1344  0.0670  0.0743
20499W        W39353   8.314   4.029  14.131  0.3181  0.3641 -0.0731
20500W        W39354  12.395   1.017   1.259 -0.3170 -0.0497 -0.0186
20501W        W39355  18.863  12.489   1.823  0.3975  0.1748  0.2897
20502W        W39356   0.997  12.279  13.514  0.1900 -0.0800  0.5296
20503W        W39357   0.437   8.831   3.958 -0.0489  0.0325 -0.2054
20504W        W39358  17.641  15.800   0.492 -0.0463 -0.0481 -0.0819
20505W        W39359  13.659  13.564   2.771  0.1285  0.0547  0.2008
20506W        W39360   0.148   5.511  10.429  0.1063 -0.1712  0.1191
20507W        W39361  13.127  18.905   2.639  0.4236 -0.0712 -0.0610
20508W        W39362   6.444  17.666  11.092 -0.1077  0.0271 -0.0901
20509W        W39363   0.117  10.100   2.761  0.0051  0.0185 -0.0098
20510W        W39364  19.024   9.927   1.960 -0.0093  0.0823 -0.1374
20511W        W39365   2.607   0.807   0.609 -0.0329 -0.2356 -0.0534
20512W        W39366  16.476  17.048   2.555  0.1598 -0.0273  0.2662
20513W        W39367  18.895   4.275  13.477  0.1017  0.0575  0.1737
20514W        W39368   4.810  15.941  13.873 -0.3208  0.2404  0.6617
20515W        W39369  12.015   1.159  13.524 -0.0835  0.0119 -0.2456
20516W        W39370   0.554  11.527   0.519 -0.2600 -0.2862 -0.0959
20517W        W39371   7.561   1.404   9.706  0.2019 -0.1357  0.1387
20518W        W39372  11.860  10.893   1.434  0.0523  0.2676 -0.2501
20519W        W39373  18.079   7.065   3.449 -0.1978  0.0320 -0.2083
20520W        W39374  18.436  12.728  10.712  0.1193 -0.1009 -0.0684
20521W        W39375   7.576  12.608  13.247 -0.0069  0.0453  0.0887
20522W        W39376   4.076   5.300  14.234  0.2413 -0.0978  0.0134
20523W        W39377  16.787  10.259  14.001  0.1456  0.0075 -0.1731
20524W        W39378  17.727  12.389  10.404 -0.1848 -0.1388 -0.2325
20525W        W39379  14.652   4.014   3.998 -0.1188  0.1931 -0.1182
20526W        W39380  13.568  17.579  14.469 -0.1427  0.1150  0.0686
20527W        W39381   8.347  17.711  13.891 -0.0007 -0.0673  0.0091
20528W        W39382   8.310  14.876  12.848  0.0745 -0.2132  0.2784
20529W        W39383  13.402   7.956  12.666  0.0118 -0.1131 -0.0837
20530W        W39384   1.185  16.320  13.328 -0.0796 -0.3828  0.2405
20531W        W39385  14.936   5.019   2.153  0.0972 -0.0649  0.2498
20532W        W39386   6.454   5.080  12.407 -0.0826 -0.0915 -0.0715
20533W        W39387  13.925   1.880  13.429 -0.1650  0.2342 -0.2234
20534W        W39388   7.999   6.607  14.435 -0.1675 -0.1724 -0.1194
20535W        W39389   4.520   7.142  13.069 -0.1612 -0.0045 -0.1257
20536W        W39390   2.295  12.335   5.396 -0.0174 -0.0859 -0.1375
20537W        W39391   4.139   9.095  12.390  0.3634 -0.1535  0.0132
20538W        W39392   8.685   9.742   2.270  0.1522 -0.1267  0.0216
20539W        W39393  15.349   4.972   1.669 -0.3160 -0.2659  0.2402
20540W        W39394  10.023   2.960   5.295  0.2505 -0.1079 -0.1101
20541W        W39395  11.673   8.495  13.484 -0.0778 -0.1813  0.1104
20542W        W39396   0.379  17.994  14.569 -0.0944 -0.2739 -0.2824
20543W        W39397  15.138   5.285   4.573 -0.0103 -0.0002  0.1201
20544W        W39398  10.022   9.584  11.556  0.1181 -0.0540 -0.2572
20545W        W39399   2.472   7.285   1.258 -0.1112 -0.0815  0.0970
20546W        W39400  12.574  10.068  13.132 -0.0394 -0.0892 -0.1606
20547W        W39401   7.989   4.498   1.107 -0.0273  0.4672 -0.0688
20548W        W39402  13.066  17.011   0.957 -0.0190  0.3614 -0.0507
20549W        W39403  13.497  15.939  12.755 -0.3426 -0.0649 -0.1496
20550W        W39404  13.754   9.430   1.343  0.1815 -0.1172  0.2137
20551W        W39405   3.963   1.524   1.769 -0.2294  0.1072 -0.1980
20552W        W39406  12.908  13.592  11.593 -0.1260 -0.4424 -0.0609
20553W        W39407  18.353   5.104  11.110 -0.2187 -0.2073  0.2138
20554W        W39408  18.892   1.808   2.024  0.2217 -0.1299 -0.1254
20555W        W39409   3.041   0.586  12.737 -0.3230 -0.0262  0.0743
20556W        W39410  10.674   6.308   4.126 -0.0000  0.0394  0.0833
20557W        W39411  16.174   8.666  12.289 -0.1679 -0.0467 -0.1916
20558W        W39412  11.538   1.721  12.228  0.0384 -0.0956 -0.1142
20559W        W39413   7.033   5.616  11.348 -0.0920  0.0350 -0.0479
20560W        W39414  17.328  13.028   4.067 -0.3497 -0.0099  0.0350
20561W        W39415  18.519   3.000  12.866  0.0087 -0.3683 -0.2169
20562W        W39416  18.731  17.190   2.592  0.2899 -0.1432 -0.2240
20563W        W39417  14.630   0.073   2.043  0.2452 -0.0974  0.0998
20564W        W39418  16.867  13.671   2.162 -0.4191 -0.0859 -0.3539
20565W        W39419   9.576  13.469  13.422 -0.0108  0.1549  0.1438
20566W        W39420   1.901  10.740  12.788 -0.2126  0.0125  0.0745
20567W        W39421   7.818   3.981   1.283 -0.0692 -0.0889 -0.0644
20568W        W39422  12.693  11.856  13.013  0.3286  0.0551 -0.2277
20569W        W39423  11.981  15.699   1.016  0.0904  0.0831  0.1401
20570W        W39424  13.012   3.225   0.918  0.0593 -0.1305 -0.3112
20571W        W39425  16.887  11.824  14.728  0.2148  0.1437 -0.1634
20572W        W39426  13.829   8.154   3.291 -0.1117 -0.2988 -0.1379
20573W        W39427  11.423  18.990   1.469  0.1643  0.2670 -0.3596
20574W        W39428   6.375  12.354   3.928 -0.1765  0.1614  0.0046
20575W        W39429  11.403   7.501   9.727 -0.2015  0.1138  0.0185
20576W        W39430   9.574   2.196   3.522  0.1877  0.2387 -0.0514
20577W        W39431   0.550   8.781  13.028  0.0134 -0.2949 -0.1386
20578W        W39432  17.869  10.543   3.862  0.1292 -0.1793  0.0941
20579W        W39433   8.547  18.279  11.676 -0.1782 -0.0565 -0.0812
20580W        W39434   0.732   4.655  14.702 -0.3572  0.0046 -0.0426
20581W        W39435  10.161  11.964   0.642  0.2259 -0.1127 -0.0987
20582W        W39436  11.582   8.922  13.908 -0.0373  0.4122 -0.2377
20583W        W39437   2.517   8.418   0.418  0.0482  0.0964  0.1116
20584W        W39438  15.690  15.008   0.295 -0.3331  0.0194 -0.1709
20585W        W39439   9.372  18.225   1.986 -0.1431  0.1107 -0.4329
20586W        W39440  13.075   4.665   1.824  0.4070 -0.1014 -0.0169
20587W        W39441  15.373   5.007  11.938  0.1458  0.0772 -0.1945
20588W        W39442   2.651  17.769   4.542 -0.0079 -0.1997 -0.0646
20589W        W39443  10.487   8.863   2.065  0.0222 -0.1987 -0.0457
20590W        W39444  17.656  16.473   3.132 -0.0593  0.1992 -0.0633
20591W        W39445   4.882  17.089   1.797  0.2028  0.2735  0.0653
20592W        W39446   3.562   4.392  13.536  0.0857  0.0736  0.0744
20593W        W39447  17.143   6.500   5.379  0.0395 -0.1213  0.0236
20594W        W39448   8.544   6.254   3.714 -0.0312  0.1018  0.0663
20595W        W39449   6.990   6.134   4.034  0.2682  0.1740  0.0861
20596W        W39450  14.853  18.932  11.123  0.1625  0.0313 -0.1715
20597W        W39451   7.592   5.858   0.711  0.3008  0.0245 -0.2313
20598W        W39452  12.973  14.336   0.865  0.0227 -0.2062 -0.0716
20599W        W39453  13.180   1.599  12.774 -0.0400 -0.2513  0.2441
20600W        W39454   2.076   7.083   0.914 -0.1609  0.1296 -0.1245
20601W        W39455  17.480   3.812   1.404  0.1027  0.1669 -0.2080
20602W        W39456  16.629   0.323   3.793 -0.1513  0.0049 -0.0328
20603W        W39457   3.695  15.110  12.214  0.2262 -0.0356 -0.1215
20604W        W39458   6.150  18.094  10.105  0.0980 -0.2884 -0.0653
20605W        W39459   8.036   7.856  13.425 -0.1861  0.0419 -0.1812
20606W        W39460  12.970  15.645   0.941 -0.2505  0.3523 -0.0796
20607W        W39461  12.778   0.452  13.237 -0.2868 -0.1281 -0.0276
20608W        W39462   6.718   1.903  13.408 -0.0615 -0.1390 -0.3058
20609W        W39463   1.618   7.371   4.722  0.1979  0.0549  0.2331
20610W        W39464  10.844   9.137   4.433  0.0867  0.3838 -0.0924
20611W        W39465   2.139  17.787   0.136 -0.3266 -0.0244 -0.3653
20612W        W39466   0.028   4.734   4.161 -0.1264 -0.0514 -0.2661
20613W        W39467  10.958   8.862  13.108 -0.1579  0.0825  0.2303
20614W        W39468   1.479   6.142   0.897  0.2097  0.2312  0.2305
20615W        W39469  16.866  17.817   0.519 -0.1591 -0.1432  0.2455
20616W        W39470  11.577   8.457  11.644 -0.2987 -0.1335 -0.0480
20617W        W39471  16.244   0.724  13.483  0.0642  0.1322 -0.1674
20618W        W39472  16.106  15.064  11.748  0.0772  0.0948 -0.0570
20619W        W39473  14.871   5.859   2.052  0.1388 -0.1278  0.1515
20620W        W39474   0.304  12.440   2.829  0.0807 -0.0433  0.2608
20621W        W39475   0.490  10.579  11.103  0.2883  0.0279  0.0005
20622W        W39476   0.004  12.641  11.671 -0.2639  0.1903 -0.5298
20623W        W39477  13.376   0.195   2.685 -0.1296 -0.0570  0.0850
20624W        W39478  18.091  15.064  11.701 -0.1159  0.2456  0.2700
20625W        W39479   3.997   1.186  14.231 -0.0475 -0.1736  0.0153
20626W        W39480  16.864  12.957   2.102 -0.0099  0.0619 -0.0234
20627W        W39481   7.872   1.175   2.808  0.2886 -0.1416  0.3820
20628W        W39482   7.422   9.355  14.724 -0.0544 -0.0845  0.1401
20629W        W39483  13.240  11.453   3.384  0.0828 -0.0465 -0.3393
20630W        W39484   5.208  13.574   4.687  0.0501  0.2044  0.2244
20631W        W39485   7.477   2.754   9.423  0.1748 -0.1590  0.1025
20632W        W39486  18.962   2.961  12.519  0.0288 -0.1667  0.2441
20633W        W39487  15.410   6.867   0.174 -0.0788 -0.0313  0.1175
20634W        W39488   3.297  17.796   4.009  0.0625  0.0995  0.1163
20635W        W39489  16.969   6.293   2.646  0.3261  0.0338 -0.0805
20636W        W39490  18.249  10.120   1.929 -0.0733  0.2689  0.0812
20637W        W39491  18.789  14.863  12.322 -0.2436  0.2726  0.1246
20638W        W39492  13.553   9.033  13.671 -0.2081  0.0589  0.1114
20639W        W39493  18.008   3.736  11.735 -0.1267  0.1103 -0.0518
20640W        W39494  17.751   3.703  14.179 -0.1854  0.0394 -0.0363
20641W        W39495   5.560   0.963   3.134  0.3232  0.1400  0.3183
20642W        W39496   5.424   4.806   1.591 -0.2416 -0.5033  0.0326
20643W        W39497   0.637   7.937   2.637 -0.1303  0.0012  0.2905
20644W        W39498   7.502   3.184  10.451  0.5389 -0.3577  0.1656
20645W        W39499  13.486  16.996   2.154  0.4524  0.1176 -0.2703
20646W        W39500   4.387   3.015   4.411 -0.4342  0.1027  0.2828
20647W        W39501  10.212  10.368   1.512  0.0294  0.2949  0.1031
20648W        W39502  12.528   3.777   3.269 -0.0892  0.1069  0.3687
20649W        W39503   4.818  14.590  12.426  0.2211 -0.1211  0.1756
20650W        W39504  11.189   2.031  12.015 -0.0601  0.3904 -0.1297
20651W        W39505  14.964  15.766  14.201 -0.1763 -0.0731 -0.0491
20652W        W39506   2.603   6.883  13.319 -0.0447 -0.0198 -0.0425
20653W        W39507   0.084   2.526  11.907 -0.2472 -0.0592  0.2757
20654W        W39508  10.535   2.246   0.096  0.0670  0.2191 -0.2484
20655W        W39509   9.932  15.646   2.217 -0.0861 -0.0152  0.0290
20656W        W39510  14.402  13.658  10.679 -0.0997 -0.0544 -0.0362
20657W        W39511   8.253   9.059   3.888 -0.0971  0.1925  0.3560
20658W        W39512  10.675  12.241   4.224  0.2774  0.0023  0.0495
20659W        W39513   9.418   7.440   1.856 -0.1588 -0.3498 -0.4606
20660W        W39514   7.685  11.654   2.381 -0.2248 -0.1862 -0.3340
20661W        W39515   1.553   7.440  12.834  0.0081 -0.0344  0.1168
20662W        W39516   7.585   6.824  13.655  0.1236  0.0638  0.3273
20663W        W39517   7.355   0.018   1.933  0.0486 -0.1913  0.1149
20664W        W39518  16.353  12.968   2.237  0.0064 -0.0574  0.2498
20665W        W39519  12.747  16.682   0.168  0.1333 -0.1658 -0.1134
20666W        W39520   7.149   5.377   0.608 -0.1396  0.1656  0.0603
20667W        W39521   8.845  11.536  12.984 -0.0282  0.1760  0.1371
20668W        W39522   8.885  10.526   3.902 -0.0080 -0.1445  0.3279
20669W        W39523   9.706  18.594  10.739  0.0473 -0.1267 -0.2803
20670W        W39524   6.781  13.088  14.470 -0.1271  0.1604  0.1741
20671W        W39525  15.199  13.819  12.265  0.0480 -0.2070 -0.1089
20672W        W39526   5.782   4.277   9.381 -0.0742  0.3504 -0.0227
20673W        W39527   3.577  10.969   4.010 -0.2798  0.0661  0.0608
20674W        W39528   9.563  17.897  12.994 -0.1858  0.2475  0.0593
20675W        W39529   8.444   8.546   0.063 -0.2816  0.2115  0.1157
20676W        W39530  14.802   0.248   1.611 -0.4037  0.0842  0.0509
20677W        W39531   8.674   6.128   3.231  0.4164  0.0167 -0.2473
20678W        W39532  10.456  16.995  14.474  0.2981  0.1193  0.1371
20679W        W39533  18.232  11.734  13.705 -0.0119 -0.1603  0.2346
20680W        W39534  16.286   6.377   3.098  0.0285  0.2240 -0.0052
20681W        W39535   4.809   0.430  11.777  0.0408  0.1333 -0.0633
20682W        W39536  15.166   5.506  13.364 -0.1729  0.0505  0.0893
20683W        W39537  18.529  18.252  13.208 -0.3686  0.2114 -0.3759
20684W        W39538   1.159  11.160   1.448 -0.0228  0.2472  0.3687
20685W        W39539   3.558  10.890   0.046 -0.0015  0.4580  0.0906
20686W        W39540  10.140   6.815   2.085  0.0517 -0.1102  0.2049
20687W        W39541  17.543  11.853   0.141 -0.1361  0.1212  0.0006
20688W        W39542   7.510   9.253  13.475  0.4557 -0.0947  0.0335
20689W        W39543   0.237   6.721  13.164 -0.0871  0.1188 -0.0394
20690W        W39544   7.224   3.438   3.991  0.2490  0.3207 -0.1697
20691W        W39545   6.129   6.324   2.929 -0.3210  0.2903  0.2379
20692W        W39546  13.911   6.032   2.368 -0.0297 -0.1773  0.3623
20693W        W39547   9.952   6.687   2.880  0.0237 -0.0125  0.0385
20694W        W39548   8.015  10.578  10.363 -0.2995 -0.4516 -0.0578
20695W        W39549  15.621  12.989   4.072 -0.0866  0.0255 -0.1067
20696W        W39550  15.985   4.666  11.431  0.1898  0.0953  0.0490
20697W        W39551  10.432   8.796   4.257 -0.0415 -0.5103  0.2061
20698W        W39552   8.042  16.345   0.280  0.2753 -0.2972  0.0121
20699W        W39553   2.980  18.977  11.667  0.3047  0.1832 -0.2592
20700W        W39554  17.175   3.039  10.546 -0.1191  0.0535 -0.1056
20701W        W39555  11.130   0.186   1.119 -0.0190  0.1082 -0.0288
20702W        W39556  15.980   0.439   2.725  0.0005 -0.2461 -0.1557
20703W        W39557  13.141   4.849   0.405 -0.0890  0.0093  0.1633
20704W        W39558  17.065  17.625   3.038  0.0897 -0.3556  0.2371
20705W        W39559   0.081  16.703  10.881  0.1451 -0.2631 -0.0564
20706W        W39560  18.272   3.226  14.131 -0.1040 -0.0539 -0.2470
20707W        W39561   7.154   0.084   3.605 -0.1816  0.1686  0.0881
20708W        W39562  14.235  19.060   1.817 -0.1161  0.0182  0.1731
20709W        W39563   2.475   1.103  11.970  0.2886  0.0604 -0.0954
20710W        W39564   6.710   0.479   2.675  0.1196 -0.1348 -0.0956
20711W        W39565   1.670  17.298   5.021  0.1401  0.2491  0.0758
20712W        W39566   5.410  16.690  14.573 -0.1522  0.0688  0.1483
20713W        W39567  17.332  15.935   2.579  0.0698  0.3055  0.2619
20714W        W39568   5.032   8.998  11.892 -0.0409 -0.0531 -0.0450
20715W        W39569   1.047  12.251  12.991  0.0861 -0.1132  0.0595
20716W        W39570   9.251   5.401  12.416 -0.1542 -0.1368  0.1199
20717W        W39571  14.039   2.253   0.529 -0.1166 -0.1346 -0.1835
20718W        W39572   7.858   7.111  11.429  0.1682 -0.1952  0.0722
20719W        W39573  17.858   0.146   0.972  0.1934 -0.0276  0.1369
20720W        W39574   8.351  12.668  10.762  0.0073  0.2839 -0.1398
20721W        W39575  15.929   6.295   0.944 -0.1235 -0.0598  0.0967
20722W        W39576   5.169  13.379   1.562 -0.0974  0.0416 -0.0754
20723W        W39577  12.229  17.856   1.621  0.1758 -0.0611  0.0062
20724W        W39578   1.239   8.744  11.070  0.0630 -0.0831  0.3591
20725W        W39579  11.661   8.173  13.040  0.0512  0.0228 -0.1098
20726W        W39580   6.436   3.647  14.649 -0.1459  0.0210 -0.0617
20727W        W39581  14.951  14.510   1.578 -0.1235  0.0436 -0.1035
20728W        W39582   9.029  12.139  14.115 -0.0501 -0.0832  0.2522
20729W        W39583  13.400   7.737  13.416 -0.2443 -0.2378 -0.0028
20730W        W39584  19.067   0.045  14.406  0.1988  0.0808  0.1369
20731W        W39585  13.578   3.189  13.149 -0.1977 -0.2964 -0.0510
20732W        W39586  17.349   3.719  13.203 -0.2652  0.0543  0.0476
20733W        W39587   6.023   5.631   4.057 -0.2277  0.1170 -0.1368
20734W        W39588   7.205   6.431  14.312  0.0987  0.0664 -0.0921
20735W        W39589   8.362  12.632   2.083 -0.0972 -0.2583 -0.2605
20736W        W39590  18.316  18.282   4.618  0.0579 -0.0363  0.0201
20737W        W39591  14.925  12.283   0.098 -0.2532 -0.2792 -0.0541
20738W        W39592   9.018   6.579  13.829 -0.0133 -0.2761  0.3645
20739W        W39593  11.358  10.475  14.587 -0.0328  0.1476 -0.2508
20740W        W39594  17.400  11.322   5.307 -0.2275  0.1358  0.0247
20741W        W39595   1.726   7.623   3.245  0.0983  0.2055 -0.2710
20742W        W39596  13.899   3.686  10.530 -0.1497  0.0232 -0.1070
20743W        W39597  10.536   9.996  14.456 -0.1494  0.0660 -0.0848
20744W        W39598  17.237  13.721  10.753  0.1447  0.3718 -0.0754
20745W        W39599  16.673  15.845   0.259  0.1808 -0.3836  0.2910
20746W        W39600   4.996   8.107  11.154 -0.2576  0.0200  0.2084
20747W        W39601  13.368  19.070   0.865 -0.3289 -0.0287 -0.3108
20748W        W39602  18.475  15.496   0.169 -0.0668 -0.1727  0.2040
20749W        W39603  10.571  10.059  12.212  0.0568  0.1743 -0.0324
20750W        W39604   8.877   7.554  11.840  0.2278  0.2425  0.0204
20751W        W39605   2.167   5.643   1.350  0.2175 -0.0497  0.3510
20752W        W39606  11.214   2.754  14.216  0.0184 -0.0523 -0.0541
20753W        W39607  13.031  17.830   0.278 -0.1642 -0.0471 -0.1954
20754W        W39608  16.015   8.393  11.380  0.2104  0.2976 -0.2529
20755W        W39609  15.854   3.015   0.053  0.2475  0.2230  0.1590
20756W        W39610  14.619  16.154  11.831  0.3844  0.4919  0.4759
20757W        W39611   9.814   0.037  13.990  0.0716  0.0007  0.0236
20758W        W39612   7.145  15.093   1.613  0.0281 -0.1286  0.2771
20759W        W39613  13.852  15.904  10.424  0.1407  0.0049  0.1004
20760W        W39614   9.719   1.620  13.790  0.2404  0.1974 -0.1418
20761W        W39615   0.654   8.830   1.096 -0.0609  0.1753  0.0046
20762W        W39616  12.004   3.331  10.303  0.2163  0.0486  0.2504
20763W        W39617   2.839  13.003  12.442 -0.0250 -0.0537 -0.1885
20764W        W39618   9.470  12.145  14.655 -0.1595 -0.1568 -0.1013
20765W        W39619  17.849   2.591  14.755 -0.3479 -0.0991  0.0443
20766W        W39620  14.373  18.984   3.427  0.0731 -0.1579  0.1129
20767W        W39621  12.687  16.694   2.520 -0.0750 -0.2111  0.0793
20768W        W39622   1.857   1.056   0.252 -0.0168  0.0830 -0.0816
20769W        W39623   1.596  14.323  14.227 -0.0845 -0.0830 -0.0638
20770W        W39624   8.737  14.430   2.224 -0.1185  0.0152  0.3625
20771W        W39625   7.986   4.327   0.284 -0.0714  0.2384  0.1752
20772W        W39626   9.358  12.321   9.646  0.1265 -0.1662  0.3179
20773W        W39627   8.738  14.432  12.188  0.1219 -0.2921 -0.2705
20774W        W39628  13.900  14.109  10.156  0.0563 -0.0124 -0.2484
20775W        W39629   1.827  13.275  12.638  0.0072  0.1399  0.2543
20776W        W39630   3.551   5.669  11.779  0.2665  0.0325 -0.1047
20777W        W39631   4.139  11.527   1.395 -0.1265 -0.2676  0.0702
20778W        W39632   2.562   9.559   1.981 -0.1467 -0.0492  0.0613
20779W        W39633   5.011   0.889   4.106 -0.0545  0.3060  0.0522
20780W        W39634  13.327   9.877  11.985  0.2064  0.1063  0.2490
20781W        W39635   1.501   9.387   2.640  0.1016  0.3572 -0.2668
20782W        W39636   3.623   4.181   1.465 -0.0892  0.0786 -0.2026
20783W        W39637  12.468   3.534   2.223 -0.0443  0.1471  0.1837
20784W        W39638   8.819  16.941  10.325  0.1324  0.0470  0.1605
20785W        W39639  17.277   9.417  13.660 -0.0612 -0.2873 -0.4755
20786W        W39640   0.536   8.955  12.566  0.0225  0.2228 -0.1510
20787W        W39641  11.575  17.682  11.641  0.3787  0.0570  0.0422
20788W        W39642   6.353  14.112   3.384  0.1652  0.0791  0.1606
20789W        W39643  12.054   2.204   1.483 -0.4790  0.1560  0.0954
20790W        W39644   7.606  16.889   1.017  0.2108  0.1436  0.2941
20791W        W39645   8.875   5.579  14.235  0.2904 -0.3327  0.1092
20792W        W39646   1.100   3.977   3.224 -0.0741 -0.1524  0.1192
20793W        W39647   3.372   5.136  13.056  0.0193  0.1832 -0.0185
20794W        W39648   2.752   5.256   4.095 -0.2634  0.0580 -0.0412
20795W        W39649   8.368   0.922  12.376 -0.0906  0.0937 -0.2868
20796W        W39650  15.702  18.834  13.261  0.2160 -0.2724  0.2835
20797W        W39651   3.003   5.104  12.133  0.1354  0.1109 -0.3048
20798W        W39652   5.189   2.775   1.159 -0.2986  0.0847 -0.0337
20799W        W39653  12.406  17.054   1.263  0.0462 -0.0858 -0.1039
20800W        W39654  12.432   2.697  13.767  0.2165 -0.0285 -0.1234
20801W        W39655  13.413  11.773   0.583  0.1539  0.2122 -0.0675
20802W        W39656  17.688  11.993  12.403 -0.0436 -0.0493  0.1141
20803W        W39657  18.293   1.345  13.824 -0.1886  0.1745 -0.2006
20804W        W39658   9.905  12.239  12.492 -0.1177  0.1568  0.0532
20805W        W39659   8.340   8.742  11.337 -0.0867 -0.1973 -0.1433
20806W        W39660  15.982   7.080  11.476  0.2214  0.2298 -0.1516
20807W        W39661  17.540   1.829  10.140 -0.0353 -0.0599 -0.2036
20808W        W39662  17.645   7.156   2.806  0.0794  0.0472  0.0440
20809W        W39663   4.215  10.792   0.165  0.2959 -0.2586 -0.0429
20810W        W39664   8.775  14.461  11.150 -0.0245 -0.0906  0.3388
20811W        W39665   3.368   6.420   4.312 -0.2029  0.3479 -0.1536
20812W        W39666  14.265  17.856  12.320  0.0868 -0.0517  0.1448
20813W        W39667  13.104   5.281  11.312  0.2064 -0.5124  0.0812
20814W        W39668  17.413  15.706   9.732 -0.1524  0.1982 -0.1164
20815W        W39669  17.430  12.018  11.905 -0.1071 -0.4950 -0.0607
20816W        W39670   2.542  11.243   3.540  0.1986  0.1792 -0.0244
20817W        W39671   7.154  13.086  13.040  0.0341  0.2462 -0.2641
20818W        W39672   7.848   9.136   2.877  0.2900 -0.0990 -0.0216
20819W        W39673   4.965   4.463  13.089  0.0196 -0.2423  0.2431
20820W        W39674   8.672  12.277   3.695 -0.2818  0.2510  0.0060
20821W        W39675  16.368   7.280  14.780 -0.0509  0.1351 -0.0478
20822W        W39676   6.761   8.950  14.745 -0.0617 -0.1390  0.0811
20823W        W39677  19.028  16.614   0.506  0.1467  0.0511  0.0477
20824W        W39678  15.146   6.844   2.315 -0.1503  0.0418  0.1612
20825W        W39679   4.078  13.927  14.602 -0.0665 -0.0907  0.0685
20826W        W39680  11.196   7.735   1.009  0.1590 -0.2571 -0.4137
20827W        W39681   1.541  14.878   3.665 -0.0426  0.0880  0.1244
20828W        W39682  11.474   5.557   1.794  0.1778 -0.0812  0.0354
20829W        W39683   9.798  16.239   2.363 -0.1645 -0.2123 -0.0769
20830W        W39684   5.517  13.380   1.933  0.1282 -0.1820  0.0929
20831W        W39685   8.944  11.373   3.538 -0.1311 -0.1896  0.1870
20832W        W39686   3.628   6.496   1.298  0.3389  0.1398 -0.3286
20833W        W39687  13.559   0.093   1.302  0.1909 -0.0248  0.0504
20834W        W39688  12.937   2.443  13.595 -0.0132  0.0872  0.1641
20835W        W39689   8.889   4.170   4.238 -0.1656 -0.3084 -0.1961
20836W        W39690   8.126   5.466   0.964 -0.0618  0.2487  0.0490
20837W        W39691   8.431  18.076   0.675 -0.1580  0.1444 -0.2224
20838W        W39692  18.275  15.181  11.271 -0.3661 -0.1416  0.0348
20839W        W39693  16.227  11.446   3.595 -0.0407  0.0088  0.0914
20840W        W39694  14.448   8.435   4.308 -0.0372 -0.2079 -0.2862
20841W        W39695  14.628  15.958  10.230 -0.3036 -0.1480 -0.2247
20842W        W39696   2.804  15.478   2.249 -0.2542  0.2791  0.3309
20843W        W39697   3.626  14.825   0.729  0.1093 -0.2631  0.3171
20844W        W39698   1.092  15.149   2.812 -0.1462  0.1903 -0.2722
20845W        W39699  10.801   5.302   4.391  0.1271 -0.0600 -0.2634
20846W        W39700  10.707   4.292   0.323  0.2250  0.1816  0.0677
20847W        W39701   6.282  10.755  11.741 -0.1110  0.0559 -0.3154
20848W        W39702   0.024  16.593   1.930  0.2671  0.0848  0.0550
20849W        W39703  16.398   4.349   2.048 -0.2227  0.0037  0.2993
20850W        W39704  10.898  13.097   3.924  0.0517  0.3414 -0.0525
20851W        W39705  12.613  11.315  13.965  0.0270  0.0434  0.4862
20852W        W39706  15.023   8.911   3.467 -0.1396  0.0866 -0.2354
20853W        W39707  15.686   6.975   1.991  0.1994 -0.1222  0.0925
20854W        W39708  14.321   0.446   1.895 -0.0512 -0.1292  0.2124
20855W        W39709   0.030  11.722  10.918  0.2273  0.1812 -0.0601
20856W        W39710   7.825   8.383   4.433 -0.3486 -0.3234  0.1875
20857W        W39711   9.391  11.621   1.260  0.0949 -0.2300 -0.3981
20858W        W39712   9.228  17.301   1.703 -0.2803  0.0692  0.3515
20859W        W39713   0.877   8.388   1.351  0.0342 -0.1168 -0.2525
20860W        W39714   4.515   3.911  14.621  0.3332  0.0446  0.2742
20861W        W39715  12.854   1.710  11.204  0.1755 -0.0145  0.0431
20862W        W39716   2.624   7.888  11.669 -0.0478 -0.0959  0.2738
20863W        W39717   3.189  17.478  13.521  0.2646  0.2972 -0.1345
20864W        W39718   9.114   9.871   0.515 -0.0803 -0.0244 -0.0882
20865W        W39719   5.704   6.047   3.156  0.0364  0.0705 -0.4493
20866W        W39720   3.458   5.989  13.568  0.0061  0.0259 -0.0542
20867W        W39721   7.931  18.773  13.272  0.0190  0.2058 -0.1492
20868W        W39722  17.239  18.471   4.000  0.0164 -0.1830 -0.2223
20869W        W39723   4.799   2.784  12.648 -0.0299  0.0218 -0.1925
20870W        W39724   9.628   0.370   1.946 -0.0975  0.4914 -0.2611
20871W        W39725   9.473   2.400  14.219 -0.0236  0.1228  0.0623
20872W        W39726   5.884  16.384  14.702  0.0510  0.1829  0.1770
20873W        W39727   6.344  16.948   3.733  0.0838 -0.1381  0.2567
20874W        W39728  13.597   6.335  12.791 -0.4465 -0.0811  0.1634
20875W        W39729   0.043   3.340   0.687  0.2240  0.1881 -0.0623
20876W        W39730  18.039   6.182  11.011  0.0393 -0.0432  0.1245
20877W        W39731   8.264  13.753  13.162 -0.1384 -0.0087  0.2671
20878W        W39732   9.312  17.854  13.415 -0.0377  0.1995 -0.2420
20879W        W39733   8.343   8.552   3.950  0.0132  0.2123 -0.0522
20880W        W39734  15.396   0.089  12.638 -0.1176  0.1271  0.1550
20881W        W39735  13.014   4.850  12.094  0.0979  0.3204 -0.0393
20882W        W39736   0.569  11.421   1.036 -0.0165  0.1118  0.3540
20883W        W39737   8.954   6.110   3.981 -0.2596  0.0768 -0.4311
20884W        W39738   7.644  14.484   0.844 -0.3163 -0.4631  0.2130
20885W        W39739  11.516   5.827   3.010  0.1645 -0.1164  0.0727
20886W        W39740   2.928   0.183  13.895  0.0455  0.0954 -0.2525
20887W        W39741  18.226  15.579   0.860  0.1396 -0.2835 -0.2552
20888W        W39742   9.211   7.501  12.691  0.1075 -0.2466 -0.0203
20889W        W39743   0.015  18.850  12.140 -0.1307  0.0532  0.1973
20890W        W39744   6.193   1.567   1.791 -0.0428 -0.2860  0.3332
20891W        W39745  14.587  12.187  12.681  0.1332  0.0426  0.0809
20892W        W39746  10.692  17.540  12.315  0.4915  0.3053 -0.2893
20893W        W39747  14.405  12.292   2.422  0.1923 -0.0610  0.2140
20894W        W39748  12.772  13.596   2.892 -0.0738 -0.1484 -0.0714
20895W        W39749   1.421  15.465   0.457 -0.1658 -0.1883  0.0266
20896W        W39750   0.668   3.060  13.510  0.1330  0.1062  0.0843
20897W        W39751  17.449   6.521   0.667  0.0512  0.0945 -0.1294
20898W        W39752   0.850  10.810  12.039 -0.0058  0.3042  0.1356
20899W        W39753  15.192  18.490  10.300 -0.3526 -0.0328  0.1332
20900W        W39754   1.881   9.423  12.159 -0.2852 -0.0879  0.2205
20901W        W39755  17.271  12.379   3.112  0.0810  0.1421 -0.2877
20902W        W39756  11.643   0.101  14.492 -0.1183  0.0633 -0.1687
20903W        W39757  17.142   2.256  13.355  0.1098  0.2415 -0.0966
20904W        W39758  16.436   1.412  13.379 -0.0396  0.1296 -0.0828
20905W        W39759   4.759  16.468  13.836  0.0889  0.1146 -0.0181
20906W        W39760   5.316  11.280  14.141  0.1503 -0.0199 -0.2886
20907W        W39761  10.061  12.376   0.266  0.0748 -0.0841 -0.0240
20908W        W39762   2.528   3.664   2.717 -0.0351  0.1275 -0.0517
20909W        W39763   2.822   3.012  11.753  0.2852 -0.2088  0.1048
20910W        W39764  14.174  17.569   3.137 -0.1658  0.4176  0.0537
20911W        W39765  13.870   5.110   1.678 -0.0204  0.3418 -0.1264
20912W        W39766   4.727   9.445  13.853  0.0128 -0.0550  0.0304
20913W        W39767   9.761   8.391  12.352  0.1223 -0.0085  0.0267
20914W        W39768   5.007  16.562  14.319  0.0948  0.0689  0.0853
20915W        W39769   1.255  14.177  12.334  0.0994 -0.0072 -0.1669
20916W        W39770   0.716   5.904   4.408 -0.2077  0.4502  0.4358
20917W        W39771  18.034  16.304  10.874  0.0712 -0.1735  0.0279
20918W        W39772  14.975  13.581   1.691  0.0537 -0.1602 -0.0588
20919W        W39773  10.696   6.349  12.458 -0.1310 -0.0461  0.4796
20920W        W39774  12.016  15.977   4.676  0.0551  0.1733 -0.0370
20921W        W39775   5.426  12.483   3.544  0.0810  0.0828 -0.0824
20922W        W39776   6.088  10.800   3.602  0.1378 -0.1276  0.1446
20923W        W39777  16.111   4.930  14.724  0.0574 -0.4202  0.3321
20924W        W39778   1.742   3.047   2.350 -0.0811 -0.1877 -0.0327
20925W        W39779  17.097   4.527  11.153 -0.2630  0.1011 -0.2555
20926W        W39780  10.927   1.167  12.493 -0.0495 -0.0808  0.0714
20927W        W39781   2.648   4.644  11.028  0.0338 -0.1334  0.2889
20928W        W39782   8.556  17.580   3.245  0.0702 -0.0140 -0.0940
20929W        W39783   4.351   8.800   4.932 -0.0759 -0.1200  0.0972
20930W        W39784   9.647   7.628  11.072  0.1462 -0.0653  0.1998
20931W        W39785   2.415  15.458   0.189 -0.0923 -0.2331  0.1512
20932W        W39786  17.062  12.371  13.145 -0.0702 -0.1173  0.2703
20933W        W39787   7.485   7.763   4.501 -0.0265 -0.2625 -0.1672
20934W        W39788   6.750  16.829   2.832 -0.3004  0.0639  0.3654
20935W        W39789  11.070   7.526   3.735 -0.4759  0.0542  0.1221
20936W        W39790   7.952   8.492  11.518  0.1581  0.0180  0.1926
20937W        W39791  10.096   3.203   3.998 -0.1724  0.1635 -0.0550
20938W        W39792   8.714  17.501  14.790  0.2443 -0.0668  0.0929
20939W        W39793   5.806  14.919   2.950 -0.3846  0.1907  0.0265
20940W        W39794   3.768  11.504   1.760  0.0278  0.1202  0.0941
20941W        W39795   0.497  16.014   0.747  0.2780  0.1427 -0.1358
20942W        W39796  12.939   3.374  14.030 -0.0878  0.3799  0.0304
20943W        W39797   2.021   2.984  13.965  0.2859  0.0908  0.0340
20944W        W39798  17.906   6.348  14.310  0.1535  0.2837 -0.2080
20945W        W39799  19.074   3.089   1.984 -0.2901 -0.1149 -0.1537
20946W        W39800  12.235  12.240  14.755 -0.0758 -0.3247 -0.0093
20947W        W39801   2.730   7.104   0.082  0.2983 -0.2919  0.1497
20948W        W39802   8.186  11.287  10.741  0.2497  0.0100  0.1978
20949W        W39803   1.513  14.023   2.028 -0.0576  0.2002 -0.0528
20950W        W39804   4.241   6.978  10.882  0.1393  0.2606 -0.2500
20951W        W39805  16.043  14.715   2.826 -0.2165  0.0340  0.0177
20952W        W39806  12.472   4.608  11.987 -0.2979  0.3195  0.2832
20953W        W39807   6.999   6.447  14.752  0.0204 -0.2533  0.1117
20954W        W39808  17.639   1.392  14.021  0.1219  0.1440  0.2720
20955W        W39809  18.874   2.836  14.513  0.2076  0.0173 -0.0151
20956W        W39810   1.320   1.414  14.277 -0.0689 -0.1687 -0.1941
20957W        W39811  10.697   0.659  14.790  0.2409 -0.0466  0.1915
20958W        W39812  11.251   4.416  11.425  0.0345 -0.1003  0.1647
20959W        W39813   1.473  12.811  12.307 -0.0521  0.2391  0.0130
20960W        W39814   2.305   1.210   0.419 -0.3850  0.1312 -0.0577
20961W        W39815  14.235  16.928  10.941  0.3098  0.1621  0.1325
20962W        W39816   5.066  13.287  12.272  0.0806  0.1386 -0.1327
20963W        W39817  14.816  15.507   9.849 -0.2173  0.2581 -0.2227
20964W        W39818  17.568   9.983   2.684 -0.0411 -0.0953 -0.0082
20965W        W39819  16.110   3.389   1.259  0.0275  0.2278 -0.0906
20966W        W39820  16.859  12.525  11.261  0.1865 -0.2232 -0.1542
20967W        W39821  13.114  12.409   2.279 -0.2019 -0.0872  0.0042
20968W        W39822   4.261   8.652   1.990 -0.1730  0.0140  0.3813
20969W        W39823   9.342   4.124   2.920 -0.0512 -0.2195 -0.0428
20970W        W39824  13.060  15.311  13.125 -0.2467 -0.0236 -0.1543
20971W        W39825  16.747  13.995  12.051 -0.1049 -0.1364  0.1536
20972W        W39826  11.944  19.005  14.160  0.1109 -0.1433  0.0257
20973W        W39827   7.255  14.337   1.125 -0.2559 -0.0121  0.0586
20974W        W39828   5.436   3.844   3.239  0.2383  0.3210  0.3968
20975W        W39829  17.410   3.654   5.158  0.0287 -0.3480  0.0365
20976W        W39830   2.463   0.537   2.957  0.1079 -0.1651  0.0717
20977W        W39831  15.795   2.680   0.412  0.0979 -0.3510  0.0116
20978W        W39832  13.032  14.854   0.105 -0.1566 -0.0308 -0.1757
20979W        W39833   3.934  12.471   3.995  0.1082  0.2164 -0.3007
20980W        W39834  18.997   9.424  11.102  0.1157  0.0206  0.0534
20981W        W39835  15.543   5.627   0.402  0.1096 -0.1116 -0.3004
20982W        W39836   5.164   5.149  13.719  0.1949  0.0227 -0.0324
20983W        W39837   9.073   8.015   3.881  0.1397 -0.0106 -0.0008
20984W        W39838  17.248  13.606  12.111  0.0422  0.0103  0.2157
20985W        W39839   2.009   7.870   0.238 -0.1836  0.2316 -0.0284
20986W        W39840  13.074  10.571  13.719  0.0658  0.0752 -0.1691
20987W        W39841  11.817  18.804   2.384 -0.2395  0.2117 -0.1939
20988W        W39842  12.514  14.473   1.065 -0.1437  0.0051  0.0598
20989W        W39843   9.622   4.222   1.301  0.0131 -0.1527 -0.2774
20990W        W39844   1.737   5.383   2.661 -0.2617  0.2835 -0.0717
20991W        W39845   9.751   0.379   5.309 -0.0621 -0.4866 -0.1080
20992W        W39846   2.722   6.271  11.235  0.1791 -0.2586 -0.0223
20993W        W39847  12.705  16.667   1.064  0.1631  0.3321 -0.3172
20994W        W39848   2.442  16.890   0.530 -0.1404 -0.3582  0.0132
20995W        W39849   2.110  12.641  13.527 -0.2239  0.4144 -0.1522
20996W        W39850  17.974   6.918   1.009  0.2101 -0.3009  0.0746
20997W        W39851   3.647   7.587   0.743 -0.2285 -0.4156 -0.2757
20998W        W39852   1.332  10.110  11.919 -0.2599  0.2443 -0.0358
20999W        W39853  10.059   3.241   2.908 -0.2580  0.1188 -0.3992
21000W        W39854   4.157   1.665   2.333 -0.0621 -0.0956 -0.3422
21001W        W39855   6.415  16.919  10.537 -0.0894  0.0766 -0.0093
21002W        W39856  11.535   7.907   4.527 -0.0566 -0.0194  0.0987
21003W        W39857  18.674   3.939  13.152  0.0837  0.3293 -0.0571
21004W        W39858  18.416  15.193   2.590 -0.1919  0.1968 -0.0209
21005W        W39859  18.529   3.361  13.191 -0.2453  0.2198 -0.0497
21006W        W39860  13.171  15.420   2.887  0.0236 -0.1033  0.2677
21007W        W39861  16.233   0.213   1.180 -0.0673 -0.0401 -0.0797
21008W        W39862   0.928  13.587   1.003  0.2851 -0.2847 -0.0061
21009W        W39863   1.652   0.636   0.494 -0.0153  0.0519  0.1844
21010W        W39864  13.997   2.334  10.954  0.2649 -0.1363 -0.2719
21011W        W39865   1.719  16.215   1.627 -0.1203 -0.1076 -0.0648
21012W        W39866  18.880  10.843   3.452 -0.0159 -0.1059  0.1459
21013W        W39867  17.617  18.010   0.071 -0.0119  0.1778  0.2341
21014W        W39868  12.882  17.148   2.377 -0.2887 -0.1861 -0.1016
21015W        W39869  19.001  18.240  13.250 -0.3355  0.0008 -0.0222
21016W        W39870  13.588   6.646  11.308 -0.1911  0.3544 -0.1619
21017W        W39871  15.307   4.928   4.864  0.2673  0.0395  0.1480
21018W        W39872   2.389  13.265  12.633  0.2887 -0.2367  0.0951
21019W        W39873  14.025  12.479   3.904 -0.0003 -0.3539 -0.1304
21020W        W39874  17.889   0.580  11.192 -0.1838  0.3702 -0.0837
21021W        W39875   3.042  17.941   1.746 -0.1512  0.2349 -0.0141
21022W        W39876   9.728  15.431  10.991 -0.0991  0.0572 -0.3126
21023W        W39877  15.505  18.913   3.205  0.0932 -0.1504  0.2779
21024W        W39878   1.505   4.197   1.775 -0.0413  0.2292 -0.0254
21025W        W39879  18.538  11.576   0.491 -0.3273 -0.2120 -0.0163
21026W        W39880  15.876   5.250   4.039 -0.1176  0.1955 -0.0404
21027W        W39881  12.235  10.458   4.520  0.1484  0.1748  0.1522
21028W        W39882  17.681  10.451  11.780  0.1264  0.0506 -0.3583
21029W        W39883  14.206   1.577  11.016 -0.2507 -0.0772  0.0311
21030W        W39884  15.613  12.681  11.021 -0.2083  0.1210 -0.1274
21031W        W39885  12.786  18.290   0.458  0.0329 -0.0446  0.5002
21032W        W39886  11.466  10.832  14.148  0.1028 -0.1387 -0.0628
21033W        W39887   3.257   1.421   1.032 -0.0389 -0.0521 -0.4294
21034W        W39888   0.699  11.463  10.554 -0.3953 -0.0376  0.2642
21035W        W39889   1.216   5.284  10.888 -0.4216  0.3667 -0.1926
21036W        W39890  14.575   4.496  10.636  0.0579  0.0280 -0.0317
21037W        W39891   2.763  14.452   3.014  0.0460  0.2236  0.4541
21038W        W39892   7.775  14.742   3.525  0.0088 -0.1092  0.0465
21039W        W39893   9.300  13.860   0.291  0.2519 -0.0432 -0.1497
21040W        W39894   2.175  16.137  13.261 -0.1293 -0.0809  0.3331
21041W        W39895   2.793  18.030   0.978 -0.1802  0.2566  0.1626
21042W        W39896   9.873  16.475  12.327 -0.2901 -0.0537 -0.1927
21043W        W39897  17.077  11.355  13.113  0.1402 -0.1029 -0.2328
21044W        W39898  16.868  10.406   3.078 -0.0134 -0.1395  0.0897
21045W        W39899  18.752   5.452  10.952 -0.0466 -0.0774 -0.0031
21046W        W39900   3.965  13.422  10.875  0.1278 -0.4419  0.0461
21047W        W39901   3.663   1.335  12.794 -0.0321  0.0952 -0.0835
21048W        W39902   5.758  10.033  10.873  0.0420  0.3558  0.0021
21049W        W39903   0.487   7.273  12.971 -0.0890 -0.2864  0.0220
21050W        W39904  18.556  14.243   1.528 -0.0071  0.0397  0.0308
21051W        W39905  15.010  14.174   4.383  0.2154  0.3620 -0.0133
21052W        W39906   4.061   4.429   1.487  0.3099  0.1359  0.0032
21053W        W39907   1.220   5.355   2.724  0.0394  0.0195 -0.1891
21054W        W39908   4.858  17.039  13.368  0.3211  0.1273 -0.4146
21055W        W39909   3.037  11.658   0.292  0.1866 -0.1755 -0.0333
21056W        W39910  11.891   1.845   1.008  0.0076 -0.1182 -0.2979
21057W        W39911   5.288   1.265  11.576  0.3988 -0.1940 -0.0176
21058W        W39912   5.778   9.607   1.431 -0.3862 -0.0039 -0.1045
21059W        W39913   7.839   0.680  11.372 -0.1743 -0.1229 -0.0335
21060W        W39914  15.385  10.748  12.938 -0.4005  0.0376  0.2459
21061W        W39915   8.931   7.531  13.606  0.1352  0.0208 -0.0403
21062W        W39916   4.019  14.545   1.012  0.0867 -0.0899 -0.0426
21063W        W39917   6.816   0.224  10.887 -0.3643 -0.2064  0.2143
21064W        W39918   1.886  16.295  14.637 -0.0251 -0.0163  0.1430
21065W        W39919  15.308   9.184  11.389 -0.2000  0.1416 -0.0403
21066W        W39920   2.470   2.781  13.794 -0.0270  0.0171  0.5154
21067W        W39921  10.020   1.504   9.957 -0.0626 -0.3863  0.1257
21068W        W39922   6.370   1.943   1.458 -0.0273  0.4183 -0.0308
21069W        W39923   5.429   0.632  13.715 -0.1794 -0.1005  0.4672
21070W        W39924   5.891  11.552   2.571  0.0314 -0.2658 -0.1018
21071W        W39925  15.952  18.050  13.242  0.1630  0.0652  0.1121
21072W        W39926   0.590  13.597   2.111 -0.3693  0.0553  0.3228
21073W        W39927  16.934   9.619   1.400  0.4302 -0.0499 -0.2930
21074W        W39928   7.161   4.491   2.831  0.1758 -0.2464  0.0199
21075W        W39929  14.416  18.443   3.489  0.3171 -0.0755 -0.0459
21076W        W39930   4.130   9.471   2.622  0.1177  0.0682 -0.2292
21077W        W39931   0.565   7.286   1.928  0.1326 -0.1310 -0.2671
21078W        W39932   6.059  10.244  14.231 -0.0716  0.0553  0.1284
21079W        W39933   5.928   7.282   4.052  0.1123 -0.1027 -0.1868
21080W        W39934  10.937   7.820   1.576 -0.0571  0.1733 -0.2447
21081W        W39935  15.556   7.498   5.240 -0.1291  0.1204 -0.0053
21082W        W39936  15.237   2.094   1.853  0.0922  0.4549 -0.0247
21083W        W39937  18.642  14.680  11.047  0.1192 -0.1768  0.1496
21084W        W39938   5.226  10.256  12.707 -0.0990  0.1135  0.1440
21085W        W39939  17.843  16.587   0.032  0.4633  0.1770  0.0119
21086W        W39940   5.382  10.332   2.056  0.2851 -0.1109  0.2442
21087W        W39941   1.580   6.659  13.622 -0.0308  0.1931 -0.4254
21088W        W39942   8.369   3.541  14.560  0.1570 -0.2382  0.1168
21089W        W39943  14.421   2.611   2.013  0.1383  0.1332  0.1566
21090W        W39944   0.266   5.355   0.361 -0.1985  0.0248  0.0965
21091W        W39945  17.392   6.623   3.351 -0.0431 -0.0150 -0.2436
21092W        W39946  16.805  10.500   0.112  0.0782  0.3268 -0.2101
21093W        W39947  18.603  17.333  10.632 -0.0105  0.1639 -0.1240
21094W        W39948  11.951   4.724  10.911 -0.0869  0.1518  0.0333
21095W        W39949   6.848   0.948  13.685 -0.4196  0.1798 -0.0532
21096W        W39950   7.816   0.469   3.999 -0.1314 -0.0918  0.1563
21097W        W39951   9.877  12.796   3.133 -0.0263 -0.1075 -0.1781
21098W        W39952  16.675  15.063  10.737 -0.0441  0.0825 -0.0067
21099W        W39953  17.805  18.317   2.908 -0.4915 -0.1510 -0.3429
21100W        W39954   3.929   2.321  12.968  0.0286  0.0767 -0.2730
21101W        W39955   3.898   2.965  11.091  0.2931 -0.0382 -0.0211
21102W        W39956   5.474  12.885   1.306 -0.2015 -0.2713 -0.0260
21103W        W39957  14.708   5.845  13.970  0.1385 -0.1224  0.0489
21104W        W39958  12.176  11.558  12.142  0.0110 -0.1028  0.3326
21105W        W39959  10.804  10.394   1.834 -0.0867  0.1157  0.3579
21106W        W39960   3.329  10.165   0.224 -0.1206 -0.1732 -0.2532
21107W        W39961  10.991  14.150  10.288 -0.1300 -0.1000  0.0529
21108W        W39962   3.733   0.708  12.173 -0.2460 -0.0047  0.3596
21109W        W39963  12.389  12.886  10.313 -0.0381 -0.1294  0.1498
21110W        W39964  18.911   8.650  12.491 -0.0241 -0.3767  0.0415
21111W        W39965   8.329   4.821   1.328 -0.2932  0.1316  0.0105
21112W        W39966  16.557   7.993  13.230  0.0202 -0.0117  0.3369
21113W        W39967   2.676  13.916   5.381 -0.0364 -0.2375  0.2627
21114W        W39968  14.500   4.139   1.573  0.1498 -0.0365 -0.1153
21115W        W39969   7.526  13.209  11.098 -0.0645  0.3236  0.1115
21116W        W39970   8.032  18.290   1.018 -0.1270  0.0780 -0.1376
21117W        W39971  13.092  13.758   0.991  0.1850  0.1851 -0.1310
21118W        W39972   9.400  18.330  10.362  0.4120  0.3613 -0.1267
21119W        W39973   6.050   0.742   0.485 -0.1028 -0.3405  0.1604
21120W        W39974   7.091   2.386  12.777 -0.0319 -0.0942  0.1732
21121W        W39975  11.148  18.223  11.100 -0.0312 -0.0813  0.1627
21122W        W39976   9.122  18.290  13.612 -0.1399  0.0915 -0.2170
21123W        W39977  15.156  16.717  14.345  0.0920  0.5795  0.0529
21124W        W39978   3.621   8.399  13.123  0.3370 -0.1836  0.1954
21125W        W39979   8.603  12.015   4.238  0.0424 -0.0083  0.0638
21126W        W39980   4.224   9.694   3.792 -0.2806  0.0664  0.2219
21127W        W39981  16.290  11.737   2.291 -0.1186  0.0018 -0.0798
21128W        W39982  10.644  17.409  11.374 -0.1071 -0.3228 -0.3016
21129W        W39983   8.812  12.939  13.401  0.0339  0.3013 -0.0244
21130W        W39984   5.403  15.130   2.588 -0.2462  0.0509  0.1135
21131W        W39985   8.587  14.524  13.147 -0.1380  0.0381  0.2808
21132W        W39986   5.414   7.822  12.469  0.0948  0.0655  0.0773
21133W        W39987   2.884  17.350  11.159 -0.2802  0.1036 -0.1837
21134W        W39988  10.550  15.023   0.880  0.2427  0.1732  0.2317
21135W        W39989  15.554  18.684   0.520 -0.1590  0.0231 -0.2477
21136W        W39990  18.033   5.679  14.730  0.1691  0.0059  0.1441
21137W        W39991  16.330  16.783  12.468  0.2668 -0.0304 -0.0549
21138W        W39992  14.354  18.034   1.773  0.2594  0.3014 -0.0171
21139W        W39993  18.067   5.795  12.931 -0.0685 -0.0876 -0.0407
21140W        W39994  14.885   7.849  11.212  0.0935 -0.2075 -0.3502
21141W        W39995  12.136   2.241  14.508 -0.2003  0.2970 -0.0252
21142W        W39996  13.327  14.047   0.098 -0.0783  0.1777  0.1257
21143W        W39997   2.847   6.003   2.294  0.3661  0.0937 -0.3263
21144W        W39998   2.932   3.921   2.682 -0.0951  0.1487  0.2203
21145W        W39999  16.396   3.001   1.181 -0.0425 -0.2942  0.1105
21146W        W40000   9.547  13.926  13.629 -0.0235 -0.0659  0.0814
21147W        W40001   5.981   3.508   0.250 -0.2098 -0.0122 -0.1161
21148W        W40002  16.473  11.951  14.339 -0.3505  0.1262  0.1384
21149W        W40003   6.577   0.147   9.230 -0.3898 -0.4186 -0.1052
21150W        W40004  11.551  17.072   1.556  0.1255 -0.0837  0.1413
21151W        W40005  15.787  15.494  10.983  0.1976 -0.0068  0.0536
21152W        W40006  11.489   5.054   3.805  0.0777  0.1924 -0.2209
21153W        W40007  12.707  10.457   3.450  0.0404  0.1833  0.2973
21154W        W40008  14.327  13.521   1.588 -0.0609 -0.1903  0.0354
21155W        W40009   1.422  15.255   1.388  0.1315  0.2962 -0.0677
21156W        W40010  16.214  12.063   1.421 -0.4466  0.1966 -0.0784
21157W        W40011  12.080  10.275  12.883 -0.0571  0.1693 -0.5872
21158W        W40012  11.814  14.655  12.322  0.2254 -0.0769 -0.1232
21159W        W40013   8.175   6.143  14.377  0.1394  0.0715 -0.0380
21160W        W40014  18.037   5.771   4.678  0.2572  0.1321 -0.2012
21161W        W40015  12.810   8.091   3.908  0.0969 -0.0520  0.0507
21162W        W40016   7.708   4.870   2.638 -0.1887  0.0508 -0.3667
21163W        W40017   6.236  17.019  11.078  0.2044  0.1379 -0.1449
21164W        W40018  10.526   8.255   4.068 -0.0601 -0.0660 -0.0170
21165W        W40019  14.548   9.491  11.637  0.1574  0.3154 -0.1126
21166W        W40020  19.098  11.539  12.515 -0.1354  0.1643 -0.1222
21167W        W40021   4.279   7.770   9.898  0.2922 -0.1125 -0.0508
21168W        W40022  10.027  17.250  10.848  0.1757  0.3589 -0.0582
21169W        W40023  19.137   3.328  11.675  0.2630 -0.0290 -0.0914
21170W        W40024   6.871   3.878   0.054  0.2353 -0.0370 -0.1749
21171W        W40025  11.110   0.149  12.670  0.0239 -0.0155 -0.0919
21172W        W40026   7.932   8.155   1.017 -0.1981  0.1869  0.3115
21173W        W40027   5.622  18.362  12.796  0.0880  0.3151 -0.1681
21174W        W40028  17.976   5.765  12.330  0.1134  0.2320 -0.2888
21175W        W40029  11.621   6.587   3.897 -0.4250  0.1609 -0.4509
21176W        W40030   2.649  11.849   2.924 -0.2014  0.0857  0.0975
21177W        W40031  13.739  15.467  14.400 -0.1257 -0.3689 -0.2091
21178W        W40032  17.563  14.024   2.425  0.0008  0.0127 -0.2892
21179W        W40033  11.365  15.923  11.504  0.0644 -0.1434  0.0536
21180W        W40034   8.655   8.757   2.748  0.0887 -0.2320 -0.0170
21181W        W40035   6.816  18.556  13.693 -0.1593 -0.0870  0.1396
21182W        W40036  18.356   7.862   3.009 -0.1798  0.0974 -0.1572
21183W        W40037  10.678   4.203   2.857 -0.2916 -0.1316  0.1361
21184W        W40038  12.881   9.119   0.424 -0.0049  0.0460 -0.1767
21185W        W40039   2.970   8.945  13.473 -0.3268 -0.4295 -0.0786
21186W        W40040   3.986  15.490  13.597  0.1333 -0.0943 -0.1257
21187W        W40041   0.431  11.626   2.824  0.0365 -0.0684  0.2277
21188W        W40042   3.620  19.139   1.713  0.0290  0.0868  0.0779
21189W        W40043   3.174   6.662  10.911  0.0928 -0.4181  0.2747
21190W        W40044   9.718   7.962   4.372 -0.1214  0.1350  0.2687
21191W        W40045  17.881   7.837   0.339 -0.1456 -0.1739 -0.3265
21192W        W40046  14.146   9.005  11.755 -0.0429  0.0021 -0.0445
21193W        W40047   9.169   8.658   0.499 -0.0742 -0.1581  0.1027
21194W        W40048   5.896   4.907   4.223 -0.1578  0.2491  0.0759
21195W        W40049   6.866  15.120  12.188 -0.0444  0.1211  0.0410
21196W        W40050  17.949  10.660  14.619 -0.0533 -0.1589  0.0040
21197W        W40051   2.761   2.988   4.532 -0.2085 -0.1421 -0.4626
21198W        W40052  10.081   2.874  11.142 -0.0353  0.0113  0.0372
21199W        W40053  10.997   6.090  12.127 -0.1149 -0.3904  0.0120
21200W        W40054   4.800   6.083  13.778 -0.0182 -0.2593  0.6069
21201W        W40055  12.956  10.062  13.512 -0.0829  0.0191 -0.1250
21202W        W40056   7.695   1.790   1.983 -0.0064  0.3692  0.0796
21203W        W40057   7.376  18.528  12.478 -0.2231 -0.0608 -0.0195
21204W        W40058   4.331   4.654   2.842  0.0787 -0.0100  0.0403
21205W        W40059   5.603   4.945  13.393  0.1388 -0.0345 -0.0467
21206W        W40060   8.192  15.244  11.958  0.1359 -0.2009  0.0932
21207W        W40061   2.967   2.483   1.852 -0.1049 -0.1322  0.4098
21208W        W40062   6.078  10.798  13.166  0.1054 -0.1196  0.2819
21209W        W40063   7.145   8.350   0.600  0.1195 -0.1185 -0.1836
21210W        W40064   7.088   5.973   3.134 -0.2398 -0.0165  0.0802
21211W        W40065   7.498  13.246  14.288 -0.3126 -0.0800 -0.1339
21212W        W40066  17.122   6.577  13.016 -0.0065 -0.3225 -0.0923
21213W        W40067  14.634   0.573   1.275  0.0240  0.0541 -0.0534
21214W        W40068  12.493   9.918  12.181  0.0426  0.1955  0.2713
21215W        W40069   4.940   1.519  11.840  0.1855 -0.1034  0.2310
21216W        W40070  17.514  12.602   9.983 -0.2598 -0.1573  0.2336
21217W        W40071  13.590   6.123   3.724  0.1801 -0.1527  0.1393
21218W        W40072   8.589  16.043   9.981 -0.2232  0.4064 -0.0334
21219W        W40073   1.107   2.807  10.386 -0.1173 -0.0954 -0.1272
21220W        W40074   2.619  13.130   0.257  0.2614 -0.1392 -0.2645
21221W        W40075   2.468  17.082   3.947 -0.0234 -0.3207  0.0108
21222W        W40076  13.090  12.858  13.444  0.0072 -0.0194  0.1462
21223W        W40077  17.184   4.101   0.070 -0.1464  0.3255 -0.1194
21224W        W40078   6.223   2.085  13.768  0.1554 -0.3908  0.0510
21225W        W40079  15.174  11.686  12.328 -0.0923  0.1020 -0.0746
21226W        W40080  18.611  15.025  10.687  0.2060 -0.0062  0.1992
21227W        W40081  14.613  10.508  11.395 -0.0299  0.0464  0.2299
21228W        W40082   7.869   7.820  12.974 -0.0196 -0.5860  0.0914
21229W        W40083   2.667   9.253  11.686  0.2279  0.1292 -0.1652
21230W        W40084   7.770   6.645   1.451 -0.0457 -0.0203  0.1269
21231W        W40085   4.284   9.564   1.002 -0.2118  0.3303  0.0882
21232W        W40086  11.195   8.547   0.077 -0.1476  0.0579 -0.0608
21233W        W40087  14.793  10.822  11.722  0.1814  0.0368  0.0887
21234W        W40088  14.560  17.300  12.990  0.3718  0.1190 -0.2137
21235W        W40089   2.206  10.107  13.756  0.0738  0.0493 -0.4356
21236W        W40090   4.635   8.158   0.393  0.3843  0.1063  0.1795
21237W        W40091   8.325   2.816   0.748 -0.1178  0.2838 -0.0537
21238W        W40092  10.366  17.752   0.862 -0.1015 -0.0561  0.2664
21239W        W40093  10.712   9.355   2.106 -0.1840  0.0896  0.1047
21240W        W40094   5.340  16.914   3.312  0.2920 -0.1915  0.0224
21241W        W40095   2.053   3.384  13.661  0.3542 -0.0883  0.2351
21242W        W40096  11.712   8.711   4.067 -0.2885 -0.5774 -0.1891
21243W        W40097   4.118  17.069  14.273  0.0441 -0.0027 -0.0867
21244W        W40098  12.477   8.250  11.268  0.4835  0.0330  0.2716
21245W        W40099  14.341   7.544  14.444  0.1216 -0.0264 -0.1785
21246W        W40100   9.358   6.768  12.346  0.1741  0.1878  0.0463
21247W        W40101  19.127   4.634  12.713 -0.2143 -0.0083 -0.1793
21248W        W40102  13.192   1.654  11.807  0.0925 -0.0917  0.0184
21249W        W40103   9.694  16.156   0.595 -0.2245  0.0190 -0.3108
21250W        W40104   7.216   7.594  13.690 -0.1628  0.2072  0.0071
21251W        W40105   7.575  12.930  11.535  0.0588  0.1291 -0.2976
21252W        W40106  15.583   5.643   4.547  0.1771  0.2394 -0.2393
21253W        W40107   8.677  18.095   4.669  0.0986  0.1369 -0.3667
21254W        W40108  11.056  10.847  10.635 -0.2635  0.1105  0.1200
21255W        W40109  14.903  18.664   9.424  0.0447  0.1985 -0.3958
21256W        W40110  18.482  17.299  13.830  0.2939 -0.0582 -0.0904
21257W        W40111   5.916   2.623   0.325 -0.1603  0.0537  0.3035
21258W        W40112   2.781   6.633   3.605 -0.0092  0.0111  0.1327
21259W        W40113  12.182  14.142   1.288 -0.1542 -0.3783 -0.0820
21260W        W40114  17.189   1.907  13.684 -0.4205  0.1533  0.0015
21261W        W40115   6.500   0.049   0.170 -0.0815 -0.4032 -0.0449
21262W        W40116   8.660   3.832   3.031  0.0386  0.2012  0.3791
21263W        W40117  13.160  11.226  11.418 -0.0361  0.2270  0.0829
21264W        W40118   9.313  15.631  10.795  0.0485 -0.0857 -0.0462
21265W        W40119  16.954   2.103   4.161  0.0505 -0.0559  0.0645
21266W        W40120  11.244  16.748   4.222 -0.4000 -0.1292 -0.1256
21267W        W40121   6.056   0.369  14.379  0.1875 -0.2308 -0.0228
21268W        W40122   5.812   0.581   4.027  0.3227  0.0734  0.0825
21269W        W40123   9.557   8.822  12.132  0.1081 -0.1597 -0.1071
21270W        W40124   3.306   8.526   1.518 -0.2618  0.3253  0.0672
21271W        W40125   0.435   8.309  11.274 -0.1044 -0.0409  0.1708
21272W        W40126   1.620  14.477   2.140 -0.2091 -0.0148  0.0665
21273W        W40127  12.568  11.942   0.695  0.1044 -0.0223  0.2173
21274W        W40128   7.016   6.905  14.499  0.0988  0.2343  0.3487
21275W        W40129   3.679  12.868  12.199  0.2334 -0.1310 -0.0947
21276W        W40130   9.238   3.312  13.356  0.1094 -0.1247  0.2138
21277W        W40131   8.054   3.804   1.755  0.1217 -0.0848  0.2494
21278W        W40132  13.723  14.823   0.746 -0.1878  0.2151  0.0085
21279W        W40133  14.743  17.849   4.517 -0.2263  0.1130  0.2234
21280W        W40134  14.071  17.632  12.994  0.1057  0.2225  0.0625
21281W        W40135   2.135   2.082  13.995  0.3633  0.0854  0.2307
21282W        W40136   7.222   0.625   3.804 -0.0253 -0.2711  0.2956
21283W        W40137  16.644   5.731  14.599  0.1863 -0.0885 -0.2477
21284W        W40138   9.238   4.071   1.618  0.1001 -0.2114 -0.1053
21285W        W40139  13.813   8.404   1.775  0.0265 -0.0731 -0.1093
21286W        W40140   6.658   1.393  13.260 -0.0800 -0.0405  0.1725
21287W        W40141   5.478  16.878   4.009  0.0593 -0.3145  0.2171
21288W        W40142  17.663   4.931   2.994  0.0125 -0.0175  0.0195
21289W        W40143  11.447  18.433   0.247 -0.1808 -0.1293  0.0156
21290W        W40144   4.869  16.221   1.218 -0.2524  0.3539 -0.1459
21291W        W40145  18.216   2.729   1.393 -0.1515  0.1503 -0.1110
21292W        W40146   3.940  16.004   1.917 -0.1438 -0.2326  0.1527
21293W        W40147  18.279  12.201   4.101 -0.0221  0.0034 -0.1274
21294W        W40148  12.109  18.115  11.816  0.0858 -0.0182  0.0562
21295W        W40149   6.379  15.042   0.428 -0.0556  0.2440 -0.1555
21296W        W40150   0.139   7.970   3.050 -0.0628 -0.0855 -0.4034
21297W        W40151  14.739   3.265  14.514 -0.0866  0.1013  0.1864
21298W        W40152   6.661  12.412   2.116  0.1414  0.0217  0.0631
21299W        W40153   4.003   6.396  13.298  0.2235  0.2314  0.2148
21300W        W40154  17.510   5.111  11.506 -0.0807  0.1212 -0.1850
21301W        W40155  12.927   6.957  13.681 -0.1333 -0.3402 -0.3639
21302W        W40156  10.494   3.019  14.643 -0.0641  0.3525 -0.0477
21303W        W40157   8.657   6.187   0.287 -0.1735  0.0143  0.0604
21304W        W40158   8.242  13.782  10.582  0.1268  0.0006  0.2612
21305W        W40159  12.576   3.084   2.133 -0.4352  0.3464  0.0652
21306W        W40160   0.575   4.210  11.395 -0.0097 -0.1875 -0.1528
21307W        W40161   9.389  14.532   3.665  0.0310  0.3228  0.3202
21308W        W40162   1.089   6.248  12.514  0.1058  0.0196  0.0385
21309W        W40163  10.815   5.152  13.089 -0.2332  0.0256  0.2195
21310W        W40164   6.154   5.342   3.598  0.0806  0.0171 -0.0971
21311W        W40165   6.989   7.421   3.198  0.0347  0.1400 -0.0468
21312W        W40166   4.963   1.506   0.433 -0.0186  0.1819 -0.0351
21313W        W40167  15.614   6.583  11.322  0.0581 -0.1939  0.2408
21314W        W40168  18.247  15.231  13.442 -0.2036  0.0828  0.0467
21315W        W40169   1.196   2.252  13.334  0.0419  0.0095  0.0934
21316W        W40170  10.352  18.271  12.099  0.0039 -0.0096  0.1307
21317W        W40171  12.651  11.099   0.413  0.2150  0.1092  0.0377
21318W        W40172  15.208   1.147  11.224  0.2331 -0.2341  0.0772
21319W        W40173   4.880  11.510  13.903 -0.1219 -0.1196  0.0769
21320W        W40174  16.077   1.911  14.011 -0.2626  0.0755 -0.2253
21321W        W40175  16.499  10.269   0.598 -0.0734 -0.1691  0.0820
21322W        W40176  12.240  14.551  10.900  0.1164 -0.2583  0.4086
21323W        W40177   3.596   7.010  11.742 -0.0387  0.0421 -0.1415
21324W        W40178  11.748  16.059  10.917  0.0555 -0.0605 -0.0846
21325W        W40179  16.982  12.592   3.900  0.1809  0.2367 -0.3380
21326W        W40180   0.357  12.386   4.319 -0.0990  0.5347  0.2267
21327W        W40181   3.052  16.001   1.307 -0.2604 -0.0025  0.1907
21328W        W40182  12.169   6.788   2.461  0.0274 -0.2727  0.0438
21329W        W40183   5.078   7.132   3.859 -0.4642  0.0544 -0.0565
21330W        W40184   0.660   5.466   1.636  0.0065 -0.2659 -0.0739
21331W        W40185  13.813  15.465   0.133  0.1277 -0.1334  0.2701
21332W        W40186  13.854   8.151  11.773 -0.0124 -0.0345 -0.0849
21333W        W40187  16.246   4.744  11.876  0.2501 -0.1168  0.3423
21334W        W40188   1.110   2.543   3.900 -0.0609  0.1376 -0.2039
21335W        W40189  12.916   1.321  13.854 -0.1028  0.1175 -0.1108
21336W        W40190  11.294   0.894  12.808 -0.0333  0.0742 -0.0992
21337W        W40191  16.195   6.857   3.353  0.3912 -0.1307  0.0174
21338W        W40192  14.095   1.785   2.176 -0.2445  0.0856 -0.0450
21339W        W40193  13.259  16.290  13.050  0.0251 -0.0203  0.0505
21340W        W40194  14.548   7.940  12.561  0.0005  0.0919 -0.3534
21341W        W40195  14.429  11.193  12.013 -0.0492  0.0096  0.0063
21342W        W40196  13.872   5.862   0.098 -0.0899 -0.1117  0.1504
21343W        W40197   8.079   2.464   3.260  0.0445  0.0414  0.0222
21344W        W40198   5.239  14.003  13.400 -0.1010 -0.1469  0.0308
21345W        W40199  11.756   4.558  11.469  0.0639 -0.0618  0.0646
21346W        W40200  14.937   6.902  10.566 -0.0035  0.0392  0.0636
21347W        W40201   9.690   7.241   3.046 -0.4177  0.1731  0.1727
21348W        W40202   1.981   2.301   1.076  0.1661 -0.1550 -0.0050
21349W        W40203   7.238   5.929  14.184  0.0621  0.1392  0.0186
21350W        W40204  15.998   2.579   3.973 -0.0992  0.1237 -0.0516
21351W        W40205  11.702  10.401  13.819  0.4274  0.0443 -0.2963
21352W        W40206  16.778   0.679  10.609 -0.0748 -0.0701 -0.2117
21353W        W40207   8.008   2.708  14.138  0.2036  0.1758 -0.1258
21354W        W40208   9.485  15.922  11.205 -0.0679  0.0890 -0.0400
21355W        W40209  16.637   5.161   4.358  0.4310  0.0714  0.2607
21356W        W40210  14.527   7.424   1.211 -0.2944  0.2609  0.0605
21357W        W40211   2.294  18.131   0.625 -0.1773  0.3534 -0.2462
21358W        W40212   3.185  15.072   3.721  0.2602 -0.1125  0.1653
21359W        W40213   7.919  15.697  12.071  0.1627  0.1449  0.2051
21360W        W40214   0.921   5.552   2.314  0.0428 -0.1025  0.1050
21361W        W40215  12.244  14.228   1.851  0.0021 -0.0317 -0.1151
21362W        W40216  17.606  16.359  12.739  0.0211  0.2132 -0.0932
21363W        W40217   5.044   3.688   3.956 -0.0336 -0.0656 -0.2092
21364W        W40218  10.087   6.693  10.870 -0.0376 -0.3637 -0.1457
21365W        W40219   1.831  12.681  11.381  0.0760  0.3022  0.1504
21366W        W40220   5.345   3.258  13.376  0.1234  0.1067  0.0463
21367W        W40221   8.239   0.435   1.775 -0.1619 -0.0745 -0.0355
21368W        W40222   2.178   9.609  11.721 -0.0855 -0.4453  0.1739
21369W        W40223   3.310  15.990   4.050 -0.1308 -0.3200 -0.0747
21370W        W40224   2.243  14.873   1.423  0.0328 -0.1363  0.0118
21371W        W40225   8.038   4.550   3.857  0.1225 -0.0742 -0.2251
21372W        W40226  17.892   4.918  11.211 -0.1586  0.3800  0.1571
21373W        W40227   2.268   7.511   3.170 -0.0478 -0.2319  0.1585
21374W        W40228  10.854   4.150  10.462  0.1344 -0.1704 -0.1221
21375W        W40229   6.749  11.175   2.788 -0.4582  0.0807  0.2023
21376W        W40230   4.180   8.910  13.494 -0.3209  0.0254  0.1466
21377W        W40231   5.357  14.777  12.186  0.2920  0.3084 -0.1640
21378W        W40232   2.301   6.361   2.911 -0.4404  0.0314 -0.0869
21379W        W40233   2.069  14.201  14.076  0.0914  0.1664  0.0837
21380W        W40234   0.406   1.862  14.190 -0.3785 -0.0120  0.0883
21381W        W40235   7.858   1.676   0.931 -0.1059  0.2183 -0.3892
21382W        W40236  17.848   9.091  14.384 -0.2643 -0.2158 -0.1864
21383W        W40237   4.998   3.018   1.861  0.1453 -0.3912 -0.0441
21384W        W40238   7.373  12.964   1.089  0.2117  0.0850 -0.0661
21385W        W40239  16.860   2.933   2.954 -0.1099 -0.2113 -0.0084
21386W        W40240  18.576  15.215   1.541 -0.3429  0.2326 -0.1522
21387W        W40241   6.276  11.252   3.977 -0.0669 -0.2767 -0.1190
21388W        W40242   5.313   1.821  14.473 -0.1572 -0.1648 -0.0615
21389W        W40243   6.124   1.871  11.089  0.0543 -0.2719  0.0781
21390W        W40244  13.291   8.431   0.977 -0.0669 -0.0991 -0.0093
21391W        W40245  15.683   1.877   1.926 -0.1422  0.2707 -0.0279
21392W        W40246  15.445  16.494   3.692 -0.0358 -0.0046 -0.0713
21393W        W40247   5.785   1.128  11.512 -0.2419 -0.2343  0.1511
21394W        W40248   2.956   3.069   3.210 -0.4943 -0.1714 -0.0554
21395W        W40249   2.605  10.996   2.934 -0.3031 -0.3471 -0.0023
21396W        W40250  13.022  14.163   1.689 -0.0001 -0.0633 -0.1163
21397W        W40251  14.866   8.656  12.507 -0.1338  0.1830 -0.1479
21398W        W40252   1.201   4.348   1.333  0.0043  0.1381  0.1631
21399W        W40253   3.095   4.767  11.821  0.0957  0.2124 -0.0587
21400W        W40254   6.363  14.437   4.398  0.1466  0.0265  0.1091
21401W        W40255  10.149   0.595  14.699 -0.0730  0.0778 -0.1887
21402W        W40256  15.215   4.689   2.859 -0.1990  0.1954  0.0276
21403W        W40257   9.673  14.931  11.468  0.0731  0.2794  0.0237
21404W        W40258  15.010   7.060   4.269  0.2710 -0.0176 -0.2470
21405W        W40259  10.303  12.800  11.278  0.2558  0.0716  0.0703
21406W        W40260  12.373  13.504   2.674  0.0168  0.2655 -0.0666
21407W        W40261   1.858   1.526   0.577 -0.0696  0.2223 -0.1789
21408W        W40262   3.269   1.029   3.829 -0.0861  0.3168  0.3125
21409W        W40263  11.745  13.021   3.645 -0.3631  0.1903 -0.1521
21410W        W40264   7.143   8.564   3.160 -0.2554  0.0570 -0.1184
21411W        W40265  14.205  15.383   3.520  0.3040  0.2757 -0.0059
21412W        W40266  12.327  13.978  13.684 -0.1781 -0.0336 -0.2652
21413W        W40267  10.300   8.902  11.728 -0.2252  0.0134 -0.1945
21414W        W40268   4.579   0.220   2.716 -0.1664  0.1894  0.2533
21415W        W40269  13.068   5.832  13.125 -0.0453 -0.0433  0.0111
21416W        W40270   1.079  14.852  14.515 -0.3029  0.3069 -0.0440
21417W        W40271  10.140  14.930  11.676  0.3091  0.0725  0.0927
21418W        W40272  13.345   3.459  11.773  0.2352  0.2210 -0.2469
21419W        W40273   2.453   6.134   1.911 -0.2123  0.0992  0.0150
21420W        W40274  15.137  14.224  10.721  0.0723  0.0066  0.2932
21421W        W40275  15.991  10.634  11.609  0.0429  0.2053 -0.3705
21422W        W40276   4.217   7.957   0.082 -0.1798  0.0036  0.1101
21423W        W40277  13.363  15.441  12.733  0.1642 -0.4229  0.1379
21424W        W40278  11.453  17.078   2.230 -0.1478  0.2292 -0.0170
21425W        W40279  18.855   6.971   2.902  0.3939 -0.0295 -0.0733
21426W        W40280  16.330   3.571  14.608  0.1706  0.1096  0.0969
21427W        W40281  14.187   2.124   1.131  0.0790  0.1828  0.4624
21428W        W40282  10.628  15.235  14.573  0.4361  0.0827 -0.1958
21429W        W40283   5.093  15.822  14.330 -0.3181  0.0107  0.2077
21430W        W40284   5.189  16.076  10.922 -0.1097  0.0103  0.3238
21431W        W40285   0.458   1.029  11.877 -0.0497  0.2072  0.1091
21432W        W40286   8.319  12.036  13.499  0.0037 -0.1931  0.3915
21433W        W40287  15.560  10.877   3.145 -0.1789  0.1421  0.2305
21434W        W40288  15.055   0.326  12.925 -0.4957  0.0857  0.0406
21435W        W40289   5.617  14.775   2.385 -0.1583 -0.1039 -0.0278
21436W        W40290   1.754   9.236   3.972  0.1377 -0.0168 -0.1608
21437W        W40291  11.906   5.238  11.171  0.0257 -0.3349  0.2704
21438W        W40292  17.210  10.896  12.946 -0.2394 -0.2172 -0.1134
21439W        W40293   4.313  15.852   0.715  0.0604 -0.2389  0.0522
21440W        W40294  17.929   9.680  14.574 -0.0257  0.1893 -0.2221
21441W        W40295   9.546  12.204  12.825  0.1808 -0.0771  0.0681
21442W        W40296   3.482   0.488   5.127 -0.0990 -0.0219 -0.0386
21443W        W40297   4.911   5.522  14.623 -0.3120 -0.0385  0.0660
21444W        W40298   7.900   1.988   4.129 -0.2565 -0.0327 -0.1318
21445W        W40299  17.093  10.851  10.436 -0.1178 -0.0636  0.0602
21446W        W40300   9.956  14.308  13.510  0.0101  0.3319 -0.3418
21447W        W40301   4.818  12.556   0.667  0.1564 -0.3661 -0.1281
21448W        W40302   0.432   7.061  12.060  0.0847 -0.1587 -0.2720
21449W        W40303   9.391   1.316   1.395  0.0822  0.2563  0.1106
21450W        W40304  14.766   7.242  11.544  0.2835  0.0779 -0.3025
21451W        W40305  16.798  11.336   1.494 -0.1162 -0.1164 -0.1230
21452W        W40306  17.410   0.794   0.478  0.0159  0.4020  0.1698
21453W        W40307   4.487   4.135   2.796 -0.0876  0.0487  0.1599
21454W        W40308  10.156   0.333   0.841  0.1921 -0.1221 -0.1126
21455W        W40309  10.456  12.824   4.007  0.2098 -0.0536  0.0451
21456W        W40310  18.977   6.369  13.626  0.1318  0.0193 -0.3191
21457W        W40311  14.435  18.001   0.789 -0.2342  0.1080  0.1399
21458W        W40312   5.728   8.685   4.253 -0.2681  0.1369 -0.0071
21459W        W40313  16.785  17.619  13.426  0.0968 -0.0106 -0.1439
21460W        W40314  17.306   1.831   3.295 -0.4461  0.2311  0.4358
21461W        W40315  12.630  17.640  13.904 -0.2234 -0.0113  0.0412
21462W        W40316   5.385  11.812  10.539 -0.2098  0.0384  0.0093
21463W        W40317   0.085  15.332  11.422 -0.2930 -0.2824 -0.1286
21464W        W40318   1.882  12.389   1.329  0.0406 -0.0040 -0.0883
21465W        W40319  17.250   0.510   4.511  0.0440  0.1186  0.0025
21466W        W40320   3.368  10.745  13.514 -0.2310  0.2228  0.0540
21467W        W40321  16.302  10.557  12.699  0.0727 -0.0999 -0.0611
21468W        W40322  13.688  18.879   0.510  0.1729  0.1521  0.0743
21469W        W40323  12.179  13.094   0.227  0.4161  0.0926 -0.0363
21470W        W40324  11.628  17.231  11.422 -0.1195 -0.1215 -0.0676
21471W        W40325   7.496  10.703   3.975 -0.1874  0.0937 -0.1419
21472W        W40326  18.196   7.395  13.511 -0.0520  0.3624 -0.1899
21473W        W40327   8.820   5.682   3.055  0.1368  0.2258  0.0012
21474W        W40328  13.801  18.794  13.864  0.2528  0.2442 -0.1164
21475W        W40329  11.198  17.811  14.546 -0.4838 -0.1450 -0.2420
21476W        W40330   9.624  16.758  12.683  0.1458  0.1801 -0.1881
21477W        W40331   8.672   6.951   1.354  0.2203 -0.1186  0.0243
21478W        W40332   4.782  13.793   1.672  0.1911  0.1306  0.1001
21479W        W40333   4.137  18.180   1.402  0.0883  0.1876  0.3955
21480W        W40334   0.935   6.970  14.272 -0.1877  0.3338 -0.0902
21481W        W40335   4.937  13.018   0.357  0.0172  0.1140  0.0840
21482W        W40336  11.857  14.630  14.332 -0.0559  0.1160 -0.0681
21483W        W40337  18.652   1.348   2.232  0.1197 -0.1268  0.0392
21484W        W40338   3.005   7.581  11.936  0.0141 -0.2937 -0.1551
21485W        W40339   8.508   1.708  11.059 -0.1301  0.1824  0.2529
21486W        W40340   6.952   3.887  10.487 -0.1261 -0.2404 -0.1439
21487W        W40341  15.431   3.861   1.360  0.0365  0.0690  0.0448
21488W        W40342  12.985   0.181   1.264  0.2277 -0.0517  0.0266
21489W        W40343   5.535   6.824  13.414  0.2052 -0.1687 -0.0065
21490W        W40344  13.027   3.996   0.488 -0.1970  0.4737 -0.3239
21491W        W40345  15.116   6.849  11.321  0.0677  0.1812  0.0401
21492W        W40346  10.836  17.425  10.166 -0.4296 -0.1456 -0.2246
21493W        W40347   1.583  12.782  12.786  0.0950 -0.1658 -0.2598
21494W        W40348  12.488   0.022  11.856  0.2452  0.0081 -0.3695
21495W        W40349  10.016   3.695   2.480  0.3539  0.0025 -0.2160
21496W        W40350   2.708   5.401  13.411 -0.0194 -0.2507  0.0584
21497W        W40351  11.644  12.906   0.325  0.3856 -0.0664  0.3516
21498W        W40352  16.149  12.701   1.754 -0.3394  0.0297  0.1257
21499W        W40353  11.524   1.968   4.475 -0.3450 -0.0523  0.0030
21500W        W40354   8.995   9.789   1.729  0.2720  0.0343  0.1327
21501W        W40355  15.859   6.961   2.932 -0.2982  0.0811 -0.0023
21502W        W40356  18.155   9.705   1.621 -0.0808  0.0373 -0.2287
21503W        W40357  18.253   2.261   0.041  0.0770  0.3792  0.2470
21504W        W40358   1.372  14.436  10.937  0.1482 -0.1171  0.0664
21505W        W40359   0.971  16.966   2.641  0.0172 -0.2584 -0.0383
21506W        W40360  12.173  14.817  12.038  0.2779 -0.0902  0.1651
21507W        W40361   6.863   1.841   1.534 -0.0442 -0.2971 -0.1848
21508W        W40362  10.920   5.298   2.671 -0.0918  0.1169 -0.0666
21509W        W40363  16.066   7.841  11.516 -0.1284 -0.0465  0.1146
21510W        W40364   3.461   1.247   1.583 -0.3566 -0.0139  0.2202
21511W        W40365  13.746  13.888  12.000 -0.0287  0.0663 -0.3910
21512W        W40366   8.855  13.200   3.457  0.0949 -0.2540 -0.1681
21513W        W40367   8.675   2.421   0.728  0.1792  0.2178 -0.0173
21514W        W40368  16.724  13.297  12.696  0.1631 -0.1748 -0.1634
21515W        W40369  14.196  13.326  13.958 -0.0976 -0.1056 -0.3965
21516W        W40370   9.930   1.885   3.434  0.1188  0.1717 -0.0011
21517W        W40371  17.160   0.140   2.912  0.1353  0.0207 -0.0946
21518W        W40372   6.080  13.977  11.693  0.0004 -0.1398  0.2734
21519W        W40373   8.865  17.565   1.397 -0.3289 -0.0567  0.2548
21520W        W40374   6.256  11.217  11.542  0.0233 -0.1169 -0.1912
21521W        W40375  16.006  12.112   0.979 -0.1400 -0.0303  0.1133
21522W        W40376  16.952   4.867   4.595  0.2750 -0.1332 -0.2941
21523W        W40377  13.712   1.899   1.202 -0.0436 -0.0016 -0.3176
21524W        W40378   7.654   5.831  11.386 -0.1164 -0.0051  0.0075
21525W        W40379   5.427   7.610  10.684  0.0409  0.1697  0.1047
21526W        W40380  16.071  13.898   2.573 -0.1264  0.0563  0.0315
21527W        W40381  13.893   8.068  10.821  0.3622  0.1820  0.3380
21528W        W40382   9.635  13.043   1.309 -0.1894 -0.0996  0.0890
21529W        W40383  14.617   8.949  14.124 -0.1875  0.0198  0.2104
21530W        W40384  15.552  15.952  12.729  0.3853 -0.0856 -0.0410
21531W        W40385  17.080   5.703  12.056 -0.0912  0.0661 -0.0498
21532W        W40386   0.391  12.350   1.272  0.4257 -0.1227 -0.0730
21533W        W40387   0.385  14.265   4.291  0.1196  0.2917 -0.0082
21534W        W40388  18.524  13.485  14.776 -0.0360  0.0223 -0.0560
21535W        W40389   4.681   9.870  14.642 -0.1124 -0.2146  0.1233
21536W        W40390  16.883  12.584   1.210  0.0846  0.1578 -0.4493
21537W        W40391  10.683  17.972   0.447  0.0797  0.3523  0.0012
21538W        W40392  10.509  16.377  13.703 -0.0249  0.1869 -0.3127
21539W        W40393   7.261   5.053   2.256  0.3221  0.1296  0.1796
21540W        W40394   9.772   6.956   9.725  0.1197  0.1376  0.1102
21541W        W40395   3.986  11.737   0.514  0.3554 -0.1572 -0.1013
21542W        W40396   9.931  17.900   4.604  0.0888  0.2534 -0.3142
21543W        W40397   9.669  18.822  11.766 -0.1925  0.2292 -0.1361
21544W        W40398   4.196  17.362  10.693 -0.2095  0.3114 -0.3374
21545W        W40399  16.735   9.549  13.481  0.0183  0.0974 -0.0053
21546W        W40400   3.302   0.143   4.424  0.2560  0.0293 -0.0309
21547W        W40401   3.941   0.918  10.722  0.0049  0.0290 -0.1985
21548W        W40402   4.798  19.103   3.602  0.2007 -0.2085 -0.0763
21549W        W40403  14.923   3.860   0.329 -0.1954 -0.5017  0.2386
21550W        W40404  14.623  13.593   0.837  0.1231 -0.1160 -0.0479
21551W        W40405   6.511   4.998   1.514  0.4807  0.0209  0.4635
21552W        W40406   6.785  15.666  10.571 -0.0586 -0.1107 -0.0765
21553W        W40407  14.768  14.086  14.542 -0.0262 -0.3770  0.2653
21554W        W40408   1.302   8.988  11.965 -0.0805 -0.1298  0.1586
21555W        W40409  13.109   5.204   0.961 -0.0327 -0.0584  0.2827
21556W        W40410  16.898  15.694   3.902  0.2823  0.0992  0.2596
21557W        W40411  12.795   9.015  12.844  0.0345  0.3120  0.1891
21558W        W40412   4.596  11.626   1.713 -0.1951  0.3004 -0.0032
21559W        W40413  18.724   2.055   3.047  0.2503  0.4488 -0.1734
21560W        W40414  10.971  16.322   0.143 -0.1942  0.1418  0.1284
21561W        W40415  15.272   3.244  10.653 -0.1116  0.1614 -0.1537
21562W        W40416   2.612  17.934   3.533  0.2795  0.0048  0.0919
21563W        W40417   6.525  15.163   3.345  0.0139 -0.0977  0.4957
21564W        W40418   4.325   9.915  13.149 -0.2220 -0.0276 -0.3413
21565W        W40419   7.513   0.285  12.071 -0.2596  0.3869  0.0181
21566W        W40420   0.510  11.115   0.222 -0.1462  0.0422  0.1740
21567W        W40421  16.399  14.565  11.945  0.1889  0.0699 -0.0301
21568W        W40422   6.967  10.366   0.014  0.0265 -0.0649  0.2241
21569W        W40423  18.503   9.603  13.580  0.1116  0.0120  0.3696
21570W        W40424   5.628  17.757   1.385  0.0563  0.1483 -0.0246
21571W        W40425   2.002   9.728   0.549  0.0778  0.1035 -0.1524
21572W        W40426   8.161  15.301   2.311 -0.1321 -0.2420 -0.2368
21573W        W40427  11.144  10.388  10.693 -0.0819  0.1320  0.1494
21574W        W40428  16.997   7.766   2.811 -0.2188 -0.2015  0.1552
21575W        W40429  10.823   8.813   0.224 -0.0199 -0.1940 -0.0439
21576W        W40430   7.141  17.059   2.002  0.2375  0.2908  0.3908
21577W        W40431   5.766  13.681  12.051  0.2162  0.0403 -0.0867
21578W        W40432  16.755  11.153  13.612  0.0322  0.0840  0.0623
21579W        W40433  10.557  17.856  11.812  0.1639  0.4408 -0.1631
21580W        W40434  15.679   5.065  10.050 -0.0821 -0.0088 -0.4825
21581W        W40435   2.137   8.039  12.414  0.0102 -0.2071  0.2633
21582W        W40436   1.557  11.369  11.117 -0.0819 -0.0551 -0.3201
21583W        W40437  16.706   4.204  11.229  0.1811 -0.2953  0.1155
21584W        W40438  18.414  13.835  13.935 -0.1522  0.5062 -0.0867
21585W        W40439  14.351   1.068   3.741  0.0853 -0.0239 -0.1577
21586W        W40440   4.264   1.235  13.594 -0.1642 -0.3294  0.3206
21587W        W40441  15.485   4.638  11.662  0.2626  0.0135  0.0716
21588W        W40442  17.963   7.893   3.798  0.0093 -0.4483  0.1195
21589W        W40443  11.655   4.077  11.267  0.1666 -0.1978  0.1668
21590W        W40444   9.283  10.098   2.951 -0.0081 -0.0183 -0.1862
21591W        W40445   9.908  17.979  14.198  0.2195  0.2865 -0.2763
21592W        W40446   8.400   9.708   0.753  0.0743  0.0569 -0.2911
21593W        W40447   2.688  10.723   1.222 -0.1480  0.3454  0.1714
21594W        W40448   5.236  18.550   0.328 -0.3122  0.0938  0.0051
21595W        W40449   3.626   2.009   2.928 -0.0903  0.1299  0.0470
21596W        W40450  15.672  10.318   3.979 -0.0091 -0.4122  0.0658
21597W        W40451  12.258   4.992   1.454  0.0609  0.6052  0.2420
21598W        W40452   5.586   9.472  10.781 -0.0318 -0.2205 -0.0802
21599W        W40453   4.460   9.967   2.325  0.3789  0.5527 -0.0861
21600W        W40454   4.555   5.470  11.473  0.0669  0.1936 -0.1325
21601W        W40455   4.400   7.435  10.635  0.1124  0.0434  0.2079
21602W        W40456   0.214  10.488   0.535 -0.0351 -0.3092  0.2592
21603W        W40457  15.342  14.322   2.014  0.0643  0.0961  0.2028
21604W        W40458  16.421  17.450  10.005  0.3854 -0.1922  0.0550
21605W        W40459  14.827   9.708   1.681 -0.0444  0.3030 -0.0456
21606W        W40460   2.358   3.702  13.345  0.2505 -0.0449  0.0078
21607W        W40461   3.619   2.812  12.629  0.1476 -0.1989 -0.2068
21608W        W40462   8.085  13.093   2.011 -0.0773 -0.2083 -0.0713
21609W        W40463   4.564   7.620  14.613  0.1426  0.2354  0.1868
21610W        W40464   0.667   3.987   3.529 -0.4879 -0.1600  0.0158
21611W        W40465   4.964   2.340   0.588 -0.1649  0.0555  0.1888
21612W        W40466   6.988   1.793  11.788 -0.1248  0.2199  0.0483
21613W        W40467  10.865   3.838  10.002 -0.2079  0.0464 -0.2773
21614W        W40468   2.636  12.286   1.123  0.2536 -0.3413 -0.3585
21615W        W40469  10.852  14.637  13.434 -0.1197  0.0461 -0.1359
21616W        W40470  16.504   3.611   3.569  0.0222 -0.1675 -0.2221
21617W        W40471   7.706   4.489   1.484 -0.0673  0.0607  0.0345
21618W        W40472  12.584   2.473  11.078  0.1821 -0.1958 -0.4520
21619W        W40473  13.177  13.883   2.975  0.0362 -0.1592 -0.2829
21620W        W40474  12.333  17.806  12.155  0.0718 -0.0352 -0.0463
21621W        W40475   5.347  19.076   3.684 -0.2445 -0.0643  0.1777
21622W        W40476  10.635   6.887  12.386 -0.1862  0.1656  0.1188
21623W        W40477  18.374   3.521   2.972 -0.1049  0.0559  0.1289
21624W        W40478   5.538   6.222   1.127  0.3618  0.0281  0.0564
21625W        W40479  10.752  11.793   2.640  0.1618 -0.0265 -0.1177
21626W        W40480   9.113   2.947   4.033 -0.2353 -0.0499 -0.2634
21627W        W40481  10.391  11.425   3.812 -0.0365  0.1007  0.0590
21628W        W40482   7.457  16.648  13.791  0.0292 -0.0655  0.2011
21629W        W40483  10.635   5.449   1.956 -0.2718  0.0253  0.2312
21630W        W40484   4.521  10.127  13.804 -0.0274  0.0049 -0.0611
21631W        W40485  10.525   9.480   4.352  0.1950 -0.0181 -0.0197
21632W        W40486   3.001   9.096  14.551  0.1617  0.2130 -0.0583
21633W        W40487  13.912  18.789   4.695 -0.1500  0.0327  0.3101
21634W        W40488  15.654   3.885   3.799 -0.0556 -0.1151  0.0291
21635W        W40489   3.869   8.565   2.244  0.0168 -0.1495 -0.0463
21636W        W40490   2.524   3.390   9.698 -0.0572 -0.1755  0.1727
21637W        W40491  18.372   6.037   0.837  0.1988  0.2050  0.2853
21638W        W40492  16.761  14.062   3.462 -0.1523 -0.1986  0.2970
21639W        W40493  18.506   7.865   4.481 -0.2431 -0.0452 -0.0745
21640W        W40494  10.325  14.326  14.620 -0.1546 -0.1456 -0.0452
21641W        W40495  19.028   0.011   1.795 -0.3973 -0.3874 -0.0682
21642W        W40496   6.963   1.285   1.676 -0.0260 -0.1212 -0.0450
21643W        W40497  16.580   6.727  13.723  0.2863  0.0098 -0.0143
21644W        W40498   7.098   0.906  12.685 -0.3413  0.2563  0.1142
21645W        W40499   8.872   2.906  10.540 -0.0866 -0.1542  0.3475
21646W        W40500   5.650   6.266  11.827 -0.2326 -0.1963  0.1025
21647W        W40501  10.135  17.637   2.312  0.0306 -0.1583 -0.0849
21648W        W40502   5.058   0.154   1.093  0.0422  0.0522 -0.0054
21649W        W40503   7.863  10.006  12.151  0.1133  0.1133  0.1605
21650W        W40504   0.384   9.280  13.754  0.1810 -0.1586  0.1727
21651W        W40505   5.886   7.765  13.215  0.1887 -0.2503 -0.0159
21652W        W40506  11.657  17.304   0.890  0.0351 -0.1588  0.1325
21653W        W40507  12.773  10.935  14.537 -0.1078  0.2709  0.2446
21654W        W40508  10.717   6.286  14.543 -0.0992  0.2321  0.2554
21655W        W40509   9.026  16.720   0.777 -0.1818 -0.2858 -0.1004
21656W        W40510   8.583  17.513   1.044  0.2902 -0.0599  0.2256
21657W        W40511  17.257   9.739   0.533 -0.1194 -0.0217  0.2847
21658W        W40512   0.922  14.860   4.161  0.3371 -0.1760  0.1484
21659W        W40513   2.096  13.914   2.779 -0.0230  0.3826  0.0221
21660W        W40514   1.402  13.229  14.410  0.0555 -0.0106 -0.0836
21661W        W40515  18.821   7.596   1.762  0.0537  0.1120 -0.1124
21662W        W40516   7.181   1.508   2.671  0.1815 -0.3903 -0.0580
21663W        W40517   7.216  13.877  11.697 -0.3258 -0.1982 -0.1147
21664W        W40518  15.086  10.596  14.119  0.1318  0.0249 -0.0133
21665W        W40519  10.466  17.087   2.245 -0.0656 -0.2684 -0.0940
21666W        W40520   9.716  11.208  12.679 -0.4061  0.1150 -0.1337
21667W        W40521  11.800   0.091   0.354 -0.0344  0.6090 -0.1144
21668W        W40522  14.209  16.229  12.186 -0.1496 -0.3096 -0.2568
21669W        W40523   5.944  14.204  14.486  0.1177  0.0347  0.2417
21670W        W40524  13.968  18.021   0.912 -0.0744  0.1421 -0.0944
21671W        W40525  14.970  16.206  12.160 -0.3312 -0.0590 -0.0206
21672W        W40526   7.966  16.922   1.392  0.0016  0.1133 -0.0677
21673W        W40527  10.879  10.656   0.867  0.1547  0.2498  0.2216
21674W        W40528   6.761   5.084   0.579 -0.2644 -0.3420  0.0920
21675W        W40529   9.361  13.740   4.169  0.0053 -0.2680  0.0937
21676W        W40530   3.671   9.776  13.494 -0.3543  0.2007 -0.0171
21677W        W40531  14.596   9.292  12.989 -0.0906 -0.1372 -0.0844
21678W        W40532  10.651   9.428   0.938 -0.2083  0.1917 -0.0702
21679W        W40533   6.245  14.402   0.580  0.1884  0.0885  0.2052
21680W        W40534   2.313   3.301   2.381 -0.0584  0.0854  0.2043
21681W        W40535   6.821   3.847   1.036 -0.0244  0.1302  0.2145
21682W        W40536  16.138  12.487  11.891  0.2124 -0.1432  0.4931
21683W        W40537   4.695   8.483   0.014  0.3357 -0.2443  0.1080
21684W        W40538   3.269   0.184   1.357 -0.0891 -0.2152 -0.0313
21685W        W40539   9.533  17.617   2.090 -0.0799  0.0152 -0.3766
21686W        W40540  13.759   9.064   3.798 -0.2318 -0.2204 -0.2935
21687W        W40541   3.041  11.558   2.764 -0.3071 -0.0500 -0.2970
21688W        W40542  13.209   2.688  12.385 -0.1337  0.0006 -0.0828
21689W        W40543   1.921   6.487   0.399  0.4542 -0.1180  0.1508
21690W        W40544   3.957   0.995  11.788  0.2210  0.1588 -0.2646
21691W        W40545  15.578  10.953   4.234 -0.0216 -0.0088  0.4327
21692W        W40546  17.129   1.956   1.806  0.0970  0.0395 -0.2008
21693W        W40547  16.043  18.124   3.713  0.0186 -0.2339  0.2248
21694W        W40548   1.929  15.445   0.195  0.3163 -0.1402 -0.0839
21695W        W40549   0.049  11.221  11.782 -0.0683 -0.2252  0.2884
21696W        W40550   0.710   8.038  13.524  0.2087 -0.0105 -0.2096
21697W        W40551  19.066   7.449   4.299  0.1890 -0.0755 -0.1014
21698W        W40552   7.086   8.589  13.324  0.0890  0.0074  0.4266
21699W        W40553  13.765   5.971   1.286 -0.1704  0.0219 -0.2703
21700W        W40554   2.363  15.346   0.820 -0.0329  0.0690  0.0201
21701W        W40555  15.797  14.685  11.621 -0.0247 -0.0910  0.0080
21702W        W40556   2.109  15.078  13.214 -0.2330 -0.2110 -0.0425
21703W        W40557  14.431   3.410  13.426 -0.0416  0.2336 -0.0182
21704W        W40558  14.333  11.048  14.384 -0.3040 -0.0544 -0.1336
21705W        W40559  16.850  17.619  10.256 -0.0108 -0.1375 -0.2395
21706W        W40560  10.184  11.705   3.210  0.0376  0.0516 -0.1427
21707W        W40561  16.118   7.940   2.381 -0.1540 -0.0195 -0.0035
21708W        W40562  11.766  15.634   2.716  0.2024  0.1006 -0.0475
21709W        W40563  11.289   4.020   1.416  0.0635 -0.0646  0.1260
21710W        W40564   8.826   7.146   4.954 -0.1803 -0.3041 -0.1680
21711W        W40565  11.101  12.833   1.642 -0.2914  0.1594 -0.1517
21712W        W40566  15.792   0.408  12.617 -0.1871 -0.2436  0.0353
21713W        W40567  14.410  17.339  10.611  0.1429  0.0328 -0.1257
21714W        W40568  13.872  10.106  14.456  0.1648  0.0424 -0.1580
21715W        W40569  12.192  12.333   0.862 -0.2407  0.2133 -0.0926
21716W        W40570   0.362  12.926  13.506  0.1335 -0.1541 -0.0351
21717W        W40571  10.746  17.958   3.615  0.2052  0.1779 -0.0601
21718W        W40572  12.061  10.364   2.818  0.0554 -0.2305 -0.3822
21719W        W40573  13.899  17.806  13.974  0.0476 -0.1803 -0.1513
21720W        W40574  18.111   7.075  12.376 -0.3036 -0.2346  0.1993
21721W        W40575  10.827   8.723  12.051 -0.1784  0.0841  0.0896
21722W        W40576   1.817  16.674   1.524  0.1831  0.1233  0.3330
21723W        W40577   4.159  18.747  13.551 -0.2872  0.1384  0.2088
21724W        W40578   3.264   4.507   3.451  0.2592 -0.2144  0.0989
21725W        W40579   9.165   4.040  14.427 -0.1825  0.3871  0.4040
21726W        W40580   9.794   4.121  11.364  0.1084 -0.1969  0.0046
21727W        W40581   7.041   8.966   9.780  0.1418 -0.1558 -0.4558
21728W        W40582   5.987   0.702   3.227  0.0498 -0.1573 -0.1426
21729W        W40583  12.164   0.245   3.434 -0.1159 -0.1864 -0.1949
21730W        W40584  15.038   8.907   4.481 -0.0454 -0.0221  0.2496
21731W        W40585   3.001  14.451   0.524  0.1934 -0.3152 -0.3394
21732W        W40586  16.324  18.287   3.203  0.0110  0.0646 -0.0442
21733W        W40587  10.888  18.194  12.062  0.0277  0.0952  0.0034
21734W        W40588   7.148   3.896   4.609 -0.3224 -0.3304 -0.0032
21735W        W40589  14.706   1.739  10.337 -0.4438 -0.0665 -0.0862
21736W        W40590  18.700   6.781  13.736  0.1027 -0.0163 -0.1888
21737W        W40591  18.351   6.303   0.390  0.3855 -0.1950 -0.2604
21738W        W40592  17.834  16.586  11.184 -0.0526 -0.1498 -0.0029
21739W        W40593  15.545   3.977  14.628  0.2246  0.2666 -0.1468
21740W        W40594   7.720  17.029  11.038  0.1170  0.0336 -0.0571
21741W        W40595  16.761  18.911   3.853 -0.1940 -0.2647  0.1279
21742W        W40596  16.390  11.564   1.330 -0.2822  0.3070 -0.2771
21743W        W40597   6.232   1.492  13.658  0.0765  0.0154  0.2746
21744W        W40598  18.601  15.142  14.511 -0.2964  0.1002  0.1806
21745W        W40599   3.576  11.232  11.820 -0.2093  0.5025 -0.0115
21746W        W40600  10.813  11.048   2.576  0.2698 -0.1997  0.0430
21747W        W40601   7.915  16.182   1.746 -0.0520  0.0941 -0.0595
21748W        W40602   3.375   2.894  13.439 -0.1087 -0.1444  0.1864
21749W        W40603  13.721   1.389   3.121 -0.0880  0.2179 -0.1600
21750W        W40604   4.900   6.655   2.751  0.0142  0.1295  0.1921
21751W        W40605   0.115   2.840  14.220  0.2334  0.1343  0.1210
21752W        W40606  10.125  10.876  13.820 -0.0960  0.1357  0.3245
21753W        W40607   2.901  10.169  11.800 -0.1101  0.1911  0.2303
21754W        W40608  18.894   6.393   2.748  0.1734  0.1680 -0.0230
21755W        W40609  11.163   6.017  11.216 -0.1829  0.0135 -0.0488
21756W        W40610   8.769  11.614  13.483  0.2234 -0.0981  0.0753
21757W        W40611  16.995  18.698  11.738  0.0624 -0.0837 -0.1644
21758W        W40612   9.764   3.676   1.061  0.0230 -0.2236 -0.0660
21759W        W40613  15.397   8.841   2.571  0.2343  0.1098  0.2699
21760W        W40614   3.318  14.236  13.885  0.1247 -0.1068 -0.0656
21761W        W40615   7.506  17.971  13.441  0.0951 -0.1222 -0.2024
21762W        W40616  18.239  13.035  12.956 -0.1066  0.0269 -0.1611
21763W        W40617  15.193   1.276   0.364 -0.3179  0.0669  0.3223
21764W        W40618  14.259  15.797  11.880 -0.2857 -0.1263  0.4306
21765W        W40619   5.388   3.553  11.554  0.1011 -0.0824 -0.1171
21766W        W40620  15.612  16.940   2.008 -0.2980 -0.0555 -0.0092
21767W        W40621   0.935  11.325  14.426 -0.3318  0.0587 -0.4721
21768W        W40622  11.111  15.888   1.983 -0.0848 -0.1336  0.3475
21769W        W40623  10.107  13.327   0.252  0.0894 -0.1933 -0.2891
21770W        W40624   3.783   6.523   3.396 -0.4181  0.2436  0.4391
21771W        W40625  12.940   6.939   0.869 -0.0119  0.0967 -0.0315
21772W        W40626   0.522   8.953   2.055 -0.2804  0.2663  0.0621
21773W        W40627  14.592   4.612  11.437 -0.1945 -0.0749 -0.0629
21774W        W40628   1.859  10.600   3.550 -0.0793  0.0854  0.2295
21775W        W40629   5.941   5.343  13.743  0.6910  0.0762 -0.2596
21776W        W40630   5.983   8.831   1.678  0.0069 -0.1151 -0.0659
21777W        W40631  11.783  14.906  12.958 -0.0893  0.1464 -0.1664
21778W        W40632  19.003   2.340   1.319  0.1563  0.1165 -0.0196
21779W        W40633   8.863  17.030   0.126 -0.5400 -0.1927  0.2846
21780W        W40634  10.854   6.485   2.545  0.1350  0.0757  0.0294
21781W        W40635  14.482   1.930  14.726 -0.2826 -0.2940  0.0591
21782W        W40636  16.818  10.648  12.744  0.0439 -0.0416 -0.0523
21783W        W40637   2.764  16.762   2.370 -0.2943 -0.3395 -0.0717
21784W        W40638   3.873  18.097   3.332 -0.4894 -0.0703  0.0754
21785W        W40639   9.219  10.913   2.548 -0.5672 -0.3605 -0.3403
21786W        W40640   9.229  11.835  13.008  0.1507  0.2619 -0.1803
21787W        W40641   3.039  12.941  10.838 -0.0122  0.2868  0.0486
21788W        W40642  10.265  18.890  11.641  0.0419  0.2416  0.0517
21789W        W40643   4.354   6.652  11.820  0.0882 -0.0188 -0.0516
21790W        W40644   3.025  15.460  11.974  0.0292  0.0053 -0.4290
21791W        W40645  16.798  16.221   1.057  0.1270 -0.0721  0.0801
21792W        W40646  17.284  17.946  12.450  0.2476 -0.0814 -0.0301
21793W        W40647   0.006   0.436   1.969  0.2323  0.0993 -0.0193
21794W        W40648  13.478  13.742  14.503  0.0224  0.1314  0.3510
21795W        W40649  16.500  15.613  12.418  0.1864 -0.2867 -0.3646
21796W        W40650  11.298  18.644   2.453 -0.2277 -0.4036  0.0039
21797W        W40651   9.954   5.412   2.943  0.2695 -0.0993 -0.2499
21798W        W40652  18.007   2.356  10.904  0.0290 -0.0929  0.0877
21799W        W40653   1.523  16.486   0.069 -0.0209  0.1032 -0.4684
21800W        W40654   4.838  14.979   1.745  0.0806 -0.2397  0.2855
21801W        W40655   3.329  10.613  12.443  0.1929  0.3285 -0.4147
21802W        W40656  12.658   1.478   1.284  0.2276 -0.1398 -0.0407
21803W        W40657   5.896   4.782  14.289  0.0771  0.0719 -0.1967
21804W        W40658   0.873  18.949  14.406  0.1912 -0.1295  0.0159
21805W        W40659  16.558   1.194  13.946 -0.3112 -0.3233 -0.0786
21806W        W40660   9.739   3.242   1.451  0.3037  0.3102 -0.0743
21807W        W40661   8.536  16.957   3.511  0.0308 -0.0250  0.1070
21808W        W40662   5.347   6.842   1.852  0.1672 -0.1881 -0.1757
21809W        W40663   6.630  17.265   2.027  0.1510 -0.0645 -0.0414
21810W        W40664   7.086   3.894  11.281  0.2282 -0.3091 -0.1181
21811W        W40665   9.292   3.214  10.782  0.0234  0.1677  0.1163
21812W        W40666   4.504  10.626   4.013 -0.2099 -0.0563  0.1000
21813W        W40667  14.836   5.322   3.228  0.0755  0.2676  0.3206
21814W        W40668  10.355  11.924  12.494  0.0162  0.3375 -0.0745
21815W        W40669   7.291   3.225   3.539 -0.1974 -0.0832 -0.1901
21816W        W40670  11.201  11.149  12.620 -0.0144  0.3256  0.1142
21817W        W40671   1.349   9.455   0.088  0.1583  0.1759  0.2584
21818W        W40672   0.287   4.358   2.543 -0.0007 -0.1309 -0.0004
21819W        W40673   1.387  16.556  12.945  0.1227 -0.0222  0.0447
21820W        W40674  13.826  19.045   0.978 -0.0590 -0.2427 -0.0248
21821W        W40675   4.710  16.461  12.791 -0.2801 -0.0386 -0.0468
21822W        W40676   7.649  11.204   3.941 -0.0783 -0.2288 -0.2103
21823W        W40677  15.279  10.721   1.450  0.0112 -0.0410  0.0379
21824W        W40678   6.595  18.502  11.325  0.1717 -0.1487 -0.3271
21825W        W40679   3.884  15.811   4.031 -0.2854  0.1567 -0.1105
21826W        W40680  10.716   1.482  13.827 -0.1912  0.0992  0.1102
21827W        W40681   3.733  11.923  11.693  0.1023  0.0033  0.0392
21828W        W40682  14.602   0.088  12.815  0.2210 -0.1516 -0.2497
21829W        W40683  15.714   5.150  10.732 -0.2033  0.1670 -0.2323
21830W        W40684   9.803  13.558   2.056 -0.0034  0.1317  0.0038
21831W        W40685   9.206   2.318  14.671  0.1018  0.0787 -0.0516
21832W        W40686  12.278   9.889  10.194 -0.0876  0.2483  0.3275
21833W        W40687  10.795   8.712   2.431 -0.1125 -0.2756 -0.0801
21834W        W40688  10.933   9.531  12.176  0.2569  0.2506 -0.2676
21835W        W40689   4.028   6.610   2.892  0.4177 -0.3117  0.0171
21836W        W40690  12.996   6.639   1.294  0.0471  0.0613  0.2022
21837W        W40691   8.897   6.872  12.423 -0.0482  0.4344 -0.1158
21838W        W40692   4.600   4.129  12.742 -0.0000 -0.0912 -0.0856
21839W        W40693   0.008  16.903   2.333  0.5398 -0.0144 -0.1522
21840W        W40694   5.167   7.204   1.573 -0.2081  0.1897  0.0725
21841W        W40695   3.299   4.976   0.774 -0.2389  0.0088  0.1475
21842W        W40696   5.706   2.103  10.850 -0.0513 -0.3622  0.0332
21843W        W40697   0.602  17.983   1.664  0.2280 -0.0987  0.1224
21844W        W40698   6.366  12.505  12.182 -0.1980 -0.2074 -0.0008
21845W        W40699  14.690  15.118  11.979 -0.0235  0.2078 -0.2577
21846W        W40700   6.929  12.655  10.992  0.0275  0.2734  0.0141
21847W        W40701   9.336   3.707  13.039  0.1012 -0.3938 -0.1756
21848W        W40702   8.420   1.887  11.506 -0.2671 -0.2970 -0.1351
21849W        W40703   8.824  16.277  12.391  0.0335  0.1134  0.2114
21850W        W40704   4.488   9.819  12.660 -0.4838  0.3793  0.0725
21851W        W40705  14.135  10.696   3.147  0.1385  0.0326 -0.0014
21852W        W40706  16.526   0.117  12.101  0.1581 -0.0359  0.3375
21853W        W40707   7.575   8.561   0.869  0.0193 -0.1137 -0.1895
21854W        W40708   3.107  11.179   0.008 -0.0159 -0.0072  0.0990
21855W        W40709  16.839   1.278  13.123  0.1567 -0.0771 -0.1890
21856W        W40710   8.259  12.717  14.331  0.0524  0.3146  0.1760
21857W        W40711  15.754   3.409   2.105 -0.0972 -0.0905 -0.0970
21858W        W40712  18.050  13.325   0.036  0.0195 -0.2687  0.1212
21859W        W40713  14.673  11.340  13.038  0.2748  0.1005  0.0200
21860W        W40714  10.236   3.144   3.543  0.4262 -0.3107  0.2337
21861W        W40715  14.321   9.678  12.901 -0.2394  0.1055 -0.1618
21862W        W40716   8.444   5.127  10.647 -0.0906  0.2773 -0.1352
21863W        W40717   1.937  13.661   1.993 -0.0356 -0.3286 -0.0549
21864W        W40718  15.460  14.849  12.405 -0.2822 -0.0081 -0.0592
21865W        W40719   3.994   5.341  11.749  0.0928  0.1726 -0.1050
21866W        W40720  17.893   6.655   4.441  0.2942 -0.1170  0.1140
21867W        W40721  10.505   2.900   1.229 -0.0089  0.1331  0.0825
21868W        W40722  16.479   8.011   0.244 -0.2276 -0.2168  0.1936
21869W        W40723  17.523   5.376  14.608 -0.0474 -0.1562 -0.3119
21870W        W40724  13.226  14.024  11.786 -0.0354 -0.0608 -0.1580
21871W        W40725   9.372  18.201  10.983 -0.1416 -0.2256 -0.2150
21872W        W40726   0.756  13.804   3.733 -0.0579  0.2444  0.1435
21873W        W40727   2.439  18.167  11.935  0.2060 -0.1774 -0.0601
21874W        W40728   7.360  11.935  10.704 -0.2744  0.0884  0.0162
21875W        W40729   5.530   9.623   0.496 -0.0027  0.1241 -0.1212
21876W        W40730  16.817  12.538   2.913 -0.0271  0.6199  0.4156
21877W        W40731   3.755   2.303   4.374  0.0813 -0.0347 -0.0614
21878W        W40732  17.221  17.166  12.419 -0.1697 -0.0951  0.2368
21879W        W40733   8.993  14.595   1.358  0.0881  0.2479 -0.1431
21880W        W40734   5.272   3.426   1.882 -0.2538 -0.2111  0.0786
21881W        W40735   6.119  12.690  11.785 -0.2234  0.3435 -0.1049
21882W        W40736   6.805   4.622  14.723  0.0487  0.2430  0.0605
21883W        W40737  13.758  15.079   3.507  0.0102  0.0159 -0.0063
21884W        W40738  10.343   4.420   3.907 -0.2151 -0.0367 -0.0012
21885W        W40739   9.741   1.081  13.932 -0.1565 -0.1839 -0.1838
21886W        W40740  13.834  12.827   5.142  0.2579 -0.1745 -0.0758
21887W        W40741  10.325  14.103  11.595  0.1963 -0.0241  0.1005
21888W        W40742  12.930  16.756  11.592 -0.0452 -0.0716 -0.3909
21889W        W40743   7.939  15.755  14.369  0.1294  0.1291  0.0607
21890W        W40744  15.814   8.694   1.585  0.2171  0.0836  0.1075
21891W        W40745  15.754   4.612   1.597 -0.0624 -0.1115 -0.0975
21892W        W40746   2.878   8.569  10.132  0.0619 -0.1421  0.2663
21893W        W40747   2.872  13.384  12.776 -0.0657 -0.1028 -0.1281
21894W        W40748   6.018   0.370   0.843  0.1389 -0.1088 -0.0765
21895W        W40749  19.068   4.571  13.921 -0.1460  0.2908 -0.0271
21896W        W40750   8.058   4.778  10.696  0.1875  0.1278 -0.0312
21897W        W40751   7.866   9.464  12.097 -0.0813  0.3030  0.1326
21898W        W40752  17.210  12.084   2.523  0.2159 -0.2069  0.0052
21899W        W40753   9.070  13.498  11.824  0.0426 -0.1532  0.0146
21900W        W40754   4.529  12.535   3.282 -0.0040 -0.1253 -0.3823
21901W        W40755  15.472   3.355   2.546  0.1957 -0.1916 -0.0041
21902W        W40756   8.306  10.160  11.858  0.3767  0.1571 -0.0788
21903W        W40757   9.429   5.555   2.428  0.2871 -0.1166 -0.0259
21904W        W40758  18.662   5.194  14.425 -0.1518 -0.0877  0.0910
21905W        W40759  14.678  12.256   0.931  0.1332  0.0280 -0.0018
21906W        W40760   6.053   5.540  11.618  0.0427 -0.0757  0.0451
21907W        W40761   8.500   5.787  13.993 -0.2197 -0.0735 -0.1930
21908W        W40762   8.130  11.238   1.550  0.0095 -0.2518  0.0830
21909W        W40763  12.304  14.516  13.551  0.2540  0.3462  0.2330
21910W        W40764  17.446   4.000  14.421  0.1357 -0.3477 -0.1823
21911W        W40765  17.173  18.309   0.193 -0.0325 -0.2569 -0.0863
21912W        W40766   6.288  11.131  12.098 -0.0235 -0.0212 -0.1328
21913W        W40767   5.512  15.727   3.909 -0.1315 -0.1656 -0.0515
21914W        W40768  16.324  18.672   1.977  0.1325  0.1700 -0.0426
21915W        W40769   7.215  13.508   0.372  0.1268 -0.1516  0.3555
21916W        W40770   4.135  11.581  13.278 -0.0706  0.1636  0.5300
21917W        W40771  12.634  11.511   4.177  0.0671  0.1188  0.1171
21918W        W40772  16.337  14.733  13.480 -0.2535  0.2452  0.2027
21919W        W40773  11.137   9.700   1.207  0.0369 -0.0530 -0.1872
21920W        W40774  15.975   0.033  10.923 -0.2188  0.0320 -0.0727
21921W        W40775   0.975  17.167   2.164 -0.0195 -0.0209 -0.1070
21922W        W40776  11.251   1.760   2.861  0.0293  0.0604  0.0504
21923W        W40777  15.098   6.448  10.839  0.0985 -0.2229 -0.2476
21924W        W40778   2.171   9.045  12.365 -0.2158 -0.2544  0.2192
21925W        W40779   9.256  17.907   2.487 -0.2030  0.1664  0.1629
21926W        W40780  12.799  12.558   3.987  0.0139 -0.1395 -0.0405
21927W        W40781   6.431  10.660   0.161 -0.2206  0.0239 -0.1653
21928W        W40782  17.107   4.384   0.933 -0.3282  0.5812  0.0012
21929W        W40783  17.742   4.972  14.741  0.0788  0.2014 -0.2385
21930W        W40784   3.302  18.089   2.312  0.1100  0.4013  0.3169
21931W        W40785  11.534  15.065  12.353  0.0052  0.0753  0.2019
21932W        W40786  18.690  12.969   4.244  0.0408  0.1289 -0.1816
21933W        W40787  10.083   8.552  12.676 -0.1995 -0.0991  0.0716
21934W        W40788  10.511  17.094   1.370 -0.2037  0.4908 -0.0097
21935W        W40789  14.843  17.987   0.440  0.1483 -0.0008  0.1155
21936W        W40790  18.528   9.533   0.294  0.1506  0.4290 -0.0335
21937W        W40791  15.733  16.473   2.245  0.1786  0.3066 -0.0439
21938W        W40792   3.342  18.964   2.135  0.1211 -0.0208  0.0976
21939W        W40793   5.413  12.461  12.931  0.3299  0.1285 -0.0436
21940W        W40794  19.132  12.029  10.493 -0.0289  0.0089 -0.0817
21941W        W40795  15.632  12.403  11.697 -0.2340 -0.3720 -0.1670
21942W        W40796   4.907  10.950  14.126  0.1511  0.0891 -0.0667
21943W        W40797  16.625   0.170  14.092 -0.0172  0.1902 -0.0838
21944W        W40798  17.120  11.138   3.768 -0.0910 -0.2932 -0.1828
21945W        W40799  15.789   6.752  10.018  0.1039 -0.2175 -0.3343
21946W        W40800   7.159   4.154  10.847 -0.1887  0.2993  0.2760
21947W        W40801  10.546   4.682   3.505  0.1977  0.0937 -0.1624
21948W        W40802   0.991  14.657   2.763  0.1487  0.1123 -0.1079
21949W        W40803   6.013  17.395  14.382  0.0273  0.0448 -0.1514
21950W        W40804   6.925  16.631  14.048 -0.0956  0.1664  0.0294
21951W        W40805  13.332  13.759   1.657 -0.3500  0.0507  0.1398
21952W        W40806   8.618   4.859   2.716  0.1050  0.1182  0.2582
21953W        W40807  13.577   9.752  11.096  0.2647 -0.0950 -0.0844
21954W        W40808  11.991  10.876   0.292  0.3466  0.2563 -0.3470
21955W        W40809   5.677   6.894   4.301  0.2434 -0.3341  0.0035
21956W        W40810   2.509   6.339  13.417  0.1401  0.3258  0.1181
21957W        W40811   6.709  16.889  14.416  0.0498 -0.2888 -0.1751
21958W        W40812   5.407   5.010   3.907  0.2192 -0.3514 -0.2275
21959W        W40813   4.193  14.863   4.227  0.0310 -0.1335 -0.1806
21960W        W40814  10.273  14.690  13.364  0.0747 -0.0594  0.0419
21961W        W40815  15.936   7.765   1.677  0.2701 -0.1379 -0.0829
21962W        W40816  15.463  12.661  12.815 -0.1745  0.1578  0.2108
21963W        W40817   2.988  14.594  11.769  0.1041 -0.0298  0.0370
21964W        W40818   2.397  13.644  11.245  0.0412  0.1542 -0.3210
21965W        W40819   2.043  11.824  11.939 -0.3177 -0.1958 -0.1751
21966W        W40820  15.020  16.509  10.968  0.0293  0.0806 -0.0745
21967W        W40821   5.571  12.199  14.342 -0.4462  0.1670  0.1824
21968W        W40822   5.302   3.067  12.414 -0.0335  0.0982  0.0810
21969W        W40823   7.278  16.013   0.873 -0.1016  0.0093  0.2666
21970W        W40824   2.178  15.089   0.455  0.3357  0.2241 -0.0813
21971W        W40825   2.956   5.179  14.616 -0.0203 -0.5251  0.1915
21972W        W40826  18.503   5.306   0.113  0.1165 -0.0164 -0.0616
21973W        W40827  17.828   9.178  12.897 -0.1743  0.2239  0.1142
21974W        W40828  14.860   7.414   2.960  0.1543  0.0661 -0.1889
21975W        W40829  10.142  14.540  10.534  0.0226 -0.1190  0.2645
21976W        W40830  11.167  11.211  11.010 -0.2585 -0.2200 -0.2186
21977W        W40831   0.395   5.921  13.442 -0.0275 -0.1927  0.1516
21978W        W40832   7.526   8.737  11.662  0.2312  0.0627 -0.0108
21979W        W40833   0.705  14.536   3.175 -0.1835  0.1616 -0.1129
21980W        W40834  11.143  17.318  11.559  0.0515  0.0786  0.2506
21981W        W40835   0.484   7.277  14.247  0.0994  0.0067 -0.4416
21982W        W40836  16.653   5.395  12.166  0.0793 -0.1198 -0.3817
21983W        W40837  10.653  15.266   3.896  0.1792 -0.0586  0.0071
21984W        W40838  17.219   4.385  10.689  0.1182 -0.1784  0.1026
21985W        W40839  12.796   8.738   2.452 -0.3860 -0.1432  0.0446
21986W        W40840   6.172   6.619  11.320  0.2481  0.3101 -0.0265
21987W        W40841  10.887   2.355  12.957 -0.2442 -0.1733  0.2617
21988W        W40842   0.532   3.179   3.140 -0.4086  0.1574 -0.0822
21989W        W40843  12.831  16.858  14.475 -0.2762 -0.0112 -0.2283
21990W        W40844  16.715  14.199   4.154 -0.0509 -0.3066 -0.1870
21991W        W40845   4.735   5.782   1.981  0.1536  0.1291 -0.4833
21992W        W40846  11.184   2.519  13.731  0.1902 -0.2305 -0.0589
21993W        W40847  14.997  13.857  13.962  0.3937  0.0871  0.1558
21994W        W40848  15.728  13.882  11.981  0.1541 -0.0809 -0.0104
21995W        W40849  11.544  11.305   0.691  0.1095 -0.2447  0.0189
21996W        W40850  10.696   3.940  11.435 -0.2163  0.2014  0.1298
21997W        W40851  16.714   3.555  13.182 -0.2310  0.1980  0.0324
21998W        W40852  10.948  18.782   1.548  0.0690  0.1089  0.2127
21999W        W40853  10.388  14.551  11.774  0.0227 -0.3853  0.2026
22000W        W40854   0.544  17.106  11.745  0.2884  0.2834 -0.1078
22001W        W40855   8.004   6.338  11.687  0.2276 -0.2305 -0.1724
22002W        W40856  11.810  13.215   4.246  0.5313  0.1972 -0.1399
22003W        W40857  17.393  12.374   2.143  0.1487 -0.0612 -0.2791
22004W        W40858   9.898  12.916  13.701 -0.3021 -0.0314  0.0675
22005W        W40859   3.135   5.967  10.448  0.4611  0.0533 -0.3119
22006W        W40860  10.674  11.779   3.157 -0.3034  0.1391  0.0188
22007W        W40861   7.397   4.520   2.331  0.1204 -0.2885  0.0099
22008W        W40862   2.888   7.939  14.635 -0.1073  0.2284 -0.1667
22009W        W40863  18.061   0.449  12.487  0.0957 -0.2175  0.1803
22010W        W40864  14.796   3.770   1.938 -0.3275  0.1014  0.1973
22011W        W40865   1.245   7.882   3.346  0.2473  0.0867 -0.2007
22012W        W40866  16.283  15.535  14.522 -0.0982 -0.0157 -0.1943
22013W        W40867   2.257   8.594  11.255 -0.2107  0.0523 -0.1128
22014W        W40868  15.435   6.414  11.798  0.2481  0.1697 -0.1401
22015W        W40869  13.913   6.115   4.094  0.0443  0.1352  0.0942
22016W        W40870   4.786   9.966   4.295  0.0325 -0.0807  0.0433
22017W        W40871   5.780   3.390   2.328 -0.2211 -0.1889 -0.1471
22018W        W40872   5.910  12.705  13.847  0.1621 -0.0048 -0.1049
22019W        W40873  15.492  10.978   2.001  0.2220  0.3873 -0.1920
22020W        W40874  12.166  17.433   3.003 -0.0353 -0.0122  0.0461
22021W        W40875   2.748   9.350   1.532 -0.2004  0.1130 -0.2366
22022W        W40876   2.134   8.774   4.521  0.2468  0.0257 -0.0729
22023W        W40877  13.960  10.492   3.920 -0.0008  0.1408  0.2654
22024W        W40878   5.258   2.351   1.433  0.0359 -0.0563 -0.0734
22025W        W40879   7.394  16.409  14.214  0.1499  0.0174 -0.0033
22026W        W40880   4.378   6.957   1.059  0.1875 -0.0010 -0.1270
22027W        W40881   8.983  16.494   1.326 -0.2743 -0.0408  0.1317
22028W        W40882   9.858   2.701  14.352  0.0731  0.1159  0.2891
22029W        W40883   4.798  15.564  10.514 -0.0863  0.1140 -0.0061
22030W        W40884   3.965  16.500   1.817  0.0322 -0.2417 -0.1334
22031W        W40885  15.335   5.056  14.194 -0.1352 -0.1916  0.0731
22032W        W40886  13.316  11.517   0.152  0.1025  0.3610  0.1653
22033W        W40887  15.222   8.368   4.555 -0.3084  0.1079 -0.1254
22034W        W40888   6.478   2.489  13.450 -0.1617 -0.1847  0.1659
22035W        W40889   0.480  17.109   2.380 -0.1301  0.2795 -0.3645
22036W        W40890  17.484  11.927   1.992 -0.0261  0.3576  0.1238
22037W        W40891  14.793  14.716  13.162  0.0974 -0.0409 -0.1464
22038W        W40892   3.931  11.574  14.332  0.2478 -0.1057  0.1057
22039W        W40893  12.163   8.589  12.364 -0.1933  0.2960  0.1981
22040W        W40894   0.919  13.635  13.791  0.1994 -0.1328 -0.1683
22041W        W40895   8.665  17.071  12.939  0.2486  0.1980 -0.1292
22042W        W40896  10.514   7.705  13.701  0.0903 -0.2459 -0.5450
22043W        W40897   1.750  15.782   1.284 -0.2125 -0.3293 -0.0539
22044W        W40898  14.789  16.570  11.716 -0.0492 -0.0970  0.3094
22045W        W40899   6.190   4.098   3.720 -0.1195  0.3416  0.1120
22046W        W40900   9.881  11.938   1.045 -0.1986 -0.1003 -0.0049
22047W        W40901  19.083  15.243   1.380  0.1702  0.5900  0.2334
22048W        W40902  13.169   5.187   0.078  0.1128  0.0100 -0.1637
22049W        W40903   4.509   0.611  14.326  0.0085  0.1555  0.1527
22050W        W40904   2.940   6.063   1.782 -0.1023 -0.0986  0.3745
22051W        W40905  13.840  14.018  14.678 -0.3556 -0.0575  0.0293
22052W        W40906   3.807   8.601   1.710 -0.0496  0.0643  0.1461
22053W        W40907   5.023  11.364   2.715 -0.0643  0.1574  0.1514
22054W        W40908   5.016  15.325   1.528  0.1981 -0.1193  0.2433
22055W        W40909  17.612  16.838  12.912 -0.0619 -0.1982 -0.1378
22056W        W40910  15.443   6.782  10.754  0.0594  0.0561  0.0699
22057W        W40911  12.605   6.446  10.974 -0.1230 -0.2395 -0.1516
22058W        W40912   6.557  14.642   3.982 -0.2560 -0.1168 -0.3607
22059W        W40913  18.131  14.209  14.646 -0.3395 -0.0647  0.1901
22060W        W40914  17.719   8.609   1.012 -0.3588 -0.3255 -0.0350
22061W        W40915   4.956   9.444  14.435  0.0766  0.3974 -0.0734
22062W        W40916  16.536   5.505  12.918  0.1892 -0.1062 -0.1684
22063W        W40917   6.605  10.897   4.004 -0.1390 -0.0166 -0.2487
22064W        W40918  10.670  10.098   3.044 -0.3872 -0.2208  0.2080
22065W        W40919   4.330  12.656  14.264 -0.0143 -0.1013  0.3631
22066W        W40920   1.891   0.956  11.979  0.2169 -0.1522  0.1303
22067W        W40921   8.790  12.135  11.739  0.1277 -0.2234  0.0608
22068W        W40922  16.297  18.297   1.166  0.6688  0.2964 -0.0029
22069W        W40923   8.513  12.719  12.165  0.3047  0.1914  0.0464
22070W        W40924   8.837   1.143  13.576  0.1904  0.1907  0.2020
22071W        W40925   9.717  11.020   1.133 -0.2133  0.2033 -0.3263
22072W        W40926   5.020   5.749  12.694 -0.1374  0.0152 -0.1908
22073W        W40927   1.733   7.362  13.748 -0.1244  0.0920 -0.0732
22074W        W40928  15.308  17.776   0.340 -0.1164  0.4293  0.0866
22075W        W40929  10.306  10.763  13.088 -0.1000  0.2474  0.1331
22076W        W40930   4.573  14.703   3.948 -0.1771 -0.1341  0.0277
22077W        W40931   2.294   1.495   1.273  0.1163 -0.1070 -0.3218
22078W        W40932  14.382  18.424   1.010  0.0889  0.3600 -0.1049
22079W        W40933   4.626   9.362  10.964 -0.2652  0.1413  0.2486
22080W        W40934   3.534  15.609  13.416 -0.0033  0.0261 -0.0850
22081W        W40935  16.557   2.828   2.435  0.2702  0.0908 -0.3567
22082W        W40936   6.273   2.593   0.698  0.0257  0.2070 -0.3411
22083W        W40937   8.125  15.622   0.910 -0.2685  0.2192  0.0307
22084W        W40938   7.785  12.428  12.010 -0.2223  0.0398  0.0739
22085W        W40939  16.849   1.805   3.193  0.0293 -0.0041 -0.1338
22086W        W40940   0.634   1.510   0.610  0.2205  0.3640 -0.1194
22087W        W40941   1.496  14.859   2.796 -0.1234 -0.2720 -0.2411
22088W        W40942  11.914  12.742  14.736  0.0363 -0.2732  0.0555
22089W        W40943   2.580   8.924  12.038  0.1210  0.1038 -0.1507
22090W        W40944  13.265  15.699  14.516 -0.1932 -0.0786  0.2362
22091W        W40945  11.817  17.067  14.136 -0.0663 -0.2585  0.0354
22092W        W40946   9.675   2.363  13.297  0.0635  0.2230  0.2529
22093W        W40947   3.099   6.997   2.834  0.0700  0.0148 -0.0257
22094W        W40948  18.862  17.812   3.861  0.0203  0.1027  0.3670
22095W        W40949   8.826  11.849   2.408  0.0309 -0.0308  0.0184
22096W        W40950   0.022  12.726  14.575  0.4421  0.0758  0.4454
22097W        W40951  13.764   4.781  12.444 -0.0673  0.1947 -0.2296
22098W        W40952   6.823   9.232   4.548 -0.0269  0.2591 -0.0711
22099W        W40953  17.789   1.353   1.643  0.3330  0.1472  0.1687
22100W        W40954  14.036  13.812  13.815 -0.0762 -0.2067 -0.1783
22101W        W40955  18.694  17.637  12.463 -0.1375  0.1521 -0.0910
22102W        W40956  18.548  11.196  12.503  0.0654  0.0959  0.0484
22103W        W40957   6.421   5.109   1.036  0.2615 -0.0424  0.0484
22104W        W40958  17.060   9.073  12.102  0.0558  0.3491  0.1095
22105W        W40959   8.027  11.973   2.164 -0.1636 -0.2674 -0.0616
22106W        W40960   7.472   5.673   4.816 -0.2094  0.0271  0.2545
22107W        W40961  11.721   4.779  12.875  0.0353  0.1593 -0.0194
22108W        W40962  18.750  18.290   0.831  0.0275 -0.1847  0.2021
22109W        W40963   4.278  12.103   1.643 -0.2391  0.1504  0.1968
22110W        W40964   9.306  17.836   0.305 -0.0443  0.2030  0.0339
22111W        W40965   7.147   6.414  13.421 -0.1773  0.1959  0.1278
22112W        W40966   8.462   5.592  12.655 -0.0601 -0.1266  0.3230
22113W        W40967  10.014  15.185   4.151  0.0537  0.0444 -0.1536
22114W        W40968   6.536   0.935   1.236 -0.1175  0.0641  0.1335
22115W        W40969   1.994   4.505  14.592 -0.0588 -0.0112  0.0149
22116W        W40970   2.923  15.921   2.913  0.0316 -0.3368 -0.1867
22117W        W40971   7.949  18.172  13.300 -0.0110 -0.2381  0.2729
22118W        W40972   1.668  13.992   1.051 -0.1626 -0.0105  0.0019
22119W        W40973   8.807   1.401  12.610  0.0658 -0.2116  0.0536
22120W        W40974   8.114  10.575  14.232 -0.1652  0.2900  0.1776
22121W        W40975   2.204   9.808   3.229  0.1891 -0.0626  0.2165
22122W        W40976  13.915   1.629  14.072 -0.0232 -0.3109  0.2161
22123W        W40977   5.382  15.675   2.491  0.1930  0.1243  0.1356
22124W        W40978  14.463  15.771   0.291  0.1757 -0.0046  0.0634
22125W        W40979   2.089   1.921   0.152  0.4280  0.0104 -0.0639
22126W        W40980  16.908   0.830   2.238  0.2237  0.1139  0.0832
22127W        W40981   9.806  13.289   0.723 -0.4578 -0.0758  0.1392
22128W        W40982  15.861   5.090  11.704 -0.0914  0.0395  0.0958
22129W        W40983   4.561  10.775   1.695  0.0236 -0.0051  0.0750
22130W        W40984  14.581  12.150   0.415 -0.1269 -0.5216  0.1792
22131W        W40985   7.114   0.898  10.124 -0.0500  0.0223  0.0704
22132W        W40986  18.176  19.147  13.027  0.1593  0.3345 -0.0824
22133W        W40987   6.412  16.488  11.800 -0.4258  0.0913 -0.2097
22134W        W40988  12.415   6.346   0.680  0.2046  0.1405 -0.0073
22135W        W40989  12.507   5.902  10.916 -0.3098 -0.0182  0.2173
22136W        W40990  13.480  10.910  11.208 -0.0408  0.0245  0.2903
22137W        W40991   4.354   9.154   1.764  0.2069  0.2856 -0.5250
22138W        W40992  12.551   7.262   0.706  0.0401  0.0121  0.1561
22139W        W40993   6.470   2.559   2.727  0.2095  0.0239 -0.3368
22140W        W40994   4.387   8.978   4.024  0.0759  0.0134  0.1448
22141W        W40995   4.573  11.668   2.780 -0.1048 -0.1593 -0.0532
22142W        W40996  11.116  18.199  11.599 -0.1255 -0.0722 -0.2513
22143W        W40997  13.120   3.804  12.418  0.0139  0.1725 -0.2631
22144W        W40998  12.765   7.652  11.637 -0.1282 -0.0846 -0.0776
22145W        W40999  10.127   1.395   4.013 -0.1354 -0.1483 -0.0394
22146W        W41000  13.977  12.766   2.264 -0.2765 -0.0640 -0.1407
22147W        W41001   0.674   7.693  12.749 -0.2470  0.2459 -0.1337
22148W        W41002  17.179   8.431  12.830 -0.1095 -0.0768  0.0583
22149W        W41003   8.476  12.656   0.361  0.1341  0.1376 -0.1276
22150W        W41004  13.642   2.716  13.331 -0.2238 -0.3708 -0.2157
22151W        W41005  11.482  13.907   3.062 -0.1825  0.4733  0.2335
22152W        W41006  10.591   8.678   1.562 -0.0211  0.2314 -0.1486
22153W        W41007   0.349  12.307   3.299  0.1593  0.1235  0.0275
22154W        W41008  17.278   8.810  11.659  0.0381 -0.0216 -0.1172
22155W        W41009   8.472  11.226   4.425 -0.2011 -0.0181 -0.0866
22156W        W41010  10.870  12.721  11.258  0.1087  0.1445  0.0534
22157W        W41011   3.173   3.004   1.861 -0.1898 -0.1034  0.3089
22158W        W41012  14.026   4.112   0.486 -0.0754  0.0884  0.0842
22159W        W41013   8.101  12.805  11.552 -0.1438  0.0247  0.1803
22160W        W41014   0.392  17.812   0.526  0.1410  0.1346 -0.1330
22161W        W41015  14.806  15.993   2.850  0.1609  0.0094  0.0631
22162W        W41016  11.419   3.204  12.373 -0.2507 -0.2429  0.0326
22163W        W41017  10.179  18.863   3.363 -0.2161  0.0598 -0.1781
22164W        W41018   7.789   4.785  13.225  0.0639 -0.0853  0.0434
22165W        W41019   3.146  11.210  13.315 -0.0087 -0.1729  0.0898
22166W        W41020   1.540  10.943   3.802 -0.0272  0.0161 -0.0556
22167W        W41021  13.231   4.327   2.209 -0.3259 -0.0505  0.3677
22168W        W41022   5.091   3.118  14.580  0.1075  0.2685  0.3486
22169W        W41023  15.301   8.720   1.759  0.1674 -0.0190 -0.0497
22170W        W41024  17.914  10.206  12.994 -0.1473 -0.2127  0.1761
22171W        W41025   6.403  14.412  11.860 -0.1890 -0.0251 -0.1077
22172W        W41026  12.891   6.059   2.608 -0.1400  0.1715  0.0510
22173W        W41027  13.326   2.962  14.192 -0.0510 -0.0013 -0.0120
22174W        W41028  18.932  15.040   1.966  0.0830 -0.0199 -0.0445
22175W        W41029  15.255  18.853   3.701  0.3148 -0.1606 -0.0461
22176W        W41030   3.550  18.357   1.294 -0.0543  0.1978  0.1820
22177W        W41031  18.345   3.944  14.607  0.2078 -0.2326  0.2519
22178W        W41032   0.033  14.940   3.851  0.0017  0.0447  0.0684
22179W        W41033   0.120  18.171   0.882 -0.0065 -0.0073  0.0552
22180W        W41034   7.385   3.981  12.046  0.1595  0.2094  0.0440
22181W        W41035   3.798   2.972   3.133  0.2252  0.1971 -0.4725
22182W        W41036   6.203   9.245   1.919  0.2752  0.1318  0.2250
22183W        W41037   7.359  14.023   4.193  0.0222  0.1887  0.2375
22184W        W41038   6.705   1.695   1.086 -0.1638 -0.1432  0.0607
22185W        W41039   1.840  16.849  14.739  0.1956  0.0693 -0.1616
22186W        W41040  12.621   3.665   2.755 -0.3465 -0.1829 -0.1177
22187W        W41041  11.617   7.643  13.262  0.1774 -0.0727 -0.1064
22188W        W41042   7.681   4.851  11.512 -0.0109 -0.4496 -0.2967
22189W        W41043  12.751   3.506  13.404 -0.3086  0.3784  0.0174
22190W        W41044   5.389   3.003   2.159 -0.0147  0.2493  0.2712
22191W        W41045   1.660  17.270  14.299  0.0756  0.0246 -0.0067
22192W        W41046   3.859  11.994  14.588  0.0973  0.0645 -0.0000
22193W        W41047   6.021  16.493  13.828 -0.1299 -0.0892  0.1000
22194W        W41048   5.411  18.430   5.215 -0.1179 -0.3743 -0.0656
22195W        W41049  18.407   6.128  14.278  0.1669  0.0053 -0.0625
22196W        W41050  14.627   1.481  13.206 -0.0891 -0.0217 -0.4119
22197W        W41051   5.062   8.892  10.326 -0.1243  0.0185 -0.2300
22198W        W41052   0.445   4.698  14.227 -0.1402 -0.3016  0.5182
22199W        W41053   5.122  17.456  12.523  0.0194  0.3818 -0.3074
22200W        W41054  15.424   5.127   5.316 -0.0955 -0.1152 -0.0448
22201W        W41055  12.738   0.883  12.246 -0.2188  0.0710  0.4213
22202W        W41056   9.189   3.769   4.440 -0.1223  0.0897  0.2411
22203W        W41057  17.207  15.934   2.017 -0.3151  0.0411 -0.2165
22204W        W41058   2.487   1.188  12.965  0.3472 -0.3275  0.0943
22205W        W41059  18.119   4.190   3.991  0.2360 -0.1517  0.0011
22206W        W41060  12.522  12.392   3.583  0.2371 -0.2056  0.1697
22207W        W41061   1.635  13.818  12.555 -0.0597 -0.1056 -0.0329
22208W        W41062  15.032   0.784   1.024  0.3165  0.0396 -0.1481
22209W        W41063   7.549   7.223  12.255  0.2440 -0.3112  0.1826
22210W        W41064   0.316  11.565   1.948 -0.3068 -0.2385 -0.0894
22211W        W41065   6.203  17.924  14.021 -0.0619 -0.1549  0.2914
22212W        W41066   4.435   5.874   2.398 -0.0236  0.1032 -0.3812
22213W        W41067   9.889   0.110  11.790 -0.1010 -0.0377 -0.0600
22214W        W41068   8.363   2.669   2.863  0.0919 -0.0487  0.1582
22215W        W41069   0.711   6.564   3.754 -0.1520  0.0043 -0.0436
22216W        W41070  17.425  12.693  13.465  0.1696  0.0147 -0.1990
22217W        W41071  15.191  15.165   0.826 -0.2962  0.2716  0.1160
22218W        W41072   6.450  16.252   2.978 -0.0153  0.0266  0.2024
22219W        W41073  16.992  18.233  13.092  0.1607  0.2056  0.3004
22220W        W41074   2.270   6.631  14.193 -0.4550  0.2331  0.1745
22221W        W41075  10.254   1.924   2.939  0.0609 -0.2472 -0.2012
22222W        W41076  13.465  10.151  10.732 -0.0308 -0.1124  0.2484
22223W        W41077   7.830   2.144   1.536 -0.0063 -0.1542  0.0923
22224W        W41078  11.927   7.640  12.495 -0.0861 -0.2004 -0.1966
22225W        W41079  15.056   7.849   0.441  0.0913  0.1111  0.1302
22226W        W41080   8.282  15.449   4.261 -0.0868  0.2183 -0.0995
22227W        W41081   7.513  10.210   3.956 -0.2247  0.0366  0.3059
22228W        W41082   2.649  15.335  13.962  0.4853  0.0976  0.2350
22229W        W41083   4.754   7.212  12.524  0.2858 -0.2852 -0.1060
22230W        W41084   7.038   1.519   3.757 -0.2072 -0.0477  0.2246
22231W        W41085  17.770  18.712  12.113  0.0525  0.0436  0.1311
22232W        W41086  14.534   8.004   4.017 -0.2122  0.1146  0.3094
22233W        W41087   8.544  10.502   0.316 -0.1007  0.2895  0.0588
22234W        W41088   1.940  17.429  13.321 -0.0823  0.2207  0.0550
22235W        W41089   8.862   8.620  10.362  0.0144  0.0279  0.0881
22236W        W41090   0.633   5.297  11.808 -0.2524 -0.0720  0.2382
22237W        W41091   6.253  18.535  10.330  0.0152  0.2300  0.0173
22238W        W41092   2.675  14.504   1.079  0.3712 -0.2141  0.1831
22239W        W41093  12.353  11.934  10.842 -0.0436  0.0292 -0.1528
22240W        W41094   3.553   1.067   0.702  0.0616 -0.2681  0.4098
22241W        W41095   3.216  13.499  11.123 -0.0779 -0.1497 -0.4206
22242W        W41096   3.087  16.886  12.434 -0.1448 -0.2017  0.0536
22243W        W41097  14.993   0.913  12.673 -0.0272  0.0402 -0.0099
22244W        W41098   0.689  11.914   0.207 -0.1410 -0.3571  0.1101
22245W        W41099  17.374   1.857  11.031 -0.1154  0.0424 -0.0455
22246W        W41100   4.727   6.065   2.741 -0.2494  0.0624 -0.2228
22247W        W41101  13.704  14.458   4.093 -0.0173 -0.1226  0.1911
22248W        W41102   7.295   8.487  14.011  0.0269  0.4632  0.2127
22249W        W41103   7.198   6.868   1.543 -0.2305  0.2908  0.1655
22250W        W41104   3.376   6.224   3.430 -0.0090 -0.3481 -0.0965
22251W        W41105   4.784   4.911  13.380  0.2760 -0.0471 -0.0405
22252W        W41106  11.670  13.502   0.843  0.2256 -0.0843 -0.2036
22253W        W41107  17.384   5.401  10.565 -0.0478  0.1095  0.1491
22254W        W41108  15.987  11.115  13.814 -0.0899  0.2186 -0.0342
22255W        W41109  17.534   8.112  13.535  0.0926  0.0503  0.0048
22256W        W41110   8.224   0.840  14.637 -0.1066  0.1092  0.0458
22257W        W41111  10.314  14.527  10.054  0.2648  0.0974 -0.0523
22258W        W41112   0.495  17.555  13.105 -0.0367  0.0988  0.0467
22259W        W41113  18.989   8.544  12.005  0.2741 -0.0429 -0.0466
22260W        W41114  14.594   6.706   4.130  0.0366  0.2027 -0.3108
22261W        W41115  11.697   1.475  11.071 -0.0052  0.2995 -0.2313
22262W        W41116   3.612  17.717   3.610 -0.2167 -0.0651  0.1654
22263W        W41117   6.708  14.509   2.654 -0.0988 -0.0801  0.0729
22264W        W41118  15.031  10.177  13.038  0.0176  0.1278  0.1203
22265W        W41119  18.324   7.660   2.547 -0.2038 -0.0269  0.0609
22266W        W41120   4.268   7.872  10.378 -0.0817  0.2164  0.4869
22267W        W41121  14.558  16.817  13.619 -0.0283  0.0386  0.0551
22268W        W41122  10.570  16.845  12.834 -0.0599 -0.1098  0.0033
22269W        W41123   6.462  16.624   3.399  0.0673 -0.2085  0.0615
22270W        W41124  17.680  11.486   3.021 -0.5200  0.0861 -0.1960
22271W        W41125  15.297  11.637   3.681  0.1205 -0.2906 -0.0841
22272W        W41126   5.163  12.000   4.088  0.3013 -0.1764 -0.1863
22273W        W41127   7.631   0.313   3.611 -0.1115  0.0797 -0.1162
22274W        W41128   0.175   1.350  13.574 -0.0887  0.0504  0.2718
22275W        W41129   5.910  10.267   3.039  0.1948  0.0265  0.0499
22276W        W41130   9.733   5.539  14.489  0.1701  0.0324  0.0610
22277W        W41131   6.563   0.225   9.735 -0.1244  0.2546 -0.0628
22278W        W41132  15.156   2.443   2.777  0.2583  0.0000  0.2547
22279W        W41133   9.175   4.979   9.363  0.0608 -0.3927 -0.1210
22280W        W41134   8.312   0.447   1.235 -0.0948 -0.1923 -0.1623
22281W        W41135   5.155  14.572   2.540  0.2508 -0.2673 -0.1767
22282W        W41136   7.951   6.230  11.168 -0.2144 -0.3296 -0.2160
22283W        W41137   9.332   1.929  14.181 -0.0173  0.2606  0.1249
22284W        W41138   3.877  14.371  14.495  0.0527  0.1762 -0.0344
22285W        W41139  18.831   6.342   2.296  0.0097  0.0393  0.0910
22286W        W41140  10.983   6.558  13.682 -0.1263  0.3446  0.1127
22287W        W41141   8.520  10.620   0.806 -0.1428 -0.3039  0.0099
22288W        W41142   9.359   1.920   4.204 -0.1004 -0.1779  0.0262
22289W        W41143   8.897   8.307  13.017  0.2130  0.0697  0.3139
22290W        W41144  10.751  13.223   1.635 -0.0591  0.1054  0.0796
22291W        W41145  15.916  17.980  10.418  0.0317  0.0391  0.0206
22292W        W41146   1.627   8.882  14.276  0.1472  0.2558 -0.4012
22293W        W41147  14.742   9.891   1.080  0.3377  0.0068 -0.0713
22294W        W41148  13.166  10.432   4.294  0.0470 -0.0362  0.1228
22295W        W41149   6.596   4.153  14.549  0.0296 -0.3259 -0.0742
22296W        W41150  18.480  18.945   0.418  0.0984  0.0120  0.1138
22297W        W41151  14.341  16.896   2.482 -0.0569 -0.3361  0.2902
22298W        W41152  11.522  13.820  12.017  0.2507  0.1236 -0.1860
22299W        W41153  18.043   7.108  11.137  0.1463  0.2029 -0.0051
22300W        W41154   9.777   7.764   2.251 -0.1314 -0.0599 -0.0047
22301W        W41155   5.108   6.340   1.446 -0.2495  0.2337 -0.1593
22302W        W41156  12.226   4.589  11.463  0.1210  0.2299 -0.2764
22303W        W41157   5.020  15.641  13.512 -0.1186 -0.1110  0.2779
22304W        W41158  13.858   9.503   4.398 -0.1746 -0.5614 -0.1790
22305W        W41159  11.243   3.305  11.347  0.3819  0.0775  0.1561
22306W        W41160   0.701   6.104  14.656  0.1553  0.3593  0.0944
22307W        W41161   6.430  11.402  12.486  0.4323  0.0594 -0.0410
22308W        W41162   2.183  11.570  11.185 -0.3326 -0.2141 -0.0677
22309W        W41163  16.193   3.163   3.249 -0.1675 -0.4535  0.0039
22310W        W41164  16.619   8.961  10.973 -0.4952  0.2176  0.0362
22311W        W41165  11.567  18.369  12.942 -0.3127 -0.0134 -0.1751
22312W        W41166  17.555  14.862   1.976 -0.3164  0.3537 -0.4193
22313W        W41167   4.744  11.319   3.171  0.0446  0.4414 -0.0365
22314W        W41168   4.110  17.269   0.925  0.1953  0.1667 -0.2421
22315W        W41169   1.707  11.036  13.855  0.0664 -0.0390  0.0579
22316W        W41170  12.749  17.715  11.161  0.0990 -0.2420 -0.0826
22317W        W41171  15.707   0.000   0.723 -0.3044  0.0244  0.1599
22318W        W41172   8.833  15.277   1.950 -0.1408  0.0307 -0.1548
22319W        W41173  10.549  11.190  11.689 -0.0972  0.2862  0.1305
22320W        W41174  12.901  15.307  13.725 -0.0195 -0.1634  0.1934
22321W        W41175   3.163  10.056   0.670  0.3604  0.0513  0.0021
22322W        W41176   4.347   6.829   2.552  0.1720 -0.1491  0.0477
22323W        W41177  12.318  15.167   1.752 -0.2891  0.3543  0.0685
22324W        W41178   4.423  11.993   3.287 -0.0107  0.4857  0.2886
22325W        W41179  18.339   4.330  12.574  0.1451  0.1613  0.0106
22326W        W41180   9.127   7.126   0.364 -0.4323 -0.0795 -0.1396
22327W        W41181   6.572   3.088   2.941 -0.1764 -0.2395 -0.0967
22328W        W41182   7.338  16.241   3.080 -0.4306  0.1256 -0.1974
22329W        W41183  11.355  14.516   4.583  0.0364  0.3437  0.0118
22330W        W41184   4.200   2.666   0.915  0.6629  0.0367  0.1435
22331W        W41185  11.934  17.667   3.814  0.3113  0.1481  0.1923
22332W        W41186  18.637   4.048  12.208  0.1117 -0.0220 -0.3016
22333W        W41187  10.566  14.747  14.774 -0.3933 -0.0097  0.0729
22334W        W41188   0.902  19.061   1.928 -0.0300  0.2361  0.0001
22335W        W41189  12.992   9.177  10.625 -0.3208 -0.0633 -0.0413
22336W        W41190   1.433   8.091   4.333 -0.0301  0.0406  0.3204
22337W        W41191  15.639  16.796  11.451 -0.3625 -0.0840 -0.1217
22338W        W41192   1.999  16.327  12.089  0.1574 -0.1792  0.0918
22339W        W41193   1.046  15.770  13.488  0.0263 -0.2026 -0.1438
22340W        W41194  16.903  15.980  13.271 -0.2622  0.3838 -0.0176
22341W        W41195  16.881  12.155  12.718 -0.2808  0.1398  0.1931
22342W        W41196  18.526   7.287  11.174  0.1929 -0.2062  0.1079
22343W        W41197  16.892   4.375  11.660 -0.1538 -0.0460 -0.1133
22344W        W41198  16.818   0.603   2.727  0.0729  0.1114  0.1106
22345W        W41199  12.844   9.864   0.769  0.1110 -0.2812 -0.4412
22346W        W41200   4.925  13.311  10.582 -0.2035 -0.3946  0.1115
22347W        W41201   2.975  17.138   5.294 -0.2202  0.2196 -0.1014
22348W        W41202  15.534  13.747   0.849  0.0648  0.0870  0.0130
22349W        W41203  14.297   1.106   2.185  0.0266 -0.0462 -0.1275
22350W        W41204  14.491  16.706   0.707 -0.0933  0.1664  0.0458
22351W        W41205   9.092  17.305   1.023  0.2913  0.0508 -0.1880
22352W        W41206   4.209   0.024   1.396 -0.1517  0.2062  0.0614
22353W        W41207   1.498   6.164  13.830  0.1410  0.0119  0.1945
22354W        W41208   5.729  17.145  11.234 -0.1625 -0.1439  0.1712
22355W        W41209  12.024  18.850  11.001  0.2891 -0.1455  0.2857
22356W        W41210   7.325  11.071   0.198  0.1354 -0.1074  0.1459
22357W        W41211   0.040   7.149  14.526 -0.0825 -0.1963 -0.0615
22358W        W41212   3.494  16.530   2.734 -0.0447 -0.0787  0.2655
22359W        W41213   7.392   4.390  13.286 -0.0972 -0.0959  0.0578
22360W        W41214   6.768  12.570  12.587  0.3323  0.0563 -0.1294
22361W        W41215   0.179   0.563   0.458  0.0927 -0.1358  0.0354
22362W        W41216   3.962  14.989  10.910 -0.1701 -0.1864  0.0409
22363W        W41217   1.351   9.782   1.815  0.0807 -0.2056 -0.2116
22364W        W41218  16.854  11.809  11.371  0.2415 -0.0060 -0.0783
22365W        W41219  19.114   7.441  13.032 -0.0362 -0.0793  0.3967
22366W        W41220   1.490  17.687  13.056  0.0006  0.3596 -0.0519
22367W        W41221   5.799  16.696  10.369 -0.1095 -0.1280  0.1170
22368W        W41222  11.864   9.825  11.049  0.0719  0.1961 -0.1523
22369W        W41223  10.393  12.696  13.892 -0.1038 -0.0877 -0.0254
22370W        W41224   9.471  15.826   0.155  0.0173  0.2054  0.0437
22371W        W41225  12.815  18.649   2.355  0.0517 -0.2514 -0.1032
22372W        W41226  17.468  16.092   4.042 -0.3061  0.2340 -0.1503
22373W        W41227   9.802   0.490  13.721  0.3270  0.0224  0.0952
22374W        W41228   2.565   3.799  14.223 -0.0035 -0.1765 -0.0895
22375W        W41229  10.583  15.049  13.093 -0.0585  0.1879  0.0886
22376W        W41230  16.363   3.274   4.051 -0.2195  0.0393  0.1318
22377W        W41231   2.835   2.713  12.126  0.0954  0.0934  0.0505
22378W        W41232  12.263   8.099   1.497 -0.0865  0.2336 -0.1303
22379W        W41233   3.233   2.258  10.720 -0.0874 -0.2121 -0.1209
22380W        W41234  17.939  10.212   1.522  0.2137  0.3883 -0.0269
22381W        W41235  18.836   1.453  14.555 -0.0423 -0.2241  0.0865
22382W        W41236   5.977   9.005  13.874  0.1603 -0.1161 -0.0009
22383W        W41237   9.197   0.921   9.813 -0.1433  0.0180  0.0357
22384W        W41238   0.195   4.635   1.639  0.0105 -0.2358 -0.1731
22385W        W41239   2.902   4.476  14.167 -0.2099 -0.1435  0.2452
22386W        W41240   2.191   6.163  14.452  0.3641  0.2771 -0.0006
22387W        W41241  12.977  13.210  11.937 -0.0454  0.0040 -0.2198
22388W        W41242  14.193  16.689   1.475  0.3541  0.3413 -0.0495
22389W        W41243  10.558   0.813   2.309 -0.0988  0.1098  0.1489
22390W        W41244  14.147  16.194  12.918  0.2404 -0.2282  0.2051
22391W        W41245  17.588   7.414   3.678  0.0125  0.0771 -0.3664
22392W        W41246  15.298  16.409  11.748 -0.2037 -0.0979 -0.2647
22393W        W41247   4.213   8.788  12.019 -0.1471 -0.0438  0.0085
22394W        W41248  10.856   5.004  11.320 -0.3282  0.2610  0.1104
22395W        W41249  16.282  14.371   0.833 -0.3684 -0.0344  0.2637
22396W        W41250   0.103  10.002  13.030 -0.1147  0.1038  0.2441
22397W        W41251   5.355  13.530  10.586 -0.2311  0.2790 -0.4045
22398W        W41252  14.822  13.757  13.498  0.1900  0.1660  0.0129
22399W        W41253   1.924  15.187  10.667 -0.0348 -0.1947 -0.0952
22400W        W41254   6.536  16.090   3.617 -0.1610  0.0919 -0.0768
22401W        W41255  19.055  10.412   0.109  0.1295 -0.0451  0.0229
22402W        W41256   8.655   4.816  13.417  0.1917 -0.1134  0.1174
22403W        W41257   6.329  17.396  10.667 -0.3311 -0.2129 -0.0354
22404W        W41258  16.646   0.885  11.029 -0.2086 -0.4387 -0.1231
22405W        W41259  12.144   2.752   3.411  0.0553  0.2195  0.1390
22406W        W41260  13.289   9.475   2.890 -0.2770 -0.3601 -0.0068
22407W        W41261  15.382  13.276   1.776 -0.1985 -0.2809 -0.0797
22408W        W41262  14.371   2.359   0.095  0.0161  0.2818 -0.5732
22409W        W41263   6.289   6.793  12.291  0.3492  0.0595  0.1622
22410W        W41264  18.017   8.350   3.994 -0.1952  0.0796  0.0056
22411W        W41265   5.001   2.288  12.087 -0.3347 -0.3787  0.0727
22412W        W41266  10.639   3.934  14.259  0.0816 -0.0854  0.0701
22413W        W41267  10.640   2.694   0.289 -0.1451  0.1309 -0.0359
22414W        W41268  13.896  15.862   0.443 -0.2380  0.0935 -0.1001
22415W        W41269   8.401  11.759   3.620 -0.0332  0.2054 -0.1095
22416W        W41270  11.429   7.856   3.863 -0.1546  0.3471  0.2093
22417W        W41271   3.362  11.684  12.036 -0.0048  0.2311  0.1099
22418W        W41272   8.854  18.955  10.632  0.2268  0.0933  0.0411
22419W        W41273  18.738  12.105   4.257  0.1249 -0.4597 -0.0861
22420W        W41274  12.008  17.521  12.569  0.0314 -0.2242 -0.0539
22421W        W41275   9.056   2.505   2.101 -0.1040 -0.0455 -0.3008
22422W        W41276  11.249  16.217  12.912  0.1102  0.2434 -0.1421
22423W        W41277   6.340   4.329  11.468  0.1153 -0.2114 -0.1520
22424W        W41278  16.941  18.493   2.435  0.0488 -0.1626 -0.4785
22425W        W41279   9.354  12.440  12.445 -0.0613  0.0954  0.0859
22426W        W41280   9.976  16.816   2.685 -0.2186 -0.1928  0.3228
22427W        W41281   5.663   6.302   2.739  0.3979 -0.0881  0.1060
22428W        W41282   2.905   5.119   9.836  0.1824 -0.0784  0.0915
22429W        W41283  10.006   5.070  13.699 -0.0182  0.0817 -0.0841
22430W        W41284   0.768   7.023   2.628  0.1113 -0.2052 -0.2229
22431W        W41285   9.032  11.028  12.137 -0.2193 -0.0632 -0.2605
22432W        W41286  12.171   3.115  14.533  0.0161  0.4021 -0.0364
22433W        W41287  16.970  10.172   1.275 -0.0848  0.6021 -0.1491
22434W        W41288   1.952  18.249  14.751  0.0460  0.0531  0.3510
22435W        W41289   1.020  11.866  13.820 -0.0214  0.0135  0.3746
22436W        W41290  15.484   1.185  12.590 -0.0135 -0.0126  0.4103
22437W        W41291   1.824   9.895  12.336  0.1314 -0.1254 -0.2259
22438W        W41292  12.852   0.722  11.555 -0.0503 -0.1744 -0.1148
22439W        W41293  12.975   4.253  12.338 -0.0044 -0.0727  0.2587
22440W        W41294  16.129   0.047   0.128  0.0985  0.0059 -0.0579
22441W        W41295   9.371  14.066   5.203  0.1426 -0.0025  0.1049
22442W        W41296  18.861   8.457   0.350 -0.0207 -0.2343  0.1193
22443W        W41297  16.859   9.396   1.820 -0.0494  0.0561  0.3882
22444W        W41298  16.956   4.211   5.154 -0.0616  0.0912 -0.1105
22445W        W41299  14.672  18.405   1.519  0.2149  0.2547  0.1102
22446W        W41300   9.947   5.199   1.931 -0.2902  0.2368  0.0872
22447W        W41301  18.068  18.092  13.224 -0.0611 -0.0149 -0.1823
22448W        W41302   3.986   5.555  12.200  0.3499 -0.2819  0.1915
22449W        W41303  18.116   5.919   3.708  0.1784 -0.2251  0.1752
22450W        W41304  14.086  19.096  13.642 -0.1082  0.3774 -0.2854
22451W        W41305   5.902  18.716   3.284 -0.0070  0.0592  0.0818
22452W        W41306   3.301   4.048   3.643 -0.1618 -0.0628  0.0033
22453W        W41307  10.622  11.754   4.545  0.2868  0.2062  0.0631
22454W        W41308   2.288  19.003   2.144 -0.2174 -0.2354  0.2722
22455W        W41309   2.515   2.780  14.691  0.0023  0.1276 -0.0576
22456W        W41310   3.560  10.369   0.852 -0.0391  0.3615  0.3950
22457W        W41311  10.350  15.531   3.487 -0.0321 -0.1794  0.3381
22458W        W41312  17.779  16.177   0.820  0.1542  0.0159 -0.1567
22459W        W41313  11.019  15.515  11.474 -0.2050 -0.0287 -0.0785
22460W        W41314   4.966   9.511   2.671  0.0440 -0.2744 -0.1530
22461W        W41315   6.773   9.899  14.632  0.1614  0.1743 -0.2555
22462W        W41316   3.189  14.906   0.411  0.6801  0.0320 -0.2183
22463W        W41317  15.662  12.842   4.623  0.1211  0.0818  0.2633
22464W        W41318  10.517  11.506  14.732  0.3905 -0.1864 -0.0697
22465W        W41319   3.394  13.681  14.067  0.0725  0.0883 -0.0188
22466W        W41320  11.941  17.158  14.728 -0.1385 -0.0412  0.0694
22467W        W41321   4.479   0.079  11.919  0.3624  0.1723  0.0117
22468W        W41322  18.417  13.431   4.045  0.0264  0.1596 -0.2591
22469W        W41323  15.033   7.701   1.886 -0.2586  0.1528 -0.1814
22470W        W41324   0.628   3.073  12.403 -0.1122 -0.1336  0.2402
22471W        W41325   7.589  18.502   3.454  0.1328  0.1517 -0.3970
22472W        W41326  11.490   0.800  14.700  0.0251  0.3258 -0.0765
22473W        W41327   4.968   8.424   2.580  0.0425  0.0541  0.1174
22474W        W41328   3.266  16.755  14.333 -0.2561 -0.2718 -0.0832
22475W        W41329  10.088  16.338   2.809 -0.0188  0.3306  0.1331
22476W        W41330  16.210  17.271  10.914 -0.1511 -0.0749 -0.2638
22477W        W41331  10.224   6.969  11.359  0.2325  0.0159  0.0619
22478W        W41332  12.350  18.605  10.503  0.1536  0.0564 -0.1430
22479W        W41333   6.416   0.520  11.651 -0.1294 -0.0089  0.0811
22480W        W41334   1.205  11.770  11.263  0.1250  0.1890  0.0089
22481W        W41335   2.584   9.624   2.833  0.0897  0.0586 -0.2058
22482W        W41336   5.969  10.854   2.890 -0.0106 -0.1714 -0.2538
22483W        W41337   5.323   4.412  10.318 -0.2439  0.0402  0.2771
22484W        W41338   5.675  11.586   2.028 -0.3088  0.2157  0.0299
22485W        W41339  14.463   4.029  11.495 -0.2288 -0.0918  0.2123
22486W        W41340   2.199   0.198  11.090 -0.2251  0.3266  0.1767
22487W        W41341   7.686  15.289   4.495 -0.2293  0.1090  0.2483
22488W        W41342   3.091  16.267  13.022  0.0897  0.1610 -0.0785
22489W        W41343   0.574  18.575  14.741  0.0842 -0.3384  0.1120
22490W        W41344   1.808   9.254   1.638 -0.1965  0.2286  0.1953
22491W        W41345   2.448   5.203   1.621 -0.0733  0.1388  0.0837
22492W        W41346   2.586   1.922  14.191 -0.2372 -0.2144 -0.0836
22493W        W41347   6.825  10.019   1.557  0.1535 -0.1297 -0.3804
22494W        W41348  14.552  13.367  11.620  0.1579 -0.0340  0.0201
22495W        W41349  16.825  16.218   0.544  0.0495  0.0852 -0.2265
22496W        W41350   6.605  15.020   1.482  0.2199 -0.0535 -0.3111
22497W        W41351   3.276   3.557  13.142  0.2454  0.0782 -0.1802
22498W        W41352  15.313  17.923   2.372 -0.1316  0.3103 -0.1030
22499W        W41353  16.776  10.902   1.768  0.4285 -0.0107  0.2247
22500W        W41354  14.668   8.428   2.942  0.1443 -0.0347 -0.3455
22501W        W41355  18.291   3.101   3.186  0.0244 -0.0156 -0.1567
22502W        W41356   8.950  12.637  12.031  0.0687  0.0599 -0.0253
22503W        W41357  13.914  13.339  10.755  0.0968  0.1783 -0.1179
22504W        W41358   5.147   2.064  13.322 -0.1691 -0.4416  0.1635
22505W        W41359   8.187   3.668  13.606  0.0275 -0.0619  0.4704
22506W        W41360  11.146   4.740  10.966 -0.0344 -0.0917  0.0930
22507W        W41361  11.260  14.949   1.553 -0.2930  0.2495  0.0161
22508W        W41362   4.439  16.665  11.221  0.1584  0.4167 -0.3945
22509W        W41363  17.970   2.226   0.544 -0.1533  0.2987 -0.0863
22510W        W41364   0.706  12.703   1.814  0.1024 -0.1769 -0.0024
22511W        W41365  12.324   8.603   2.686  0.0353  0.5563  0.1538
22512W        W41366   2.759   6.475  10.757  0.0349 -0.4532  0.0490
22513W        W41367   5.657  18.531   2.696  0.0749  0.1398 -0.3226
22514W        W41368   7.804   6.948  10.953 -0.0616  0.0583 -0.1436
22515W        W41369   9.653   9.874  13.878 -0.2231 -0.1894  0.1003
22516W        W41370  16.987   7.533  14.055  0.1482 -0.2192 -0.0486
22517W        W41371  18.722  16.877  14.085  0.0081 -0.1468  0.1671
22518W        W41372  18.237   2.331  10.422 -0.1550 -0.0126  0.0259
22519W        W41373   5.806   3.141  11.558  0.1088 -0.2631  0.4090
22520W        W41374   0.968  18.311  13.748 -0.1426 -0.0749  0.0721
22521W        W41375  17.720  14.062  10.833  0.2858  0.2336 -0.0475
22522W        W41376   1.087   1.606   2.732 -0.1483 -0.0621  0.0688
22523W        W41377  12.529   8.214   2.463 -0.1008  0.1452  0.0337
22524W        W41378  14.385   3.209   0.496 -0.3328 -0.3436  0.0750
22525W        W41379  15.952   8.607   4.429 -0.0445 -0.4332  0.4543
22526W        W41380  14.673   0.670   3.813 -0.2649 -0.0789 -0.0166
22527W        W41381   0.938   9.570  11.113  0.0323  0.0189  0.0435
22528W        W41382   4.925   0.518  13.075 -0.0939  0.2936  0.1346
22529W        W41383   7.538  11.937  13.643 -0.1380 -0.3000 -0.3927
22530W        W41384  10.878   4.568   4.031 -0.2127  0.1022  0.1938
22531W        W41385   7.159   7.273   1.932 -0.1356 -0.0120  0.3834
22532W        W41386  13.388  18.486   0.838  0.3737 -0.1625  0.1560
22533W        W41387   1.805   8.828  12.671  0.1758 -0.0214  0.0480
22534W        W41388  12.663   4.058   1.380 -0.2308 -0.0760 -0.0228
22535W        W41389  14.534  16.175   3.916  0.3522 -0.0951 -0.1977
22536W        W41390   4.413  11.194  10.259  0.2468 -0.2115  0.2839
22537W        W41391   7.179   6.654   2.607  0.0180  0.1368  0.1481
22538W        W41392   1.228   7.719  12.588  0.2141 -0.1321 -0.1512
22539W        W41393   9.679  13.107   2.369 -0.0981  0.3146 -0.1675
22540W        W41394   6.126  10.244   0.960  0.0053  0.2454 -0.0099
22541W        W41395  10.318   3.449  11.406 -0.1634 -0.0358 -0.0849
22542W        W41396  15.892   7.491  12.724 -0.0461 -0.1964 -0.1178
22543W        W41397  11.413   4.471   1.691 -0.1548  0.0439 -0.0383
22544W        W41398  14.205  15.409  12.145 -0.0491  0.1988 -0.4177
22545W        W41399   4.742  12.336   2.827  0.3482 -0.0910  0.0044
22546W        W41400  13.710   4.437  14.414  0.0307  0.1474  0.1046
22547W        W41401   4.137  10.393   9.992  0.0254 -0.0469 -0.1519
22548W        W41402  16.925  15.728  11.394 -0.0644  0.1557 -0.1183
22549W        W41403  18.860  13.813   1.613  0.0500 -0.0057  0.2722
22550W        W41404   9.500   0.942  12.136  0.0397  0.0520  0.1020
22551W        W41405   3.878  12.588  13.102  0.0016 -0.2579  0.1452
22552W        W41406   6.054   1.648  14.124 -0.0234 -0.1368 -0.2424
22553W        W41407   1.667  10.903   2.049  0.1877 -0.3427 -0.1499
22554W        W41408   2.228   3.685   1.411  0.1519 -0.0965  0.1342
22555W        W41409   0.434   9.762   2.649  0.1655 -0.3180 -0.0951
22556W        W41410  14.339   3.573  12.217  0.2772 -0.3615  0.0216
22557W        W41411   5.103  14.525  14.771 -0.1188  0.0709  0.0866
22558W        W41412  15.473  14.680   3.439  0.0022 -0.1076 -0.1064
22559W        W41413  14.434  13.569   2.820 -0.2920 -0.0589 -0.2265
22560W        W41414  19.148   7.659  14.293 -0.1554  0.2412  0.0941
22561W        W41415  18.792   9.848   0.627 -0.3511  0.1275  0.1558
22562W        W41416   0.243   0.182  12.452 -0.5524  0.2913  0.3987
22563W        W41417  13.881  13.030  11.462  0.2585 -0.1391 -0.0114
22564W        W41418  14.800  14.113   3.625 -0.1537  0.0111  0.1760
22565W        W41419  12.710   0.657   3.940 -0.1797  0.0603 -0.1430
22566W        W41420  11.076  13.232  13.676 -0.1590 -0.0575  0.1175
22567W        W41421   0.867   4.119   4.164 -0.2475  0.2521 -0.0362
22568W        W41422  15.501  10.317   2.438  0.3898  0.1825 -0.1148
22569W        W41423   9.752   4.632  13.485 -0.1371 -0.2648 -0.2158
22570W        W41424   5.189   9.249  12.464 -0.0118 -0.0602 -0.3013
22571W        W41425   7.640  15.216   1.673 -0.1014  0.1470  0.0385
22572W        W41426  12.899   3.460  11.509 -0.4112  0.3046  0.2163
22573W        W41427  17.908  10.964   1.108 -0.0031 -0.2661  0.2261
22574W        W41428  12.179   1.681  14.447 -0.2843  0.3456 -0.1942
22575W        W41429   8.413  13.462   3.416  0.1248  0.0091 -0.1526
22576W        W41430   5.035  17.698   3.889 -0.1231 -0.2110  0.0690
22577W        W41431   5.993   0.560   2.254 -0.1206 -0.0216 -0.1103
22578W        W41432   1.019  11.304  12.107  0.0103  0.1113  0.2709
22579W        W41433   5.333  11.177   1.684  0.3575  0.3167 -0.1807
22580W        W41434  15.651  19.143   4.463 -0.1271  0.2623 -0.0170
22581W        W41435  18.344   1.581   3.214 -0.0947  0.1032  0.4018
22582W        W41436   6.080  14.818  12.036 -0.2082 -0.0752 -0.1961
22583W        W41437   7.880  13.453  12.798  0.0600  0.3153  0.1888
22584W        W41438  13.070   1.064   2.679  0.2441  0.1448 -0.0327
22585W        W41439   5.759  17.845  14.339  0.0533  0.0225 -0.0792
22586W        W41440  16.255   4.142   2.898  0.3151  0.0994 -0.1551
22587W        W41441   4.331  13.698   4.131 -0.0394 -0.0103 -0.2684
22588W        W41442  16.173   5.898   3.941  0.2460 -0.0136  0.0282
22589W        W41443   0.617   1.792   9.742 -0.2380 -0.5260  0.0006
22590W        W41444  10.208  15.611   3.946  0.0950  0.0941  0.0864
22591W        W41445  17.401   9.376   2.668  0.1352  0.1818 -0.2390
22592W        W41446  12.450   9.566   1.660  0.0897 -0.1892  0.0138
22593W        W41447  14.616   8.322  14.334 -0.3356 -0.2340  0.1213
22594W        W41448  19.108  13.086  11.376 -0.1705 -0.1498  0.1965
22595W        W41449  16.548   0.277   0.189 -0.0591 -0.1442  0.2253
22596W        W41450   0.036  12.266   2.296  0.0511 -0.0996 -0.4017
22597W        W41451   1.473  14.374  13.096  0.2070  0.0267  0.0436
22598W        W41452  16.038  18.723   3.457 -0.0245  0.0911 -0.1579
22599W        W41453  10.502  13.128  13.656 -0.3004 -0.1285 -0.0425
22600W        W41454  14.790  14.982   1.756 -0.1217  0.4438  0.0905
22601W        W41455  13.268  10.938   1.721  0.0150  0.1907  0.0965
22602W        W41456   2.091   0.299  14.424 -0.3858 -0.0539 -0.0069
22603W        W41457   8.087  14.067  12.566  0.0311 -0.1396 -0.0327
22604W        W41458  13.313  13.802   0.559  0.1037 -0.1563  0.5309
22605W        W41459  17.020   3.007   2.489 -0.2847 -0.2115 -0.0295
22606W        W41460  10.982   9.191   3.034 -0.2682 -0.0276 -0.1048
22607W        W41461  15.871  18.672  14.093 -0.1990  0.1145  0.0943
22608W        W41462   8.376   2.419   1.111  0.0823  0.0521  0.2193
22609W        W41463  11.237   6.055   3.375 -0.2435  0.0225  0.1742
22610W        W41464   0.691   2.100  13.833  0.1434 -0.0323  0.2774
22611W        W41465   9.163   0.908  13.271  0.1383 -0.1536  0.0315
22612W        W41466  14.423   6.969   1.496 -0.2000 -0.1967 -0.0777
22613W        W41467   0.369  16.637   1.555  0.2532  0.2333  0.1087
22614W        W41468  12.740   1.417  11.944 -0.1044  0.1376  0.0422
22615W        W41469  10.001   6.571  11.751 -0.0911  0.0417  0.0245
22616W        W41470  12.142   6.360  10.912 -0.0974  0.2588  0.0536
22617W        W41471   3.498   9.729   0.171 -0.0305  0.1564  0.1847
22618W        W41472   3.264  16.642   0.045 -0.1104  0.1418 -0.0253
22619W        W41473  12.090   6.543  13.998  0.1590 -0.0078 -0.4827
22620W        W41474   7.996   9.600   2.155 -0.0112  0.0783  0.0388
22621W        W41475  17.923   7.503   1.947 -0.0612 -0.0237  0.1213
22622W        W41476   8.606  18.698   1.794 -0.2173  0.3307 -0.2353
22623W        W41477   5.455   3.190   2.623 -0.1768 -0.1296  0.2913
22624W        W41478   8.543  17.056  11.909  0.0067 -0.0165 -0.1679
22625W        W41479  11.701   4.837   1.431  0.0482 -0.0272 -0.0860
22626W        W41480   8.883  10.883   4.253 -0.2108 -0.0844 -0.0375
22627W        W41481   1.767   1.042   2.159  0.2014  0.1354 -0.4101
22628W        W41482   8.418  16.594  12.293 -0.1027  0.1542 -0.0304
22629W        W41483   9.245  19.145   2.883 -0.3067  0.0594 -0.2274
22630W        W41484  14.510  11.808   3.286 -0.1594  0.1166 -0.1416
22631W        W41485   9.304  10.794  11.464 -0.0828 -0.1494  0.1165
22632W        W41486  11.537   9.959   2.851 -0.1511  0.2855  0.0082
22633W        W41487   5.262  18.572  13.796  0.1960 -0.0838  0.1344
22634W        W41488  17.576   7.363   0.309  0.1921 -0.0820 -0.0767
22635W        W41489  10.873  10.892   1.332 -0.1379  0.1027  0.1152
22636W        W41490   6.922  15.529  11.133  0.4315  0.0082  0.1207
22637W        W41491  13.329   4.452   0.080  0.3064 -0.0559  0.1393
22638W        W41492  12.249   4.528   2.185 -0.2210 -0.1068  0.0097
22639W        W41493   3.290  10.426   2.441  0.0030  0.0631 -0.0666
22640W        W41494  17.519   8.723   0.529 -0.3682  0.0194 -0.0542
22641W        W41495   1.185  12.544   1.713 -0.2652  0.1362  0.1440
22642W        W41496   2.158   2.717   9.815  0.2687  0.1290 -0.3120
22643W        W41497  18.603  13.045   3.263 -0.1199 -0.1128  0.1418
22644W        W41498  13.725  13.007  14.677 -0.1778 -0.2020 -0.0580
22645W        W41499   9.857  11.289   3.380 -0.1174  0.0773  0.2704
22646W        W41500  14.478   9.648   3.907  0.1183 -0.1422  0.0041
22647W        W41501   1.804  15.327  14.439 -0.4274  0.0428  0.1621
22648W        W41502  11.015   8.650  11.095  0.0184  0.3067 -0.1843
22649W        W41503   3.036   8.609   2.427 -0.0310 -0.1751 -0.0520
22650W        W41504  16.582   0.815   3.509 -0.0958  0.1732 -0.0376
22651W        W41505  12.943   6.283   4.594 -0.0293  0.0200  0.3477
22652W        W41506  13.985  18.317   2.859 -0.4754 -0.0176 -0.1022
22653W        W41507   5.438  19.093  14.292 -0.0736  0.2957 -0.0195
22654W        W41508   3.097  16.777   2.829 -0.0364  0.0127 -0.5054
22655W        W41509  10.820   8.547   3.563 -0.1842  0.3099  0.0480
22656W        W41510   5.462  14.457  10.781  0.0600  0.0305 -0.0673
22657W        W41511  17.751  17.291   3.607 -0.0320  0.0576 -0.0785
22658W        W41512  15.624  17.516  10.299 -0.1735  0.0640  0.1241
22659W        W41513   1.330  11.812  12.869 -0.1420  0.2843  0.1571
22660W        W41514   9.037  12.335  14.632  0.0303  0.3570 -0.1626
22661W        W41515  10.889   8.206   0.279  0.3088  0.0115  0.3040
22662W        W41516  15.957   4.167   3.318  0.1506 -0.1937  0.5612
22663W        W41517   6.346  13.892  14.354 -0.1633  0.2883  0.0964
22664W        W41518   8.837   2.301  11.649  0.1417 -0.4643  0.0243
22665W        W41519   5.961   4.032  13.334  0.2319 -0.0954 -0.0503
22666W        W41520  15.768  12.022  11.015 -0.2167  0.0045  0.1162
22667W        W41521  12.136   9.038  14.790 -0.3460 -0.1593 -0.0618
22668W        W41522  17.575   3.029  13.377  0.3193 -0.0632  0.0229
22669W        W41523  12.788  14.250  13.725  0.1086  0.2704 -0.0552
22670W        W41524   7.050   5.910  12.384 -0.1393  0.1504  0.0347
22671W        W41525   0.105  14.821   1.650  0.1787 -0.0180  0.0408
22672W        W41526   7.124  15.060  11.315  0.1252 -0.0832  0.1010
22673W        W41527   0.282  15.114   3.473  0.0228  0.0247  0.4216
22674W        W41528  17.534   1.870  14.040  0.1255 -0.2997 -0.1662
22675W        W41529   1.317  19.112  11.567  0.2351  0.0059 -0.1103
22676W        W41530  16.832  18.876  14.792 -0.5586 -0.2484 -0.2427
22677W        W41531  11.653   0.765  13.126  0.3038 -0.0532 -0.1502
22678W        W41532   0.459   9.214   4.391 -0.0420  0.0587 -0.1087
22679W        W41533  16.344   3.956  13.055 -0.1305  0.0791  0.2204
22680W        W41534   4.041   2.719  10.566  0.1676  0.0069 -0.0847
22681W        W41535  18.542   0.191  12.527  0.0237  0.0505 -0.1159
22682W        W41536  11.013  17.693  11.953 -0.1907 -0.1007  0.3461
22683W        W41537   8.508   7.380   2.285  0.0709 -0.0902 -0.3780
22684W        W41538  11.344  13.318   1.165 -0.1115 -0.0437  0.3479
22685W        W41539  17.908   3.508   0.309  0.0537  0.2011  0.4070
22686W        W41540   4.897  17.405  11.321  0.0453  0.1054 -0.0842
22687W        W41541   4.148   1.789  11.219  0.1615  0.2392 -0.0341
22688W        W41542  11.513  18.687   3.347 -0.1110  0.1662  0.1079
22689W        W41543  18.807  18.294   2.172 -0.1950 -0.2370  0.1832
22690W        W41544   5.198   5.945   2.949  0.1725  0.0446  0.1867
22691W        W41545  15.215  10.628   3.308  0.0666 -0.0402 -0.0553
22692W        W41546  10.357  12.616   2.261  0.1570  0.1165 -0.3567
22693W        W41547  19.070  14.769  10.542 -0.0240  0.2464 -0.0917
22694W        W41548  10.278   4.848   0.968  0.0699 -0.2915  0.3570
22695W        W41549   1.701  10.677   0.056 -0.2188  0.0753  0.0159
22696W        W41550   9.580  10.059   2.586  0.0859  0.2228  0.3196
22697W        W41551   5.429   7.050   3.413 -0.2028  0.0090  0.0147
22698W        W41552  10.059   6.321   0.092  0.0888 -0.0021 -0.0508
22699W        W41553   2.629   1.116  11.309  0.0587 -0.3549 -0.0057
22700W        W41554  16.776  10.485  12.198  0.1323 -0.1426 -0.0966
22701W        W41555  18.067  10.454   0.280  0.0935  0.0971 -0.0306
22702W        W41556   0.625  16.746   3.158  0.1266  0.4665 -0.0211
22703W        W41557   8.879   9.670  11.084 -0.3325 -0.2059 -0.0273
22704W        W41558  17.490   0.321   0.487  0.1683  0.0895 -0.3376
22705W        W41559  12.147  15.074   9.177  0.1042  0.0350 -0.2995
22706W        W41560   8.855  14.452  13.522 -0.4740  0.1091  0.1507
22707W        W41561  15.137   4.793  10.202  0.2324 -0.0288  0.1749
22708W        W41562   6.764  12.611  13.585  0.3048 -0.2152 -0.1534
22709W        W41563   2.164   0.456  13.946 -0.4178  0.0862 -0.0676
22710W        W41564  13.689   0.917  14.590  0.0143 -0.1323  0.3277
22711W        W41565   0.085   6.597  11.938  0.2423 -0.2164 -0.0458
22712W        W41566   2.636  10.511   1.669 -0.3891  0.2729 -0.2536
22713W        W41567  11.391  15.161   1.140  0.2381  0.0154 -0.2380
22714W        W41568  18.696   5.434  13.530  0.1100 -0.2762  0.1249
22715W        W41569   3.399   4.641  13.160  0.0620  0.4176 -0.3289
22716W        W41570   9.670  18.222  11.432 -0.0781  0.1459  0.0156
22717W        W41571  18.872  15.464  12.176 -0.1720  0.0461  0.0536
22718W        W41572   5.197   7.141  10.877  0.1580  0.1473  0.0019
22719W        W41573  15.019  11.889   3.258 -0.1514 -0.1087 -0.3336
22720W        W41574  17.907   8.557   2.006 -0.3031 -0.3257 -0.0803
22721W        W41575  17.862   4.507   0.728  0.3069 -0.1916 -0.1495
22722W        W41576  18.506   9.911  13.947  0.3881  0.1161  0.0880
22723W        W41577   6.530   8.317  13.247 -0.2550  0.1591 -0.2590
22724W        W41578   4.642  16.134   0.497 -0.3605 -0.1313  0.1357
22725W        W41579   6.970  17.709  12.518 -0.3032 -0.0315 -0.2106
22726W        W41580  11.115  16.836  11.930  0.0660 -0.3151 -0.4977
22727W        W41581  14.392  18.159  11.380 -0.1880  0.1076  0.3235
22728W        W41582  13.503  13.864  14.059 -0.4634  0.4730  0.1838
22729W        W41583   8.336   5.264  11.160  0.2038 -0.1863  0.2474
22730W        W41584   8.947  15.692  11.908 -0.0094  0.1462  0.1356
22731W        W41585  15.349  15.644   1.029  0.0787  0.1049  0.0833
22732W        W41586   7.183  13.557  14.097  0.2600  0.0015 -0.5136
22733W        W41587   5.730  15.217   4.154 -0.0021  0.2105 -0.0332
22734W        W41588  14.391  10.104  14.229  0.0277  0.1302  0.1398
22735W        W41589   5.921  18.338   2.280 -0.0624 -0.2231 -0.3353
22736W        W41590  17.231  18.273  11.172  0.0211 -0.1227  0.2519
22737W        W41591  13.009  18.074  10.901  0.2220  0.2648  0.0892
22738W        W41592   5.114   2.576   3.252 -0.0964  0.1379 -0.0963
22739W        W41593   7.875  14.547  12.492  0.1143 -0.0133 -0.1932
22740W        W41594  12.878   9.146  13.742  0.0681  0.0240  0.1958
22741W        W41595   0.651   2.284   1.168 -0.0304  0.0936 -0.2733
22742W        W41596   8.045   5.937   1.001  0.0744  0.2487  0.1819
22743W        W41597   5.551   1.551   3.363 -0.1249  0.2261  0.0689
22744W        W41598  14.664  17.060  11.225 -0.2261 -0.3135  0.2484
22745W        W41599   3.700   5.454  11.363  0.0564 -0.1382 -0.3402
22746W        W41600   1.647  18.860  13.697 -0.0047 -0.2199  0.0279
22747W        W41601   4.247  17.806   4.139  0.2426  0.4147  0.0080
22748W        W41602  18.708   5.647   3.722  0.1363  0.0361  0.2663
22749W        W41603  14.374   0.722   3.416  0.0540  0.0132  0.5498
22750W        W41604   5.173  18.776  11.921 -0.3079  0.0550 -0.1594
22751W        W41605   7.777  13.891  13.002  0.2748  0.0535 -0.2640
22752W        W41606  18.935   0.928   2.097 -0.1565 -0.1586  0.0995
22753W        W41607  18.119  17.092  12.859 -0.1199  0.0184 -0.2090
22754W        W41608  16.522   9.689   4.307  0.0859  0.1268 -0.2324
22755W        W41609   2.183  13.740   3.338 -0.1043  0.0316  0.1827
22756W        W41610   4.698  18.291   2.241 -0.0419  0.0903  0.1712
22757W        W41611   8.801   4.352   3.745 -0.1109 -0.1554 -0.0871
22758W        W41612  11.802   9.652   4.258 -0.1215 -0.4236  0.1704
22759W        W41613  10.499  19.097   4.205  0.1001  0.0798 -0.2187
22760W        W41614   7.063   2.271   2.019  0.1048 -0.0861 -0.1770
22761W        W41615  14.348  18.586   9.257  0.0821 -0.0364 -0.2539
22762W        W41616  10.263  17.788   2.726  0.1433 -0.0553 -0.1559
22763W        W41617   9.647   4.167  13.163 -0.2537  0.3057  0.2495
22764W        W41618   4.319  12.054   0.726 -0.2853  0.0193  0.0861
22765W        W41619  12.463   0.281   0.693 -0.0210  0.0579 -0.1726
22766W        W41620  12.881   2.674   0.478 -0.0276 -0.2644 -0.1608
22767W        W41621  12.349  14.913   2.630  0.2220  0.0536  0.0520
22768W        W41622  17.812   4.728  11.747  0.3498  0.3118 -0.2095
22769W        W41623  17.120   6.003  13.891  0.0108  0.1726  0.1480
22770W        W41624   5.877  17.281   3.843 -0.2472  0.0256  0.2699
22771W        W41625   3.541  17.067   3.009  0.0945  0.2677  0.0632
22772W        W41626  13.658   1.483  12.701  0.0589  0.0850 -0.0369
22773W        W41627  16.536  17.953   0.076 -0.0849 -0.3416  0.0932
22774W        W41628  18.967   8.460   0.837 -0.0092 -0.0559 -0.0259
22775W        W41629   9.992  15.029   2.385  0.1070 -0.0689 -0.0175
22776W        W41630   7.833   7.536  14.778 -0.0668 -0.0034  0.1210
22777W        W41631  10.559   4.919   4.156  0.0476 -0.1399 -0.1304
22778W        W41632  18.264  17.725   1.847 -0.0261  0.3462  0.1175
22779W        W41633  15.601   5.004  13.243 -0.0209  0.0815 -0.1461
22780W        W41634  14.879   5.553  12.385  0.4287 -0.0928 -0.1177
22781W        W41635  13.744  11.648  12.845 -0.0075  0.0799  0.8737
22782W        W41636  17.497   8.649  11.051 -0.0620 -0.1752  0.1117
22783W        W41637  16.542  15.977   1.432  0.4374  0.2211  0.0785
22784W        W41638  15.172   7.727  14.236  0.2204  0.1489  0.0264
22785W        W41639  18.562  14.570   2.902  0.2089  0.1444  0.0422
22786W        W41640  10.153   4.416   0.454  0.0833  0.0152 -0.2894
22787W        W41641  12.582  13.120  14.645 -0.0668 -0.2322 -0.0687
22788W        W41642  11.112   8.460   0.748 -0.0143 -0.2759  0.1234
22789W        W41643   3.870   6.162   3.752 -0.2297  0.1785 -0.0814
22790W        W41644  11.456   7.768  12.717 -0.0336  0.2746  0.2648
22791W        W41645  16.994  10.162   9.599  0.0215  0.0082  0.0853
22792W        W41646  18.968   8.848   4.926 -0.0385  0.1138 -0.1865
22793W        W41647  13.308   4.347   0.635 -0.2435 -0.2010  0.0389
22794W        W41648   7.217  16.551   1.818  0.1740 -0.2469 -0.1205
22795W        W41649   3.737   2.001   0.985  0.1501 -0.2022 -0.0208
22796W        W41650   5.836  18.320  12.314 -0.0954 -0.0609 -0.2771
22797W        W41651   0.263   9.294   2.396 -0.1034  0.1166  0.0816
22798W        W41652   6.681   0.918   0.734  0.4596 -0.2896  0.2272
22799W        W41653  10.205   5.788  12.085 -0.1659  0.0201 -0.1231
22800W        W41654   1.924   3.067   4.014  0.0098 -0.2283 -0.2421
22801W        W41655   9.645  15.705  13.920 -0.1533 -0.2868  0.1153
22802W        W41656   9.719   1.091  12.541 -0.0787 -0.0152 -0.1717
22803W        W41657   3.288   3.186  13.972  0.0802  0.1588 -0.0465
22804W        W41658   4.165  11.114  10.715  0.4588 -0.3281 -0.0289
22805W        W41659   5.612  11.288   3.195  0.1159 -0.2530 -0.0864
22806W        W41660   3.434  10.911   2.126  0.2117 -0.1014 -0.1072
22807W        W41661   6.409  13.834  13.519 -0.3904 -0.0123 -0.0541
22808W        W41662   1.767   3.877  13.564 -0.0603  0.2506  0.1876
22809W        W41663   7.718  14.286   1.734  0.0504 -0.0304 -0.0641
22810W        W41664  11.435   8.972  12.936  0.0955 -0.0922  0.1542
22811W        W41665  10.883   0.610   1.150  0.1777  0.0904 -0.1703
22812W        W41666  10.688  15.638   1.807 -0.0469 -0.0308  0.2635
22813W        W41667  12.492  17.025  13.177  0.0809 -0.0107 -0.2461
22814W        W41668   0.653   0.640   2.443 -0.3831 -0.0177  0.4262
22815W        W41669   9.064  13.036   1.520  0.2784 -0.0025  0.0053
22816W        W41670  18.855  18.485  11.413 -0.0275  0.1994 -0.1998
22817W        W41671   6.582   4.874  13.433  0.0252  0.3251 -0.0836
22818W        W41672   7.646  15.635   0.432 -0.0530  0.2533 -0.3324
22819W        W41673   6.362  12.147  10.466  0.0572 -0.0586  0.0029
22820W        W41674  12.995  10.756  11.262 -0.1565  0.0015 -0.0574
22821W        W41675  17.285  11.183  12.024 -0.0559  0.0838 -0.1507
22822W        W41676  16.361   1.337   4.180  0.0215  0.0959  0.1464
22823W        W41677  11.412  13.872  13.464 -0.2083  0.0977  0.0194
22824W        W41678   2.466  14.846  12.978  0.1683 -0.3121 -0.4540
22825W        W41679   8.160  12.933   3.239  0.0377 -0.0823  0.0013
22826W        W41680   1.788  16.243   3.414 -0.4463  0.0886  0.0440
22827W        W41681   5.124  17.326  13.031 -0.1829  0.2083  0.1583
22828W        W41682   5.756   3.515   2.961 -0.0612  0.0598 -0.0713
22829W        W41683  18.774  10.200   9.584 -0.2581  0.4182 -0.0059
22830W        W41684  17.926  13.604  10.630  0.1770  0.2710  0.0421
22831W        W41685   8.771   7.654  14.363 -0.0909  0.0567  0.1342
22832W        W41686  14.745  11.572   5.478 -0.3243  0.2699 -0.2771
22833W        W41687   2.634   5.536   1.163 -0.1860  0.3076  0.1801
22834W        W41688   5.047   2.275   4.076 -0.0940  0.2207 -0.0912
22835W        W41689  11.821  13.412  13.209  0.2327  0.1577  0.2298
22836W        W41690   5.285   8.157  10.638  0.0369  0.0600 -0.1590
22837W        W41691   2.401  14.186   2.259 -0.2221  0.1916 -0.0305
22838W        W41692   9.558  13.559   1.273 -0.2451  0.1710  0.2083
22839W        W41693   9.807   0.452   2.409 -0.1263 -0.1394  0.0517
22840W        W41694  16.620  15.142  12.724  0.0292 -0.1972 -0.3429
22841W        W41695  12.199   3.224   1.464 -0.0208 -0.2055 -0.1009
22842W        W41696   4.594  10.046   1.802  0.2936 -0.3172  0.2665
22843W        W41697   3.850   0.134  10.477 -0.0240 -0.0581 -0.2990
22844W        W41698   4.480  18.233  10.742  0.0597  0.2651 -0.2588
22845W        W41699  18.982   4.494  10.812 -0.0594 -0.2370  0.2962
22846W        W41700   8.476  12.884  11.223  0.2351 -0.4427  0.0814
22847W        W41701   9.622   6.655  14.274  0.2974  0.2179  0.1975
22848W        W41702   6.451   7.561   0.428  0.0170 -0.1155 -0.0315
22849W        W41703  19.137  15.095   0.851 -0.0232  0.1854 -0.1885
22850W        W41704   5.926   3.419  13.055  0.1462  0.1124  0.0659
22851W        W41705   8.360   3.369   4.133 -0.1277 -0.2525  0.2204
22852W        W41706  16.643  16.130  13.747  0.1663 -0.1311 -0.1304
22853W        W41707  13.404  12.344   1.525  0.1428 -0.1105  0.1606
22854W        W41708  15.512  11.222  12.322  0.0953 -0.3060 -0.0699
22855W        W41709  17.917   3.601  12.298 -0.3844 -0.3456  0.0464
22856W        W41710   2.715   6.889  11.900  0.3205  0.0073 -0.2208
22857W        W41711   6.831  15.798  13.563 -0.0628  0.0972 -0.2595
22858W        W41712   4.417  14.533  11.642  0.0974 -0.4617  0.0720
22859W        W41713  18.560   2.780   2.943 -0.1755 -0.4861 -0.1348
22860W        W41714  10.839  13.601   3.741 -0.0303  0.1249 -0.3070
22861W        W41715   9.864   5.979   3.748  0.0763  0.2948  0.0028
22862W        W41716  12.957   3.370  12.578 -0.3611  0.0030 -0.2989
22863W        W41717   7.138  17.297   3.529  0.0419 -0.1570 -0.0225
22864W        W41718   8.594   2.687  11.792  0.4603  0.0452  0.0295
22865W        W41719   2.507   2.173   3.999 -0.0401  0.0958  0.2152
22866W        W41720   8.739  10.286   3.477  0.0027 -0.0497 -0.0827
22867W        W41721  14.390   5.184   0.364  0.1232 -0.2182  0.1042
22868W        W41722  13.944   5.917  11.818  0.1465 -0.0251  0.2256
22869W        W41723   0.211   8.482  12.619 -0.3483 -0.0187 -0.0023
22870W        W41724   9.317   7.047   1.311 -0.1601 -0.1491  0.2482
22871W        W41725   0.030  16.287  12.021  0.0239 -0.1453 -0.2516
22872W        W41726  16.441  13.053  10.554  0.1774  0.1459 -0.1393
22873W        W41727  11.039  12.087   2.900  0.2267  0.2506 -0.0291
22874W        W41728   5.598  18.784  14.711  0.3148  0.2207  0.1215
22875W        W41729  16.195   8.344  10.188 -0.1418  0.2910 -0.2147
22876W        W41730  17.977   4.405   0.197  0.5060 -0.1144  0.0491
22877W        W41731   6.056   1.500   2.263  0.0655 -0.0265  0.1496
22878W        W41732  15.049   4.119   1.685 -0.2285 -0.1177  0.0013
22879W        W41733   2.056  10.204   4.043 -0.0101  0.0800  0.2047
22880W        W41734   9.827  17.795   0.396 -0.1202 -0.1650 -0.0672
22881W        W41735  10.284   4.977  13.260  0.0958 -0.0153 -0.1435
22882W        W41736   2.225  18.441  14.357 -0.1361 -0.1102 -0.0561
22883W        W41737  10.818   4.675   1.866  0.3064 -0.2460 -0.0569
22884W        W41738   9.195   2.051  11.810  0.0911 -0.0970  0.1184
22885W        W41739   1.365  11.002  11.974 -0.1248  0.3244 -0.1059
22886W        W41740   6.572  15.222  13.224 -0.0503 -0.3106  0.1708
22887W        W41741  13.287  13.189  14.518  0.2386  0.1034 -0.2973
22888W        W41742  18.831  18.315  12.773 -0.5705  0.1657 -0.1620
22889W        W41743   9.135  14.314  10.219 -0.0483  0.1552  0.1223
22890W        W41744   0.126  14.075   0.229 -0.0290 -0.0869 -0.0629
22891W        W41745  11.566   0.906   1.964 -0.0891  0.0757 -0.4775
22892W        W41746  10.695   2.455  13.522  0.1797  0.2403 -0.1283
22893W        W41747   9.712  17.322  12.081  0.0692  0.1672 -0.2701
22894W        W41748   2.236   7.833   1.215  0.1367  0.1939  0.0982
22895W        W41749  10.104  16.869   3.600 -0.0429 -0.2890  0.0569
22896W        W41750  18.804   4.772   2.711 -0.0636  0.1348 -0.0727
22897W        W41751   0.183   5.620  11.852 -0.1263  0.1084  0.2044
22898W        W41752  14.109  12.856   0.691  0.1937  0.3486 -0.0326
22899W        W41753  12.870  17.869  14.319  0.0235  0.3082  0.1941
22900W        W41754   4.338   9.101  13.941  0.1356  0.0940 -0.1068
22901W        W41755  14.579  14.509  10.823  0.0609 -0.1240  0.0497
22902W        W41756   8.688  17.308   3.854 -0.0770 -0.0504 -0.2204
22903W        W41757   6.450  14.375   1.868 -0.3290  0.1410  0.1263
22904W        W41758   1.589   3.906  14.087  0.3396 -0.2754 -0.2983
22905W        W41759  14.152   8.898   3.421  0.0837  0.0209  0.2423
22906W        W41760   7.895  16.561   5.363  0.0520 -0.0148 -0.1645
22907W        W41761  16.557   2.087  12.513  0.3576  0.0256 -0.0283
22908W        W41762   6.273  11.060  13.962  0.1592 -0.0565 -0.0592
22909W        W41763  13.066  18.617   4.595  0.3065  0.3496  0.2400
22910W        W41764   1.492  17.840  11.604 -0.0293  0.1994 -0.2334
22911W        W41765   7.455  12.257   3.063 -0.0405 -0.3548 -0.4651
22912W        W41766  16.067   6.577  13.839 -0.0958  0.2100 -0.3667
22913W        W41767   7.433  15.177   1.226  0.0674  0.5002  0.0655
22914W        W41768   4.628   8.104   1.415 -0.1776  0.0925 -0.1003
22915W        W41769   8.865   1.488   2.302  0.0395  0.0694  0.1190
22916W        W41770   6.705  10.746  14.524  0.1966  0.3670  0.0147
22917W        W41771  11.609  13.291  13.646  0.1088  0.1338 -0.0830
22918W        W41772  14.753   2.865  12.656 -0.0384  0.0349  0.0108
22919W        W41773  17.466   7.047  12.634  0.0922  0.1059 -0.2424
22920W        W41774   0.189   2.488   1.960 -0.1841 -0.0411  0.0517
22921W        W41775  15.801  19.015  10.420 -0.0509  0.1230  0.0554
22922W        W41776   2.975   2.684  13.949  0.1583 -0.0688 -0.0537
22923W        W41777  18.710   3.934  14.279  0.0840  0.0733 -0.2091
22924W        W41778  11.532  10.372   3.010  0.0262 -0.0876 -0.0651
22925W        W41779   3.974   3.807  14.447 -0.2716  0.0239 -0.1788
22926W        W41780  14.744   2.796   9.948 -0.2988 -0.1093 -0.1740
22927W        W41781  18.463  12.257  12.230  0.0227 -0.2302 -0.3170
22928W        W41782   8.108  18.996  12.798 -0.2440 -0.0931  0.3553
22929W        W41783  17.121  13.708  14.670 -0.0942  0.2747  0.0675
22930W        W41784  16.866   6.506   1.906 -0.0344  0.0722  0.1149
22931W        W41785   2.720  18.286  11.151  0.5113 -0.0926 -0.0536
22932W        W41786   0.496  10.151  13.252 -0.1138  0.3561 -0.0448
22933W        W41787  17.831  13.769  12.816 -0.1794  0.3594  0.2791
22934W        W41788   5.473  18.613   3.699 -0.1272  0.1676 -0.1400
22935W        W41789   6.237  11.913   0.839  0.0064 -0.0520 -0.2700
22936W        W41790  12.948   1.523   0.842 -0.2006 -0.0875 -0.1535
22937W        W41791   4.713   1.974  13.058  0.0570 -0.2474 -0.0570
22938W        W41792   7.140  10.599  10.739 -0.1172 -0.2307  0.0139
22939W        W41793   6.984   9.967   3.850 -0.3955 -0.1454 -0.1004
22940W        W41794   7.834  12.758   0.881 -0.1827  0.0287 -0.3311
22941W        W41795  10.935  11.783  12.577  0.0030 -0.2748  0.2401
22942W        W41796  18.098   4.592  10.312  0.3634 -0.4189  0.1032
22943W        W41797  18.297   1.378   0.881  0.1458 -0.0350  0.1703
22944W        W41798   6.348  10.078  10.663 -0.0546 -0.1602  0.0826
22945W        W41799   2.002   5.447   0.855  0.1174  0.1296 -0.2675
22946W        W41800   0.219  15.800  14.700  0.0142 -0.0127 -0.0983
22947W        W41801  11.060   6.297  14.135  0.3278  0.1616 -0.1004
22948W        W41802  17.912   6.397  10.536 -0.1801 -0.0795  0.0541
22949W        W41803   9.755  12.904  13.206 -0.3460  0.0578  0.0524
22950W        W41804  16.513  17.469   1.095 -0.0395  0.2127 -0.1516
22951W        W41805  16.950  13.611  11.672  0.1081 -0.1075 -0.1089
22952W        W41806  18.984  16.615  12.797  0.1090 -0.0923 -0.1492
22953W        W41807  10.274   4.273  11.222  0.0592 -0.2212  0.0595
22954W        W41808  14.601   1.944   0.454 -0.3367  0.3309  0.1003
22955W        W41809   0.832   9.265   0.869 -0.0632 -0.3373 -0.1165
22956W        W41810  14.624  15.924  12.305 -0.2847 -0.2858 -0.1343
22957W        W41811  13.442  15.148  11.910  0.0640 -0.4717  0.2575
22958W        W41812  18.406  11.101   0.434  0.3414 -0.0573 -0.2012
22959W        W41813  11.464  14.226   4.083  0.2131 -0.0702  0.1080
22960W        W41814  17.367  17.207   1.846 -0.1803  0.0849 -0.1646
22961W        W41815   1.022   5.161  10.154 -0.0223  0.0786  0.0496
22962W        W41816   5.488   9.441  12.811  0.1988  0.4381  0.1214
22963W        W41817  12.991   9.753   0.019 -0.0665  0.0850 -0.2114
22964W        W41818  17.880   1.529   0.983 -0.1191  0.2509  0.0876
22965W        W41819  14.178   5.029   3.691 -0.1458 -0.0331  0.1311
22966W        W41820  15.162  16.271  12.681  0.0540 -0.0428  0.3568
22967W        W41821  11.081   6.490   1.565 -0.0023  0.0782 -0.0824
22968W        W41822  15.372  12.887   2.199  0.0857 -0.1297 -0.1551
22969W        W41823  15.029   7.411  13.147 -0.0327  0.0681  0.1265
22970W        W41824   7.843   0.525  13.329  0.1807 -0.2182 -0.0778
22971W        W41825  10.540  15.428  10.451 -0.3693  0.1420 -0.1284
22972W        W41826   4.849   0.283  13.521 -0.3748  0.0582 -0.1499
22973W        W41827   2.624   5.442  12.147  0.3146  0.0537 -0.1155
22974W        W41828   6.251   2.560   3.689  0.1364  0.0923  0.0759
22975W        W41829   3.368   7.455  13.464 -0.2288 -0.1516 -0.3229
22976W        W41830  10.685  17.527  13.624  0.0249  0.0107  0.0778
22977W        W41831   2.807   3.337  14.128 -0.1981  0.3113 -0.3027
22978W        W41832  10.650  12.935   5.343 -0.0908  0.3369 -0.0603
22979W        W41833  12.141  15.835  10.460  0.1123  0.0227  0.0020
22980W        W41834  17.874   9.759   4.055  0.0499  0.1865 -0.0503
22981W        W41835   9.225  15.715  13.588  0.1001  0.2574 -0.0829
22982W        W41836  10.632  16.361  11.610 -0.1420 -0.3189 -0.2067
22983W        W41837   9.408  14.540  11.655 -0.5357 -0.2816 -0.3230
22984W        W41838   1.895  13.392   3.423 -0.1281 -0.0891 -0.1571
22985W        W41839  12.079  16.388  11.152  0.0272 -0.2602 -0.2313
22986W        W41840   5.130   2.389   4.657  0.0013  0.0214  0.1078
22987W        W41841   1.464  18.891   1.242  0.2888  0.0060 -0.2310
22988W        W41842   8.211   3.587   4.641 -0.2960  0.3435 -0.0771
22989W        W41843   6.338   1.023  12.302 -0.0008  0.0986 -0.2001
22990W        W41844  12.516  15.351   2.205  0.0083  0.2303  0.0290
22991W        W41845   4.222  18.296  10.209  0.2311  0.1760  0.3170
22992W        W41846   2.633  17.957  11.487  0.1625 -0.2379 -0.1626
22993W        W41847  13.652   4.398   4.166  0.0776 -0.1627  0.1799
22994W        W41848   8.132   8.051  11.685  0.0541 -0.3422  0.1781
22995W        W41849  16.020  13.887  14.011  0.0569 -0.0630  0.1113
22996W        W41850   5.168   8.962   1.249 -0.0905 -0.2689 -0.1318
22997W        W41851  11.992   7.817  12.992  0.1446 -0.0800 -0.0646
22998W        W41852  15.704   5.365  12.102  0.1466 -0.1443 -0.1160
22999W        W41853  12.487   4.199  12.541 -0.1055 -0.1000  0.0083
23000W        W41854   5.836   4.585   2.333  0.1198  0.0981  0.0685
23001W        W41855  18.348  13.352  10.813  0.1790 -0.0354 -0.1169
23002W        W41856   5.775   9.980  14.576 -0.0412  0.1316  0.0515
23003W        W41857  13.262   5.960   0.147 -0.0120  0.0796  0.0040
23004W        W41858  16.581  17.946   1.876  0.4396 -0.3449  0.1856
23005W        W41859  15.415   5.241   2.092 -0.0526 -0.3885  0.2075
23006W        W41860   1.625   1.421  10.713  0.0574 -0.0656  0.1805
23007W        W41861   2.512   6.674  13.737  0.2222 -0.0538 -0.0800
23008W        W41862   2.473   5.312   0.682 -0.1570 -0.0416 -0.3703
23009W        W41863  11.694   1.241  12.829 -0.0615  0.0041 -0.2878
23010W        W41864   4.573  17.053  11.664  0.3136 -0.1007 -0.1855
23011W        W41865  17.644   0.466   2.569 -0.0430  0.0911  0.1029
23012W        W41866   9.699  18.680  14.063  0.3631  0.1821  0.1549
23013W        W41867   5.300  16.780   1.303 -0.0255  0.0716 -0.1352
23014W        W41868   4.952   9.166   4.277 -0.2785 -0.0738  0.2470
23015W        W41869  14.100   0.660   1.398  0.3223  0.1248 -0.2867
23016W        W41870  11.579   1.642   0.711  0.1560  0.1307 -0.0792
23017W        W41871  17.261   8.495  13.317 -0.0395  0.0528  0.0615
23018W        W41872  13.128   3.056   1.542 -0.2043 -0.2455 -0.0412
23019W        W41873  11.904  10.327   0.823  0.0256 -0.1558  0.1274
23020W        W41874  15.810   3.856   2.780 -0.2652  0.2957 -0.2337
23021W        W41875  14.441   1.078  12.905  0.0629 -0.1553  0.0516
23022W        W41876   8.090  12.017   4.290 -0.0110  0.1701 -0.0816
23023W        W41877   4.999  13.572  11.268  0.2058 -0.2763  0.0850
23024W        W41878  17.517   2.462   1.779 -0.2336  0.0214  0.0300
23025W        W41879  19.141  18.291   3.201  0.2703 -0.0830 -0.3896
23026W        W41880  17.432   4.013   3.591 -0.1988  0.0171  0.1477
23027W        W41881  17.053  18.767  13.120  0.1207 -0.2571 -0.1570
23028W        W41882   8.530   1.114   0.099 -0.2353 -0.0808 -0.3375
23029W        W41883  14.785   5.795   4.007  0.1534  0.2322  0.1356
23030W        W41884   5.503   6.525   2.280  0.0996 -0.1647 -0.0585
23031W        W41885   1.442   1.391   0.171  0.0645  0.3448  0.0861
23032W        W41886  13.073   2.044  14.647  0.2541  0.0057 -0.0203
23033W        W41887  17.948   1.488  12.539  0.0153  0.0200  0.0446
23034W        W41888  13.809  12.473   1.132  0.1382 -0.0444 -0.1453
23035W        W41889  13.371   6.911   1.857 -0.0774  0.0255  0.0852
23036W        W41890  12.131   9.637  13.540 -0.4035  0.0934 -0.1465
23037W        W41891  18.481   3.001   9.890 -0.1357 -0.0269  0.2393
23038W        W41892  18.469  13.348   2.871  0.3321 -0.1577  0.0737
23039W        W41893  10.815   2.492  14.062  0.0042 -0.1577 -0.5389
23040W        W41894   8.172   4.826  11.274 -0.1710  0.0846  0.2354
23041W        W41895   7.545   9.714  13.767 -0.4349 -0.0178  0.0179
23042W        W41896   8.807   5.314  11.989 -0.1471 -0.1001  0.2956
23043W        W41897  11.965   3.556   4.913  0.0461  0.1985 -0.0530
23044W        W41898   1.894   5.899  11.469  0.0063 -0.1964  0.0424
23045W        W41899  11.068  11.474  10.642  0.2268  0.1877  0.2495
23046W        W41900  17.010  18.040   2.788  0.1304  0.1837 -0.1716
23047W        W41901  11.012   2.815   1.047 -0.1879 -0.1810  0.0386
23048W        W41902   5.076  10.651   3.472 -0.0075 -0.1876 -0.3820
23049W        W41903  19.102  16.739  12.199 -0.0557  0.0365 -0.0701
23050W        W41904   8.820   6.755   2.143  0.2727  0.0960  0.1730
23051W        W41905   5.329   7.623   4.115  0.0557 -0.0634  0.0514
23052W        W41906   2.419   0.643   1.030 -0.1088  0.0364 -0.1066
23053W        W41907   9.826   5.850   0.722  0.2175 -0.0535 -0.1551
23054W        W41908  17.567  10.983   3.276 -0.0803 -0.0499  0.0966
23055W        W41909   6.368   4.593  14.390 -0.0499 -0.2528 -0.3244
23056W        W41910   3.841   1.319   5.530  0.0689  0.0795  0.1768
23057W        W41911   0.695  16.154   3.730  0.1083 -0.0139  0.0742
23058W        W41912  11.432  14.343   2.881 -0.3448  0.0176  0.0724
23059W        W41913   2.699   7.771  11.086  0.3513  0.2302 -0.0261
23060W        W41914   8.377   6.931  13.888 -0.3515 -0.2026  0.3526
23061W        W41915   4.134  15.901  10.836 -0.1949 -0.2847  0.2049
23062W        W41916  13.051  15.833  12.977 -0.2641  0.4469  0.0275
23063W        W41917  17.097   8.159   1.757  0.0924  0.0854  0.1322
23064W        W41918  11.525  16.472  13.250 -0.1636 -0.0798 -0.0745
23065W        W41919   5.438   0.738   2.278  0.1538 -0.0589  0.2463
23066W        W41920   2.974  17.608  11.584  0.1767  0.1282 -0.1053
23067W        W41921   8.414  13.369   0.372  0.0611  0.4506  0.0882
23068W        W41922  18.085  16.584  12.827 -0.1893  0.0654 -0.1821
23069W        W41923  14.383   5.686   3.177  0.2048 -0.4064  0.0301
23070W        W41924   3.491  13.493   0.419 -0.0997 -0.0085 -0.1215
23071W        W41925   2.096  11.592   3.777 -0.2551 -0.0456  0.2579
23072W        W41926  13.947  18.662   3.322 -0.0279  0.2122 -0.1471
23073W        W41927  10.447   6.549  11.504 -0.2756  0.3129 -0.2592
23074W        W41928  16.101  18.357  14.560  0.3394 -0.0518  0.4275
23075W        W41929  12.694  14.925  11.687  0.1178  0.1804  0.1060
23076W        W41930  11.113   7.638  11.283 -0.0188 -0.4128  0.0550
23077W        W41931   6.319  18.185  14.556 -0.0257  0.1337  0.2727
23078W        W41932   6.887   3.395  13.260 -0.0196  0.1097 -0.1211
23079W        W41933  17.187  18.400   4.990  0.0688 -0.3143  0.0362
23080W        W41934  13.699   6.153  11.380  0.1679  0.1773 -0.0108
23081W        W41935   3.800   8.065   2.369  0.2103  0.0734  0.0509
23082W        W41936  18.030   7.271   2.464 -0.2033  0.0085  0.0046
23083W        W41937  17.885  14.344   2.149  0.3689  0.1910 -0.0272
23084W        W41938  10.025   5.879  12.883 -0.0835  0.1049 -0.0237
23085W        W41939  13.912   2.804  10.782  0.1248 -0.1930  0.0534
23086W        W41940   7.078   7.255   3.898  0.1715 -0.1804 -0.1642
23087W        W41941   1.317   5.474   3.215 -0.1435  0.0624 -0.2857
23088W        W41942  16.927  15.739   1.239 -0.1081  0.5203 -0.0488
23089W        W41943   6.711  18.989  10.534 -0.1068 -0.0479 -0.2540
23090W        W41944  11.717   6.288  14.212  0.1071 -0.1132  0.0064
23091W        W41945  16.779   7.121   3.763 -0.1612  0.1352  0.4367
23092W        W41946  10.763   4.742   1.163 -0.2020 -0.2077  0.1918
23093W        W41947  14.559   9.610  11.111 -0.2207  0.1338  0.0222
23094W        W41948  15.219   5.977  12.265  0.3394  0.1036  0.0632
23095W        W41949  15.391   4.495  11.195 -0.3096 -0.0306 -0.2521
23096W        W41950  18.330  15.894  10.689  0.0557  0.1865  0.0618
23097W        W41951   6.832  17.217  10.402 -0.0332 -0.0705  0.1351
23098W        W41952   4.484   7.994  12.192 -0.0800 -0.0862  0.1415
23099W        W41953   1.023   0.213   4.907 -0.3360  0.0877 -0.0126
23100W        W41954   1.799   0.005   2.184 -0.0710  0.1715  0.1378
23101W        W41955  13.437  13.513   0.162  0.3089  0.0005 -0.0792
23102W        W41956  16.609  18.668  14.402  0.1005  0.2269  0.0206
23103W        W41957  10.411   7.747   3.976 -0.0596  0.1487 -0.0180
23104W        W41958  17.281   9.177   0.742 -0.2160  0.1614 -0.0964
23105W        W41959  17.443  13.620   0.644 -0.2161  0.1217 -0.1234
23106W        W41960  14.710  11.396   3.086  0.2072 -0.1207 -0.1478
23107W        W41961  18.083  15.065  14.279  0.2339  0.0632 -0.1810
23108W        W41962   9.038   1.867  14.761 -0.1420  0.2082 -0.1402
23109W        W41963  12.204   1.270  10.816  0.2934 -0.3241 -0.0787
23110W        W41964  15.370  17.511   3.381 -0.2897  0.1423 -0.0619
23111W        W41965  13.389  16.170   2.244 -0.1969 -0.1060 -0.3028
23112W        W41966   8.045  11.068   0.744 -0.1250  0.0820 -0.0351
23113W        W41967  17.217  17.952   1.716 -0.3199  0.4070 -0.0980
23114W        W41968   5.851   3.098  13.471 -0.1703 -0.3103  0.3804
23115W        W41969   9.240   8.638  14.278  0.0751  0.2082 -0.3086
23116W        W41970   0.347   5.716   3.160 -0.2987  0.1670 -0.0397
23117W        W41971  12.307  11.627  13.337  0.1948  0.0372 -0.0686
23118W        W41972   7.551   6.327   4.021  0.0448  0.0088  0.0809
23119W        W41973  13.492   0.570  14.119  0.0359  0.0456 -0.0738
23120W        W41974  17.662  13.036   0.120  0.0338  0.0625 -0.1000
23121W        W41975  12.770  10.756   1.844  0.2287 -0.1288 -0.1914
23122W        W41976  15.015   3.158   0.683  0.2432 -0.1958 -0.2706
23123W        W41977   1.230   6.809  14.676 -0.1851 -0.1020  0.2996
23124W        W41978  16.601  12.924  11.016 -0.2723 -0.0965  0.1046
23125W        W41979   7.415   7.929   1.625  0.1307  0.0559  0.0441
23126W        W41980   1.233  14.088   4.833 -0.0636 -0.3273  0.1961
23127W        W41981  17.351   5.001   3.326 -0.0958  0.0847 -0.1832
23128W        W41982   1.219   7.569   4.396 -0.1516  0.0929  0.1385
23129W        W41983  18.689   6.802  14.283  0.0372  0.0566  0.3037
23130W        W41984   8.011  10.675   1.111 -0.0238  0.1322  0.2342
23131W        W41985   5.219  12.886   3.752 -0.1542 -0.0763 -0.0718
23132W        W41986  11.778  11.176   3.198  0.0846  0.2776 -0.1125
23133W        W41987  18.480   8.641   3.091 -0.0938 -0.0737 -0.0388
23134W        W41988  14.433   7.803  12.007 -0.0030 -0.0019 -0.2018
23135W        W41989   7.611  18.829   0.049 -0.2085  0.1568  0.5921
23136W        W41990   5.790  16.360   2.066  0.0743 -0.2294 -0.0621
23137W        W41991   9.477   4.435  13.925 -0.2133 -0.0390  0.1240
23138W        W41992   7.877   9.468   5.586  0.0488  0.0502 -0.1369
23139W        W41993  10.983  14.563  13.976  0.1829 -0.1587 -0.2797
23140W        W41994  10.156   5.687   0.275  0.1679  0.2602 -0.0978
23141W        W41995  12.691  13.755  13.453  0.0930  0.2598 -0.1095
23142W        W41996  17.815  17.321  12.490 -0.3176 -0.2633 -0.5146
23143W        W41997   1.949   9.324  13.326 -0.1365  0.5506 -0.0825
23144W        W41998  14.377  18.864  13.099 -0.0784 -0.0540 -0.0954
23145W        W41999   4.592  12.323  11.620  0.1440 -0.0100  0.0022
23146W        W42000  12.478   8.838   0.826  0.1809  0.1742 -0.1180
23147W        W42001   9.722  15.744   1.086  0.1162 -0.3880  0.0320
23148W        W42002  12.598   8.848   1.944  0.2740  0.3490  0.1896
23149W        W42003  14.423   5.443  12.023 -0.0579  0.1488 -0.2910
23150W        W42004   2.469   4.879  13.193  0.0524  0.1207 -0.0666
23151W        W42005   6.727  14.274  12.973 -0.1010 -0.0379 -0.0196
23152W        W42006  10.075  11.601   0.304 -0.0434 -0.3081 -0.1061
23153W        W42007   8.062  11.693   2.702  0.0440  0.4187  0.1790
23154W        W42008   0.861  12.985  10.688  0.0188 -0.2441 -0.0377
23155W        W42009   1.840   1.602  14.180 -0.0885 -0.1601  0.2108
23156W        W42010   2.917  13.722  14.286  0.2613  0.3693  0.1272
23157W        W42011  15.810  14.507  11.045  0.4168  0.0153 -0.2960
23158W        W42012   1.156   6.543  13.862  0.3852  0.0685  0.0199
23159W        W42013   9.049  11.400  14.387  0.0292  0.2840 -0.2077
23160W        W42014  16.145   1.315   3.205 -0.3328 -0.2835 -0.1881
23161W        W42015  12.609   7.180   1.385 -0.0717  0.1341  0.2775
23162W        W42016  17.343   0.564   3.587 -0.1809  0.2234  0.0770
23163W        W42017   9.415  14.170   2.103  0.2004 -0.3019 -0.0131
23164W        W42018   8.527  12.586   1.066 -0.3493 -0.2295 -0.0756
23165W        W42019  14.683   8.747  10.960 -0.3460  0.1343 -0.3040
23166W        W42020  13.195  12.701   2.816  0.2728  0.0315  0.0325
23167W        W42021   3.854  18.944  10.884  0.4061  0.0071  0.2123
23168W        W42022  15.135   9.997   2.600 -0.2803  0.0345 -0.2109
23169W        W42023  13.169  15.267  10.138  0.1012 -0.1871  0.4672
23170W        W42024   4.533   3.394   3.537 -0.2185  0.0646  0.1543
23171W        W42025   7.788  17.848  14.279  0.0965  0.3936 -0.0758
23172W        W42026   2.092   1.509  13.769 -0.0089 -0.0709  0.1873
23173W        W42027  15.807  18.860   4.031 -0.0538  0.2336 -0.1210
23174W        W42028  15.885  14.958  14.610  0.2410 -0.2797 -0.0487
23175W        W42029   1.664   1.956  13.805 -0.0984  0.1545 -0.0697
23176W        W42030  11.144   0.149  12.079 -0.1751 -0.3458  0.1639
23177W        W42031  10.988   6.665   4.426 -0.1186  0.1430 -0.0863
23178W        W42032   0.982   6.729   3.020 -0.1697  0.1370  0.2041
23179W        W42033   5.041  10.165  12.183  0.2005 -0.0832 -0.0979
23180W        W42034   6.666   0.673   9.914  0.1080  0.2148  0.3082
23181W        W42035  11.737   2.401  11.478  0.2480  0.2367 -0.1059
23182W        W42036  12.397   3.922  12.943  0.2238 -0.1899  0.4856
23183W        W42037   5.673   9.099   3.948 -0.0060 -0.0789 -0.0864
23184W        W42038   4.345  13.919  11.612  0.1045  0.0624  0.2959
23185W        W42039  13.841  16.413  14.136  0.1136  0.0193  0.0882
23186W        W42040  13.430  17.567   0.286  0.1357  0.0767 -0.0427
23187W        W42041   9.866  16.327   3.914 -0.0174  0.3038  0.2804
23188W        W42042  13.167  10.829   2.214  0.1102  0.0662 -0.3644
23189W        W42043   4.249   3.318  10.175  0.2298  0.1357 -0.0893
23190W        W42044  13.460   7.327   4.291 -0.0555 -0.0535  0.2918
23191W        W42045  13.108   7.973   1.825  0.0225 -0.1059 -0.2430
23192W        W42046  13.080  16.014   0.640 -0.0138 -0.0200 -0.3967
23193W        W42047  12.867  12.064   2.568 -0.1260  0.1644 -0.2239
23194W        W42048  15.593   7.010  13.994  0.0816  0.1344  0.1051
23195W        W42049   2.715   9.787   1.332 -0.1207 -0.0519 -0.0090
23196W        W42050  11.432   1.190  12.378  0.0266 -0.0018 -0.1477
23197W        W42051  17.090  19.020   1.474 -0.0237  0.1240  0.1400
23198W        W42052  16.873  15.393  12.008 -0.0888  0.2209 -0.2136
23199W        W42053  16.127   9.509   4.147 -0.2609  0.0420  0.3013
23200W        W42054   3.863   5.757   4.086  0.0423 -0.1052  0.1027
23201W        W42055  13.593  16.685   4.408 -0.1888  0.1057 -0.0806
23202W        W42056  17.693  14.145   1.327  0.0075  0.4006 -0.0821
23203W        W42057  14.348  18.956   4.028  0.0918  0.1598  0.1417
23204W        W42058   5.452  17.756   0.578  0.0502 -0.0479  0.1065
23205W        W42059   0.081  17.359   0.490 -0.1717  0.0308 -0.0837
23206W        W42060  14.503   6.913  11.765  0.1991 -0.3378  0.1153
23207W        W42061   3.670   8.406   0.705 -0.1210 -0.0907 -0.2836
23208W        W42062  12.387  12.595   0.435 -0.0341 -0.2026 -0.0734
23209W        W42063  11.714  10.616   3.371  0.0717 -0.0430  0.0766
23210W        W42064  10.390  16.399   1.381  0.0826  0.0622  0.0240
23211W        W42065   5.968  16.586   0.833  0.1818  0.0254 -0.1472
23212W        W42066  16.906   2.026   2.290  0.0701  0.5121  0.0317
23213W        W42067  13.931  15.319   0.660  0.2031 -0.2048  0.0478
23214W        W42068  15.588   3.862   2.328  0.0292 -0.1162  0.0267
23215W        W42069   0.097   8.492  13.837 -0.0556  0.3222  0.0879
23216W        W42070   4.064   8.141  13.690 -0.0345  0.0815  0.0496
23217W        W42071  12.431   5.406   0.390 -0.1161  0.1159 -0.1754
23218W        W42072   9.433  15.417  14.635  0.1196  0.3315 -0.3418
23219W        W42073  11.010   6.755  14.449 -0.1993 -0.1171 -0.1333
23220W        W42074   3.301   4.591   2.976 -0.0409  0.1026  0.1657
23221W        W42075   5.330   7.171  11.359  0.0881  0.0066  0.1155
23222W        W42076  10.180  11.886  11.226 -0.0316  0.0015  0.1208
23223W        W42077   0.777  16.735   3.668  0.0298  0.3954  0.0097
23224W        W42078  10.155  17.926  14.641 -0.3889  0.2003 -0.1330
23225W        W42079  19.052  17.467  14.503  0.0777  0.0713  0.0829
23226W        W42080   4.921  14.229   1.060 -0.1792 -0.2800 -0.0146
23227W        W42081   4.788  13.525   1.223 -0.0424 -0.0303 -0.0319
23228W        W42082   3.296   3.816   4.104 -0.3434  0.3462 -0.0656
23229W        W42083  16.001  16.866   2.481  0.2545 -0.0705  0.1086
23230W        W42084   9.042  12.315   3.329  0.0634  0.0034  0.0139
23231W        W42085  14.376  13.793  14.157 -0.4120  0.2583 -0.1121
23232W        W42086   3.287   0.679   2.294  0.0106  0.1190 -0.0404
23233W        W42087   3.814   1.901   2.112  0.0206  0.1004 -0.1564
23234W        W42088  12.585  15.971   9.867  0.1487 -0.1443  0.2148
23235W        W42089   7.426  13.222  13.802 -0.2293 -0.4309 -0.1797
23236W        W42090   0.906  11.429   0.139 -0.0725 -0.0636  0.1608
23237W        W42091   7.208  18.965  12.461 -0.0659 -0.2056 -0.0169
23238W        W42092  13.991  14.292   5.097 -0.0490  0.0318  0.0287
23239W        W42093   7.603   0.700  10.903  0.1657  0.2376 -0.0519
23240W        W42094   8.601   9.704  11.521  0.3728  0.3047 -0.1764
23241W        W42095   7.103   8.411   2.646 -0.3645  0.2645 -0.0131
23242W        W42096  16.078  18.509  13.004  0.2690  0.2664 -0.0127
23243W        W42097  16.418   6.606   2.667  0.2286  0.1585 -0.2554
23244W        W42098   1.711   1.414  11.915  0.4401  0.0458  0.1861
23245W        W42099   2.332   9.199   2.959  0.1647  0.0581 -0.0290
23246W        W42100   5.789  10.049   2.309 -0.1857  0.2193 -0.1323
23247W        W42101   0.083  18.662  13.940  0.2199 -0.0657 -0.0931
23248W        W42102   2.778   0.790   3.976  0.1043 -0.2022  0.2289
23249W        W42103   9.054   3.713   2.720  0.1775 -0.0706 -0.2684
23250W        W42104  18.552   9.444   1.231 -0.3211  0.1382  0.1847
23251W        W42105  13.220   9.131   1.389 -0.1374 -0.1610 -0.2984
23252W        W42106   6.793   3.040  14.777  0.4017  0.1253 -0.2815
23253W        W42107  18.621  19.111   3.411  0.0452  0.0345  0.1127
23254W        W42108   8.837  16.048   0.757 -0.0395  0.0857 -0.0290
23255W        W42109  14.034   9.313   2.494  0.0057  0.0713 -0.0201
23256W        W42110  19.095  15.079  11.825 -0.0270 -0.0822 -0.1332
23257W        W42111   6.277  11.209  14.469  0.2854  0.0780  0.2039
23258W        W42112  14.122   2.025   1.606  0.0166  0.1123  0.0632
23259W        W42113   5.851  11.253  14.082  0.1299 -0.1502 -0.1638
23260W        W42114   3.814  18.733   1.418 -0.2384 -0.3999  0.1607
23261W        W42115  16.700  16.382  12.756  0.0567 -0.2750 -0.0767
23262W        W42116  17.334  11.858  14.492  0.1047 -0.0823  0.1242
23263W        W42117  13.901   8.873  14.715 -0.0209  0.4311 -0.1686
23264W        W42118   1.868   8.411   4.028  0.3327 -0.1026 -0.0149
23265W        W42119   8.240   7.315  12.346  0.0495  0.1820  0.0795
23266W        W42120   6.173  18.998   3.530  0.1157 -0.0796  0.1647
23267W        W42121  18.416  15.158   0.684  0.1123  0.2685 -0.0586
23268W        W42122  15.857  16.761  13.611  0.0600  0.0614 -0.1112
23269W        W42123  14.676  12.472  14.102 -0.0988  0.0296 -0.1340
23270W        W42124  14.287  18.744  11.806 -0.2927 -0.0121  0.2161
23271W        W42125   1.396  18.769  11.031  0.0558  0.0118  0.1785
23272W        W42126   6.955   1.364  12.859  0.3320 -0.1215  0.3469
23273W        W42127   8.453  11.199   3.364 -0.1164 -0.2684 -0.0398
23274W        W42128   2.594  16.103   1.110 -0.1271 -0.0388  0.0681
23275W        W42129  14.849  13.415  10.673  0.5099 -0.1836 -0.1656
23276W        W42130   7.814   8.993  11.210 -0.0773  0.4506 -0.0297
23277W        W42131  11.639   8.902   4.566 -0.2939 -0.0868 -0.0386
23278W        W42132   3.699   6.610  14.748  0.0760 -0.3075  0.1030
23279W        W42133  19.060  14.572   1.235  0.5777 -0.0912 -0.2040
23280W        W42134   0.024   5.067  11.701 -0.0443  0.1261 -0.0297
23281W        W42135   3.087   3.115  10.576 -0.0747 -0.2732  0.0483
23282W        W42136   7.886   1.157   1.410 -0.3675  0.0376 -0.0932
23283W        W42137   4.767   7.105   4.240 -0.1089  0.1557  0.1393
23284W        W42138   2.781   3.393  10.325  0.0523 -0.0614  0.1971
23285W        W42139  12.204  14.347  12.402  0.1041 -0.2159  0.1584
23286W        W42140  17.871  11.277  10.567 -0.1475  0.2850  0.0071
23287W        W42141  16.096   5.095  13.951  0.0274  0.0057 -0.3094
23288W        W42142  15.954  18.529   9.533 -0.0183 -0.1475 -0.0407
23289W        W42143  11.438   0.405   3.236  0.0505  0.1652  0.1330
23290W        W42144  18.835  13.015   1.451  0.1509 -0.0308  0.1056
23291W        W42145  16.407   8.457  10.667  0.1342 -0.3272  0.1048
23292W        W42146  18.225  13.022   4.480 -0.1915 -0.0721 -0.2375
23293W        W42147   0.738  18.440   2.874  0.0922  0.2075  0.2355
23294W        W42148  17.350  12.658   1.359  0.2507 -0.1801 -0.1612
23295W        W42149  12.413   7.911   4.439 -0.0138 -0.2659 -0.0283
23296W        W42150   0.955   3.928   0.936 -0.1763  0.3338 -0.0874
23297W        W42151   8.235   3.680   0.724  0.0832  0.0411  0.1720
23298W        W42152   6.534   3.178  12.335  0.4382 -0.1265  0.1240
23299W        W42153  15.573   5.468   1.672 -0.1946 -0.0428  0.2952
23300W        W42154  10.992   3.393  13.588 -0.1686  0.0449 -0.2334
23301W        W42155  13.202  18.028   0.729 -0.2009 -0.4794 -0.3560
23302W        W42156  10.632  18.952  14.650 -0.3599  0.0995  0.1436
23303W        W42157  16.867  14.092  14.136 -0.2718  0.0587  0.1169
23304W        W42158  18.538  11.508   2.639 -0.2108  0.0550  0.0859
23305W        W42159  15.389  15.991   2.882  0.1387 -0.0284 -0.0170
23306W        W42160   0.122  14.930   0.376  0.0642 -0.1010  0.2892
23307W        W42161  16.514  15.464  11.654 -0.1820  0.0016  0.0069
23308W        W42162   6.249  13.549  10.546  0.1366 -0.1395 -0.1400
23309W        W42163   8.063  13.063   2.528 -0.0758 -0.0576  0.4213
23310W        W42164  18.375   2.505  11.197 -0.2662 -0.2002  0.2099
23311W        W42165  13.428   4.456  10.467 -0.0313  0.0745 -0.0583
23312W        W42166   0.895  11.729   1.961 -0.1366 -0.1928  0.1599
23313W        W42167   3.679   8.111  12.748  0.0093 -0.2988 -0.0233
23314W        W42168   5.016   1.847   3.856  0.1366  0.0458  0.1291
23315W        W42169  12.462  17.077  11.643 -0.1638  0.0581 -0.4609
23316W        W42170   1.965   3.600  12.043 -0.0308 -0.3238 -0.1878
23317W        W42171  13.893   2.814  12.861  0.3450 -0.0413 -0.2154
23318W        W42172   4.355   9.254   3.628 -0.0648 -0.2741 -0.4355
23319W        W42173  15.572   2.431  10.948  0.0853 -0.3361 -0.1395
23320W        W42174  17.109  15.458   0.278 -0.1610  0.2012  0.1803
23321W        W42175   6.745  17.162  10.920 -0.1665 -0.2309  0.0594
23322W        W42176   1.554   8.033  10.268 -0.0219 -0.0469  0.3793
23323W        W42177  16.956  18.893  11.266  0.0958  0.3425  0.2104
23324W        W42178  13.140  13.844  13.716 -0.0711  0.1077  0.1679
23325W        W42179   2.074  15.760   4.196 -0.2674 -0.5501  0.0096
23326W        W42180   9.428  10.921  12.412  0.0297  0.2311 -0.0587
23327W        W42181   1.667   3.217   0.883 -0.0086  0.2940 -0.1782
23328W        W42182   7.246  12.915   2.757 -0.2729  0.2601  0.1098
23329W        W42183   1.333   5.098   2.357  0.2495  0.1579 -0.3830
23330W        W42184   7.762  17.887  11.039 -0.1229  0.1525 -0.3256
23331W        W42185  11.535  14.042   1.004 -0.2350  0.2220  0.4474
23332W        W42186   6.914  17.950  13.883  0.0424  0.2003  0.1104
23333W        W42187   5.928   6.622  13.135 -0.1409 -0.0083 -0.1099
23334W        W42188  16.436  17.041   0.251 -0.0491 -0.1960 -0.0087
23335W        W42189   9.053  17.028  11.335  0.0670 -0.2890 -0.0315
23336W        W42190  13.177  18.397   2.692 -0.3128  0.3486  0.1293
23337W        W42191   9.274   9.408   0.791 -0.2235 -0.0232  0.0484
23338W        W42192   5.627  16.867   2.188 -0.0200 -0.2580 -0.0580
23339W        W42193  18.500   2.527  10.080  0.0921 -0.2065  0.0241
23340W        W42194   5.229   9.521  12.051  0.1657 -0.0421 -0.0803
23341W        W42195  16.097   3.660  13.941 -0.2408  0.1122  0.1913
23342W        W42196   9.225  13.541   3.500  0.0193  0.2504  0.1360
23343W        W42197  18.938   2.201  12.636  0.0150 -0.0157 -0.1141
23344W        W42198   6.629  17.472  11.841  0.3361 -0.1720 -0.2157
23345W        W42199   8.100  15.425   2.832 -0.0766 -0.0819  0.2274
23346W        W42200  10.126   9.625   3.895  0.3059 -0.1160 -0.3059
23347W        W42201  18.652   2.241  14.460  0.0971  0.1009 -0.2768
23348W        W42202   2.895   6.127   4.502 -0.1869  0.2262  0.2354
23349W        W42203  11.337  15.939   0.205  0.1099 -0.1508  0.0710
23350W        W42204   8.307   9.283  11.508  0.3183 -0.2607 -0.1650
23351W        W42205   7.509   4.543   3.971  0.0601  0.0220 -0.2429
23352W        W42206   8.276  11.793   1.657 -0.0792  0.1337  0.0851
23353W        W42207  19.022   2.458   3.641  0.2545  0.0483 -0.3050
23354W        W42208  17.473   6.167   2.519  0.2239  0.4796 -0.1248
23355W        W42209  14.546   2.238  10.531  0.3752  0.0380  0.1022
23356W        W42210  16.778   5.335   0.927 -0.1034  0.0858  0.3100
23357W        W42211  12.704  12.772   5.661 -0.1319 -0.0850 -0.1563
23358W        W42212  10.780   3.250   3.559 -0.0182 -0.0887 -0.0177
23359W        W42213  18.227   6.510   2.102 -0.1591 -0.2351  0.0726
23360W        W42214  14.077   1.244  14.434  0.1575 -0.1233 -0.0336
23361W        W42215  16.802  11.832   0.495 -0.2959 -0.2860 -0.0307
23362W        W42216   0.542   8.810   1.582 -0.2061 -0.0398  0.1849
23363W        W42217   5.882   6.433  12.391 -0.5282 -0.1760 -0.3412
23364W        W42218   4.638   8.796  11.677 -0.3510  0.1799  0.0253
23365W        W42219   0.177  17.131   5.101  0.0763 -0.4717 -0.1073
23366W        W42220   8.728   2.519  13.600 -0.1460  0.0028  0.1773
23367W        W42221   2.702  16.695  12.559 -0.4788 -0.2169 -0.1242
23368W        W42222  12.658  13.525  11.140  0.0742 -0.0817 -0.0542
23369W        W42223   6.304   4.391   4.769  0.1461 -0.0190  0.0148
23370W        W42224   2.578   9.532   4.212 -0.0977  0.3257  0.0391
23371W        W42225   1.335   2.864   3.291 -0.2310  0.1269  0.1824
23372W        W42226  15.954  10.953   1.847  0.1800 -0.0883  0.1616
23373W        W42227  11.605   6.695   1.020  0.0228  0.1062  0.1075
23374W        W42228  13.102   8.710   0.237 -0.3990  0.0555 -0.0137
23375W        W42229   9.310  17.887   1.674 -0.1773 -0.1105  0.3830
23376W        W42230  10.524  16.473  10.675 -0.2257  0.1748 -0.4544
23377W        W42231  16.807  16.438  12.169  0.2227 -0.1090  0.1570
23378W        W42232   5.036   6.702   2.263 -0.3023  0.0793  0.1754
23379W        W42233   3.616  13.016   1.226  0.0288  0.1459 -0.2142
23380W        W42234  12.268   4.412  14.268 -0.2193  0.2816 -0.0289
23381W        W42235  11.383   1.780   1.932  0.1989 -0.1685 -0.0155
23382W        W42236   8.712  12.519  10.358 -0.0502  0.2548  0.1245
23383W        W42237  14.376   6.785  13.640  0.0535 -0.0284 -0.0694
23384W        W42238   8.225  16.985  12.745  0.1075 -0.0808  0.2630
23385W        W42239  11.837  14.573  13.342 -0.0912  0.6562  0.1328
23386W        W42240   0.318  19.006  13.672 -0.2060  0.0660  0.0646
23387W        W42241   3.005  10.306   1.082  0.0349 -0.1678 -0.1668
23388W        W42242   1.901  11.296   1.719 -0.1351 -0.0192  0.0119
23389W        W42243  12.534  16.661   3.676  0.2405  0.0665  0.0217
23390W        W42244  18.324  10.682   4.173 -0.1861 -0.0208  0.1874
23391W        W42245   6.159  12.978   0.705 -0.2293  0.2002 -0.1461
23392W        W42246   6.465  12.538   0.198 -0.3017 -0.1329 -0.0322
23393W        W42247  17.539   1.973   3.705 -0.4513  0.0241  0.3050
23394W        W42248   7.221   0.002  12.919  0.0027  0.0846 -0.0206
23395W        W42249   8.422  10.339  13.213 -0.0166 -0.4392  0.3373
23396W        W42250   1.246  14.824  10.065  0.3474 -0.2233  0.1682
23397W        W42251  14.550   6.172   1.641 -0.0059 -0.3669  0.2426
23398W        W42252   1.838   6.302   2.146 -0.2957 -0.0456 -0.3610
23399W        W42253  13.633  13.092   3.731 -0.1717 -0.2722 -0.1296
23400W        W42254   7.666   1.666   1.446 -0.0037 -0.1037  0.0116
23401W        W42255  10.228   0.364  14.237 -0.0871 -0.0897 -0.0264
23402W        W42256   4.921  15.308  13.177  0.2744 -0.0570 -0.0083
23403W        W42257  13.973  18.620  12.738 -0.0023  0.0405  0.4629
23404W        W42258  17.977  12.421  10.836 -0.1359 -0.0312 -0.0944
23405W        W42259  18.433  14.780   4.756 -0.2604 -0.3579  0.0770
23406W        W42260   8.321   1.974   5.475 -0.2168 -0.3104 -0.0046
23407W        W42261  18.047  19.132  12.361  0.2942  0.0260 -0.1071
23408W        W42262   0.474   5.187  14.070  0.3874  0.4889  0.0343
23409W        W42263  16.202  17.654   3.517  0.0421 -0.0333  0.0327
23410W        W42264   0.527   3.284   0.356  0.0303 -0.1006  0.1169
23411W        W42265   2.566   3.052   0.582 -0.1125 -0.0511  0.0269
23412W        W42266  13.200  14.334   3.312 -0.0684 -0.0696  0.2233
23413W        W42267  11.970  15.969  11.353  0.1355  0.0471  0.0754
23414W        W42268   9.618  15.241  12.506 -0.1391  0.0170 -0.4111
23415W        W42269  18.146   5.257  12.901 -0.2877 -0.3401  0.2494
23416W        W42270  11.956   9.479   1.326 -0.2888 -0.1009  0.2087
23417W        W42271  12.592  14.871  10.696  0.2043 -0.1149 -0.2804
23418W        W42272   8.468  16.763  14.598 -0.1146  0.0008 -0.0632
23419W        W42273   8.763  11.026  14.372 -0.1219  0.1671  0.0130
23420W        W42274  13.918   2.920   3.663 -0.2956  0.2110 -0.3604
23421W        W42275   4.331   7.870   0.698  0.1149 -0.0465 -0.3357
23422W        W42276  17.763  19.025   0.249 -0.0829 -0.2231 -0.2651
23423W        W42277  18.975   6.118  11.851  0.0309 -0.2407 -0.3229
23424W        W42278   9.159  15.023   2.400 -0.3147 -0.3235  0.0135
23425W        W42279  18.532  13.365   1.503 -0.1301  0.0631 -0.1605
23426W        W42280   0.549  13.878  11.522 -0.0602  0.0009 -0.0028
23427W        W42281  13.809  12.352   3.040 -0.0009 -0.0763  0.5548
23428W        W42282   2.511   7.116  14.104  0.3260  0.0516  0.2615
23429W        W42283  18.406  14.315  14.243  0.0834 -0.0529  0.2109
23430W        W42284   6.563   7.170  12.183  0.2238 -0.0522  0.1275
23431W        W42285   6.093   4.112   0.163  0.1780 -0.4572 -0.0278
23432W        W42286   1.361   1.917  14.310  0.1370 -0.0176 -0.1973
23433W        W42287  16.969   2.779  10.194  0.1453  0.0508  0.1340
23434W        W42288  17.976   8.788   3.324 -0.1313 -0.1554 -0.1007
23435W        W42289   0.444  18.030   4.700 -0.4286 -0.3591 -0.1411
23436W        W42290  16.274  15.816  11.143  0.2449 -0.2261  0.1147
23437W        W42291  12.606  10.471   4.198  0.0507 -0.1160  0.0161
23438W        W42292   8.892   5.895  10.980 -0.0669  0.3996  0.0283
23439W        W42293   6.067  15.760   1.847 -0.0951  0.0372 -0.1068
23440W        W42294  14.271   2.386   2.406  0.0557  0.1329  0.1285
23441W        W42295   1.254  15.484  12.867 -0.1568  0.0209 -0.1443
23442W        W42296   0.353   0.586  14.526  0.0265 -0.0928 -0.3419
23443W        W42297   1.747  10.437  11.069 -0.0721 -0.1948 -0.2360
23444W        W42298  18.699  15.440   4.372 -0.0778  0.1373  0.2366
23445W        W42299   9.210  12.922  14.720 -0.4112 -0.2328 -0.0310
23446W        W42300  17.970  15.959   3.979 -0.1991 -0.2757 -0.1868
23447W        W42301   4.420   8.690  12.520 -0.1905  0.1554 -0.1124
23448W        W42302  16.054   4.502   0.163 -0.1354  0.2216 -0.1150
23449W        W42303  17.783  15.142  11.107 -0.1870  0.2084  0.2735
23450W        W42304   8.589   9.007  12.345  0.1177 -0.0386  0.3432
23451W        W42305  18.277  16.806   1.845 -0.0260 -0.2378  0.0839
23452W        W42306   5.594   4.905  13.873  0.1510 -0.3311  0.0373
23453W        W42307  11.561  12.180   3.188  0.0342  0.1807  0.1943
23454W        W42308  11.707   2.660  13.846  0.3684  0.1335 -0.0550
23455W        W42309  11.560   3.755   2.503 -0.0840  0.1560 -0.0149
23456W        W42310   0.360   8.718   4.541  0.1583  0.1871 -0.3975
23457W        W42311   3.384   1.777  11.403  0.2473 -0.1130  0.2176
23458W        W42312   5.798  11.746  14.112  0.2012  0.3128  0.0288
23459W        W42313  14.522  14.317   1.613  0.1236  0.0245  0.0279
23460W        W42314   8.138  10.945   3.974 -0.3080  0.0511 -0.1575
23461W        W42315  14.624   5.560   1.124  0.0518 -0.1002  0.1805
23462W        W42316  18.651  16.493   1.774  0.1678 -0.1373 -0.0618
23463W        W42317  10.866   9.160   1.323  0.3044 -0.2639 -0.0399
23464W        W42318   2.649   2.546   2.726  0.0604 -0.0582 -0.3580
23465W        W42319  17.172  16.477  12.522 -0.1247  0.3261  0.1243
23466W        W42320   6.118   3.209   2.716  0.2071  0.1562 -0.0725
23467W        W42321   8.225   7.945   3.396  0.2175  0.0346 -0.0769
23468W        W42322   0.203   4.606  11.550  0.2208  0.1680  0.1861
23469W        W42323   4.392   2.807   2.240  0.1293  0.1480  0.3313
23470W        W42324   0.269   2.760  11.005  0.1180  0.1762  0.1435
23471W        W42325  11.651   9.110   1.851 -0.5400 -0.3094  0.0282
23472W        W42326   4.555   4.108   1.957  0.1271 -0.2098 -0.0112
23473W        W42327  18.247   7.556  10.851 -0.1015 -0.2891 -0.2027
23474W        W42328   6.932   4.050  13.902 -0.1474  0.1920  0.1221
23475W        W42329   6.454   9.903  12.255 -0.1084 -0.0584  0.0070
23476W        W42330   8.908  15.715   0.385  0.2310  0.1532 -0.5344
23477W        W42331   2.961   2.095  13.313  0.0496 -0.0951  0.0053
23478W        W42332  16.384  12.641  11.484  0.0154  0.2422 -0.0756
23479W        W42333   4.247   6.350   2.517  0.1802  0.0115  0.3966
23480W        W42334   7.001  14.179  11.331  0.0897 -0.2956  0.0691
23481W        W42335   4.577  16.978   3.722 -0.0278  0.1529 -0.2347
23482W        W42336  16.648  11.378   0.770  0.1938 -0.1157 -0.1350
23483W        W42337  15.440   1.086  12.097 -0.3693 -0.0073 -0.1054
23484W        W42338   0.027   6.515  12.779  0.0302 -0.1729  0.3930
23485W        W42339   3.217  18.241  11.040 -0.0625  0.2117  0.0899
23486W        W42340   6.155   7.499  11.730 -0.1073  0.1097 -0.0867
23487W        W42341  15.505   1.293  13.130  0.0284  0.0124 -0.1522
23488W        W42342  11.959  13.409   5.660  0.0603  0.0610  0.1853
23489W        W42343  12.872   5.593   0.201  0.0388 -0.2390  0.0276
23490W        W42344  18.469   6.787   3.141 -0.4056  0.2619  0.0125
23491W        W42345   7.815   3.359  13.290  0.0903  0.3902  0.2071
23492W        W42346   2.711   4.373  12.638 -0.0081 -0.2998  0.0685
23493W        W42347  11.387   6.295  10.263  0.1358  0.1547 -0.1202
23494W        W42348   2.729   3.796   2.191 -0.0191 -0.0972 -0.0539
23495W        W42349   7.810  14.456  14.535 -0.3694 -0.1194 -0.0158
23496W        W42350  16.977  18.085  13.610  0.5121  0.2470 -0.0500
23497W        W42351   4.208   0.508  14.726 -0.3145  0.1296  0.2278
23498W        W42352  16.992   0.623   0.194  0.1454  0.2936 -0.0551
23499W        W42353   5.336   4.724  10.921 -0.2659  0.2280  0.1802
23500W        W42354  12.006   1.958   2.366  0.0093  0.1956  0.1995
23501W        W42355   5.336  13.567  11.657  0.1615 -0.1316  0.1521
23502W        W42356   4.195  16.235  10.399 -0.2011  0.1263  0.1555
23503W        W42357   3.272  17.296   2.076 -0.0460 -0.1668 -0.2151
23504W        W42358   8.839   4.939   1.213 -0.2835 -0.0733 -0.0384
23505W        W42359  16.917   0.117  11.819  0.0877 -0.1968  0.1350
23506W        W42360  13.228   3.919  11.034 -0.1253  0.1285 -0.0778
23507W        W42361  12.771   2.374   1.022  0.0128 -0.0427  0.1001
23508W        W42362   1.373  14.407  13.568  0.2190  0.0266 -0.4618
23509W        W42363   3.994  13.552  14.150  0.1633 -0.1407  0.0794
23510W        W42364  14.815   4.882   3.943  0.0645  0.1083  0.1364
23511W        W42365  14.310  11.831   2.602 -0.0185  0.2977  0.0084
23512W        W42366  12.254  12.771   2.723  0.2177 -0.3484  0.0093
23513W        W42367   5.144  10.037   0.886  0.2631 -0.2532 -0.0706
23514W        W42368  15.804   5.858   3.455  0.0339  0.1580  0.0171
23515W        W42369  17.679   7.925   3.175 -0.2023 -0.1342 -0.2613
23516W        W42370   8.946  13.080  13.898 -0.1219  0.1381 -0.0483
23517W        W42371   2.631   6.854  14.442  0.0569 -0.2154  0.1863
23518W        W42372  18.268  18.928   3.107  0.0272 -0.2070  0.0540
23519W        W42373   0.384  17.350   4.037  0.1614  0.0144  0.0204
23520W        W42374   8.837   6.748   0.127 -0.1873 -0.0429  0.0779
23521W        W42375  16.320   8.034   1.517 -0.1723  0.0303  0.0414
23522W        W42376   2.289   4.757  12.787  0.5802  0.1613  0.1346
23523W        W42377   9.861   7.685   5.383  0.1295 -0.3587 -0.2748
23524W        W42378   8.038  18.434  12.800  0.0619 -0.1808  0.1231
23525W        W42379  12.807  11.253   3.704 -0.1148 -0.0787 -0.0313
23526W        W42380  11.780   2.366   3.629 -0.3291  0.2043  0.0740
23527W        W42381   2.837  15.805   1.894 -0.1295 -0.2864 -0.0623
23528W        W42382   5.087   7.189   2.082  0.1632 -0.0006  0.1280
23529W        W42383   4.192   2.643  13.700 -0.0390  0.3759  0.0247
23530W        W42384  19.019  12.119   3.231 -0.4264  0.0618 -0.2055
23531W        W42385  18.683  14.123  12.845 -0.1192  0.0918 -0.1225
23532W        W42386  11.471   7.776  14.041  0.4555 -0.2261 -0.3038
23533W        W42387  11.826   3.585   2.130 -0.0247 -0.2531  0.2205
23534W        W42388  18.399   6.311   2.961 -0.2550 -0.2436 -0.3727
23535W        W42389  15.986  13.767  12.873 -0.2742  0.4074 -0.4333
23536W        W42390  13.790  18.886  13.201 -0.0984  0.0601  0.2913
23537W        W42391   9.619  10.516  12.215 -0.2028 -0.4925  0.4387
23538W        W42392   5.968  11.126   5.272  0.1028  0.2530  0.1122
23539W        W42393  10.541   4.620  13.892  0.2313 -0.2544  0.0421
23540W        W42394  18.246   7.287   2.997  0.1161 -0.5239 -0.2553
23541W        W42395  14.143   5.727   0.948  0.0973  0.1041  0.2735
23542W        W42396   2.271   1.401   2.203 -0.1198 -0.0015 -0.0957
23543W        W42397  13.941  13.851  11.000  0.0329  0.1073 -0.3971
23544W        W42398  15.747   7.895  14.089  0.0123 -0.2130 -0.1662
23545W        W42399  11.261  15.634   0.521  0.1772 -0.2330 -0.1505
23546W        W42400  16.911  11.326  11.154  0.2877  0.2453 -0.1891
23547W        W42401   5.676   2.542   1.213 -0.2460 -0.2695  0.0885
23548W        W42402   5.144  11.959  12.669 -0.0783  0.0225  0.3730
23549W        W42403   8.324  10.767  13.642 -0.0552 -0.0363 -0.1406
23550W        W42404   7.438  18.928   2.663  0.0969  0.1411 -0.0666
23551W        W42405  14.821   4.707  13.667 -0.2838 -0.1711  0.3710
23552W        W42406  16.529  15.675  13.351 -0.0114 -0.1127  0.0324
23553W        W42407  13.008  10.448  13.187 -0.0584  0.3079 -0.0245
23554W        W42408   5.287   4.134   4.090  0.1751 -0.1164 -0.1649
23555W        W42409   2.548  17.648  11.850 -0.0074 -0.2878 -0.1537
23556W        W42410  11.672   3.217  11.640  0.1360  0.0483 -0.3259
23557W        W42411  18.751   8.334   3.493  0.0140 -0.0267 -0.0853
23558W        W42412  11.106   8.163  10.874  0.0925 -0.0899 -0.1816
23559W        W42413  13.133   6.309  11.323  0.0342 -0.0673 -0.2182
23560W        W42414   0.178   7.421  12.533  0.2629  0.0453 -0.3865
23561W        W42415   7.915   5.593   3.342 -0.0663  0.0452  0.0189
23562W        W42416  16.801  17.260  12.161  0.2447 -0.2417  0.2292
23563W        W42417   5.925  16.956  12.527  0.0082  0.0781  0.0406
23564W        W42418  11.080  17.750  10.504 -0.0875 -0.2430 -0.4279
23565W        W42419   9.366   9.391   1.644  0.0307 -0.0023  0.2298
23566W        W42420  14.850  15.514   1.032  0.3265 -0.1588  0.0935
23567W        W42421   5.315  13.475   2.370 -0.2068  0.1390  0.0552
23568W        W42422   9.938   3.441   0.529  0.0730 -0.1357 -0.0217
23569W        W42423   3.610  11.988   5.130 -0.1491  0.1299  0.3651
23570W        W42424  10.166  18.404  11.584  0.3421  0.0743 -0.0818
23571W        W42425   3.616   2.232  10.993  0.1466  0.1246 -0.2233
23572W        W42426   6.226  19.088  10.331  0.0669  0.0006  0.2235
23573W        W42427  16.328   5.400  14.341  0.1599  0.3331 -0.0404
23574W        W42428  18.772   3.482   1.895 -0.2285 -0.1595 -0.5620
23575W        W42429  13.360  18.661   2.262 -0.0832 -0.0813  0.0126
23576W        W42430  16.640  16.696  13.720 -0.1463  0.2423 -0.1847
23577W        W42431  14.602   9.966   4.395 -0.1154 -0.2004  0.1190
23578W        W42432   8.231   2.774  12.100  0.1455  0.1643  0.5338
23579W        W42433  10.550   6.659  12.796  0.0071  0.0706 -0.2665
23580W        W42434  13.526  15.990   1.661 -0.1956  0.0205  0.0489
23581W        W42435   0.859   7.532   3.703  0.1566 -0.2620 -0.0675
23582W        W42436  18.315   2.960   3.677  0.0327  0.1471  0.3630
23583W        W42437  16.655  17.589  14.001  0.2353 -0.0031 -0.0704
23584W        W42438   0.587  15.780   4.109 -0.0759  0.2322  0.1935
23585W        W42439  10.769   4.898  14.254  0.4027  0.1840  0.4343
23586W        W42440   9.223  11.566  10.276 -0.0078  0.1141 -0.3077
23587W        W42441   9.734  10.706  12.781  0.2508  0.2529  0.1206
23588W        W42442   0.405   8.333   1.465 -0.0184 -0.0707  0.2388
23589W        W42443  17.594  12.312  13.730 -0.0400  0.2630 -0.1116
23590W        W42444   3.595   6.483  11.005  0.0422 -0.0729  0.1798
23591W        W42445   3.207   5.882  11.467  0.2265 -0.2781 -0.0167
23592W        W42446   7.667  10.733   0.582  0.0756 -0.1660  0.1163
23593W        W42447   7.190   9.898  12.971  0.0824 -0.1352  0.2723
23594W        W42448   6.871   0.609  12.351  0.2494 -0.0930  0.1454
23595W        W42449   8.167  16.581  13.784  0.0577  0.2135  0.3577
23596W        W42450   6.253  18.096  12.184  0.0748 -0.0231 -0.1833
23597W        W42451  14.817  18.739   3.358 -0.2434  0.1082 -0.0193
23598W        W42452   8.026   5.704  11.105 -0.3047  0.1914 -0.1885
23599W        W42453  15.761   0.246  14.599  0.3541 -0.0135 -0.0911
23600W        W42454   7.355  14.423  14.230 -0.3740  0.0960 -0.0157
23601W        W42455   2.582  16.755   1.894 -0.2912 -0.1756 -0.1616
23602W        W42456   3.874  10.683   3.693 -0.3058 -0.0919  0.1984
23603W        W42457  18.291   0.526   0.811 -0.0326 -0.0607 -0.2488
23604W        W42458   8.296   0.352  14.680  0.0428  0.2538  0.0335
23605W        W42459  11.474  11.406   3.982  0.3295 -0.0802  0.1491
23606W        W42460  17.823  18.841  10.890 -0.1883 -0.0580 -0.2547
23607W        W42461   3.197  17.543  13.001  0.0848 -0.1160  0.1005
23608W        W42462  17.556  10.485   1.364 -0.1167  0.1685  0.2991
23609W        W42463   0.064  12.041   1.404 -0.3456  0.0322 -0.2603
23610W        W42464   9.196   7.025  13.494  0.0857 -0.0424  0.0576
23611W        W42465  17.012   8.946   2.075  0.1752 -0.1468  0.2014
23612W        W42466  17.720  13.910  11.967  0.0775  0.0316  0.0348
23613W        W42467   2.850   3.362  12.510 -0.1651 -0.1140 -0.0551
23614W        W42468   6.095   6.408  13.674 -0.2049 -0.2394  0.1627
23615W        W42469  10.285   4.887  14.209 -0.0978  0.1592 -0.0994
23616W        W42470  11.731  11.595  13.134  0.0480 -0.3595  0.2742
23617W        W42471   9.406   7.504   0.979  0.0347  0.0523 -0.1833
23618W        W42472  15.120   5.895  10.925  0.2471  0.0348  0.3881
23619W        W42473   6.993   2.715   2.528  0.1881 -0.1798  0.0471
23620W        W42474  10.950  17.673   1.583  0.1555 -0.1044  0.0782
23621W        W42475   6.586   7.836   0.999 -0.1669  0.0316 -0.2210
23622W        W42476   0.043  14.955   2.414  0.0371  0.3118  0.0102
23623W        W42477   8.529  18.991   3.880  0.5068  0.3663  0.2238
23624W        W42478  16.843   0.590  11.992 -0.2867  0.1456  0.1257
23625W        W42479  10.787  13.095   3.053 -0.1901 -0.0999  0.2113
23626W        W42480   1.481   5.653  14.099  0.4600  0.2998  0.0451
23627W        W42481  13.897   7.482  13.652  0.0896 -0.1008  0.0496
23628W        W42482  11.313   9.731   4.182 -0.0921  0.0679  0.3062
23629W        W42483   7.595   1.984   0.078  0.0159  0.0282  0.0300
23630W        W42484   3.126  16.331   3.080 -0.4544  0.1562 -0.0285
23631W        W42485  13.808  18.826   2.029 -0.2308 -0.1974 -0.2467
23632W        W42486  15.204   8.418  12.871  0.0992  0.0466 -0.1279
23633W        W42487   9.708   2.903   4.120  0.3422 -0.1780  0.0592
23634W        W42488   3.241   5.979  14.134  0.0759 -0.0856  0.0155
23635W        W42489  14.284   0.472  12.324  0.1499  0.0963 -0.2649
23636W        W42490   4.942   6.722  12.659 -0.3004  0.3960  0.0595
23637W        W42491   7.955  17.879   0.437  0.3168 -0.2845  0.3190
23638W        W42492   6.555  12.855  11.198 -0.0295  0.0366  0.2027
23639W        W42493   1.275  16.255   3.749  0.1888  0.0027  0.1291
23640W        W42494  13.592  19.014  10.910  0.0176 -0.0622 -0.2249
23641W        W42495   8.298   8.736  12.708 -0.0735  0.0533  0.1169
23642W        W42496  10.514   5.060   2.208 -0.1407 -0.0521  0.2585
23643W        W42497   9.399   9.996   0.953 -0.0345  0.0223 -0.1851
23644W        W42498   4.327   6.433  14.553 -0.0432 -0.1248  0.0707
23645W        W42499  12.753   5.846   3.525  0.0113  0.0688  0.0629
23646W        W42500  16.768  10.097  13.433 -0.0709  0.1044 -0.1894
23647W        W42501  16.690   1.621   1.603 -0.2883  0.3370 -0.3102
23648W        W42502  15.088   2.846  13.593  0.2163  0.0333 -0.0055
23649W        W42503   6.574  10.739  12.193  0.1917 -0.2838 -0.2937
23650W        W42504   3.883  18.195  12.232  0.1401  0.1885  0.1740
23651W        W42505   3.674   8.956   0.818 -0.2615 -0.4807 -0.2008
23652W        W42506   1.289  13.300   3.289 -0.2717 -0.1674 -0.0509
23653W        W42507   1.059  13.247   0.453 -0.2366  0.0112  0.1562
23654W        W42508   1.610  12.814   3.404  0.1043 -0.0167  0.2499
23655W        W42509   2.610  12.761  11.766 -0.2166  0.0182  0.1635
23656W        W42510  10.044  10.560   1.965 -0.0972  0.3822  0.1101
23657W        W42511  18.791  11.679   1.533  0.2947 -0.0185 -0.0243
23658W        W42512  12.751   6.260   2.165 -0.2875  0.2835  0.0862
23659W        W42513  15.323   5.172  10.435 -0.1464 -0.2241  0.0608
23660W        W42514  11.159  16.101   0.745 -0.0345 -0.2384 -0.1253
23661W        W42515  10.314  17.270   0.870 -0.1854  0.0274  0.2620
23662W        W42516   0.101   1.589  12.630  0.2873  0.2390  0.0403
23663W        W42517   2.085   7.559   2.133 -0.1139 -0.1626  0.1028
23664W        W42518  14.211  18.904   0.677 -0.0263  0.2205 -0.0479
23665W        W42519  18.578  13.234  11.420 -0.0278  0.0775 -0.4518
23666W        W42520  10.932  12.502   0.875 -0.0720  0.0664  0.0382
23667W        W42521  15.087   7.269  11.967 -0.3381 -0.0209 -0.3076
23668W        W42522   0.061  17.739   0.118 -0.0736  0.2671  0.2466
23669W        W42523   5.592   9.091   0.865  0.2835 -0.0924  0.0767
23670W        W42524   7.345   4.483   1.810  0.5990 -0.1218  0.4097
23671W        W42525   5.907  10.755   0.897  0.1451  0.0685  0.2756
23672W        W42526   5.324  11.177   3.864 -0.0121 -0.1400  0.2167
23673W        W42527  17.573   5.544   1.191 -0.0611 -0.3402  0.1861
23674W        W42528  11.367  11.358  14.297 -0.0705  0.1170 -0.0578
23675W        W42529   3.089   7.117  13.294  0.0498 -0.2134  0.1150
23676W        W42530   9.306  11.673  14.790  0.1424  0.1837  0.2026
23677W        W42531   0.599   2.240  11.094 -0.2901 -0.0110 -0.3207
23678W        W42532  13.039   8.246  13.536  0.3857 -0.2589  0.0982
23679W        W42533   6.122  11.706  12.820  0.0269 -0.0712  0.0275
23680W        W42534   7.680   6.276   1.060  0.2301 -0.0663 -0.1267
23681W        W42535  14.326   3.303  11.760 -0.2434  0.2335  0.0407
23682W        W42536   1.759   1.875  12.801  0.3152  0.1274 -0.0379
23683W        W42537   3.466   3.960   1.047  0.0119 -0.2269  0.0344
23684W        W42538  13.056   8.421  12.221 -0.1173 -0.0535 -0.1721
23685W        W42539   8.979  16.343   2.243  0.0227 -0.2359  0.3371
23686W        W42540  15.253  10.718  13.661  0.0677  0.0957 -0.1463
23687W        W42541  11.009   4.921   0.663 -0.2025 -0.1910 -0.0798
23688W        W42542   6.734   6.853   2.463 -0.0902  0.0820  0.2471
23689W        W42543   1.047   0.553  13.549  0.0489  0.0711 -0.2529
23690W        W42544   7.981  13.998  14.637 -0.0541 -0.0800  0.2134
23691W        W42545   6.685  10.500   3.735  0.0047  0.1850  0.1172
23692W        W42546  18.048   9.044  13.680  0.3153  0.0058  0.2291
23693W        W42547   8.279  15.916   4.933 -0.0659  0.0698  0.0488
23694W        W42548   3.513  13.753  12.187 -0.0632 -0.0825  0.0640
23695W        W42549   4.472   8.108  14.033 -0.3464 -0.2974 -0.3186
23696W        W42550   7.429  16.289   4.340 -0.1187  0.0125  0.2256
23697W        W42551   1.007  19.090   4.485 -0.2882 -0.3894  0.0530
23698W        W42552   6.179  15.599  13.817  0.6202 -0.2442 -0.0226
23699W        W42553   8.329  15.903   4.065  0.1636 -0.1318  0.2745
23700W        W42554  14.405   8.805  13.683 -0.2507  0.1365 -0.0179
23701W        W42555   1.943   6.275  13.559 -0.0772 -0.1438 -0.1458
23702W        W42556   5.143  13.881  10.859  0.3372 -0.0687  0.2972
23703W        W42557  15.562  18.959  14.406  0.1841 -0.2656  0.0740
23704W        W42558   4.592  16.473   4.347 -0.0251 -0.0371  0.0108
23705W        W42559   6.698  10.992  10.689  0.3675  0.1854  0.3029
23706W        W42560   3.468   3.897   1.929  0.2976  0.0350 -0.0148
23707W        W42561  14.403  13.268  13.094 -0.0158  0.1338 -0.0036
23708W        W42562   2.954   2.690  11.411 -0.0599 -0.0810 -0.2308
23709W        W42563  12.004  12.487   5.221 -0.3347 -0.4303  0.2084
23710W        W42564   4.966   7.978  12.212 -0.2885 -0.2254 -0.1044
23711W        W42565  18.139   0.880  10.280 -0.0117 -0.0580 -0.0139
23712W        W42566   8.812  12.256  12.300  0.3345  0.1008  0.1919
23713W        W42567  12.667  10.993  10.046 -0.0037 -0.2823  0.0572
23714W        W42568  16.022   5.637  12.698 -0.1399  0.1274  0.0378
23715W        W42569   4.837  12.545  12.001 -0.3318  0.0052 -0.0291
23716W        W42570  18.716   7.837  12.255 -0.0233  0.0747  0.0959
23717W        W42571  12.559   9.338  12.505  0.0468 -0.5946  0.1152
23718W        W42572   7.017   8.853  13.812 -0.0792  0.1493  0.1472
23719W        W42573   7.990   0.510   9.480  0.0846 -0.1499  0.0598
23720W        W42574  13.052  12.796  14.035  0.2404 -0.0237  0.0213
23721W        W42575  15.205   5.843   1.524  0.1323  0.0508 -0.0361
23722W        W42576  14.137   7.277   2.952  0.1907  0.0946  0.0068
23723W        W42577  14.038   4.347  11.123 -0.0106 -0.0298  0.0393
23724W        W42578  18.678   9.737  10.823  0.1348  0.2303 -0.3017
23725W        W42579  17.188   5.343   3.011 -0.2201 -0.1634 -0.4520
23726W        W42580   3.270   5.235  11.671  0.1207 -0.1121  0.2451
23727W        W42581   1.547  12.582  11.770  0.1324 -0.0166  0.0236
23728W        W42582   6.075   9.308  12.655  0.1325  0.1137  0.0566
23729W        W42583  10.525   7.970   2.603 -0.1898  0.3390 -0.0836
23730W        W42584  16.244  13.363  13.937 -0.1489  0.0519 -0.0230
23731W        W42585   3.371  15.692   0.918  0.2209  0.1231  0.0660
23732W        W42586   4.446   0.825  11.703  0.1635  0.1085  0.0111
23733W        W42587  16.163   2.146  12.087 -0.2786  0.1345  0.1453
23734W        W42588  18.750   2.288  13.392  0.0156 -0.2529 -0.2048
23735W        W42589  12.620  14.629  12.284 -0.0146  0.0906 -0.3019
23736W        W42590   3.464  12.941   2.227 -0.3053  0.1974  0.0285
23737W        W42591   8.496   1.239   4.250  0.0480 -0.2076  0.2593
23738W        W42592   5.257  12.238   2.636  0.0853  0.0562  0.0835
23739W        W42593  10.092  12.871   1.102  0.0208 -0.0490 -0.0140
23740W        W42594  11.510   8.269   4.193  0.2081  0.1314 -0.1110
23741W        W42595  13.796  17.831   2.929 -0.2016 -0.3361 -0.1807
23742W        W42596  18.979  18.384   1.237  0.1840  0.2497  0.2282
23743W        W42597  15.984   4.129   4.204  0.0871  0.4318 -0.1563
23744W        W42598  18.045  13.582   3.578 -0.1091  0.0460 -0.2509
23745W        W42599   0.320  14.813   4.257 -0.0176  0.1126 -0.0749
23746W        W42600   7.982   5.804  12.246 -0.0621 -0.1709 -0.0700
23747W        W42601  17.596  18.940  13.772  0.0923 -0.0811 -0.0742
23748W        W42602   4.183  14.972  11.378  0.0652 -0.0522  0.0982
23749W        W42603   0.638   0.409   1.992  0.2283  0.1645 -0.0314
23750W        W42604   9.540   6.535  13.689 -0.2914  0.1499  0.1600
23751W        W42605  17.567  11.518  14.051  0.2093 -0.0637  0.0296
23752W        W42606   2.176  11.924   0.488  0.2223 -0.1928  0.0033
23753W        W42607   5.764  12.405   2.768  0.4219  0.1936 -0.1214
23754W        W42608  10.527   9.628   3.623  0.1132 -0.1696 -0.0265
23755W        W42609  18.726   7.633   0.907  0.1021  0.0475 -0.2202
23756W        W42610   4.858  16.015  12.488  0.3786 -0.0503  0.1546
23757W        W42611   6.365  15.442   1.524 -0.2308 -0.1992 -0.3345
23758W        W42612   7.690  15.373  12.805 -0.0481  0.0721 -0.0814
23759W        W42613   2.491   3.325  12.849  0.1274  0.3498  0.3392
23760W        W42614  12.854   8.019   1.165  0.0699  0.1753 -0.1264
23761W        W42615   6.864  12.143   0.033  0.0858  0.0743 -0.1503
23762W        W42616   6.467  11.944   2.047  0.1303  0.1170  0.2803
23763W        W42617  14.154  12.955   3.620 -0.0247  0.2247  0.2086
23764W        W42618   9.413   9.267  12.328  0.0563  0.0960  0.2420
23765W        W42619   7.572  11.262   0.747 -0.1158  0.2958 -0.0047
23766W        W42620   8.653  10.156   1.951  0.0185 -0.3442  0.1980
23767W        W42621   3.032   5.693  11.899  0.2115  0.0964  0.0114
23768W        W42622   3.540   5.278  12.155  0.0977 -0.0451  0.0326
23769W        W42623  11.116  10.007  12.108 -0.1103  0.1112 -0.1352
23770W        W42624   0.280  10.460   1.416  0.1532 -0.0110 -0.2494
23771W        W42625   0.331  10.678  12.127 -0.2481 -0.4054  0.1371
23772W        W42626   0.384  10.103   3.225 -0.1844 -0.0202  0.0584
23773W        W42627   1.364   8.429   1.197 -0.0353  0.0933  0.0039
23774W        W42628  14.594   8.095   3.489  0.2060 -0.2589 -0.0426
23775W        W42629   3.238  13.943   1.325  0.2181 -0.1889  0.2295
23776W        W42630   4.553  16.071   2.523  0.1126  0.2891 -0.0834
23777W        W42631  13.691   9.679  12.588  0.0957  0.1643  0.0210
23778W        W42632   7.981  12.283  11.596 -0.0865 -0.1990  0.0081
23779W        W42633  13.548   8.838   1.779  0.1097  0.1501  0.3721
23780W        W42634   8.573   5.038  11.586 -0.2241  0.0690 -0.4560
23781W        W42635   2.681   1.330  14.574 -0.0862  0.0885 -0.0219
23782W        W42636   2.126   5.758   2.859 -0.2959  0.0472  0.0194
23783W        W42637   8.310   4.000  12.686 -0.2445 -0.1550  0.1628
23784W        W42638  18.712   2.915  13.413  0.0794  0.2116  0.1045
23785W        W42639  14.546  11.373   2.636  0.1557 -0.1393 -0.3119
23786W        W42640  13.040  11.169   2.916  0.0093  0.1681  0.0981
23787W        W42641   9.785   9.734   1.136  0.2060 -0.0252 -0.1407
23788W        W42642   4.211   9.148  11.637  0.2547  0.1023  0.1057
23789W        W42643  17.046  18.086   3.685 -0.2164 -0.2699 -0.3767
23790W        W42644  18.690   3.447  12.704  0.0222 -0.2912 -0.0627
23791W        W42645   9.847   2.931  11.993 -0.1202 -0.0518  0.1975
23792W        W42646   1.212   0.566   0.768  0.2740 -0.0304 -0.4126
23793W        W42647   8.747   6.023  12.646 -0.2180  0.0904  0.0011
23794W        W42648   6.127   1.343  11.126 -0.0009 -0.1902 -0.0322
23795W        W42649  15.703  16.505   1.746 -0.0669  0.0221 -0.0052
23796W        W42650   6.577  14.799  14.788 -0.0581  0.1205  0.1233
23797W        W42651  17.749   7.895  12.211 -0.0945 -0.2008  0.1221
23798W        W42652   7.686   3.200   3.900 -0.1022 -0.2678 -0.1222
23799W        W42653   1.631  14.297   1.560 -0.1225  0.0004  0.2562
23800W        W42654  14.404  18.891  10.900  0.0330 -0.4222  0.0232
23801W        W42655   9.905   8.115  12.783  0.0081 -0.0509 -0.2564
23802W        W42656  19.095   6.466   5.312  0.0623 -0.0895 -0.1760
23803W        W42657  13.299  12.170   3.823 -0.3982 -0.2007  0.0097
23804W        W42658   4.369   3.858   2.362  0.1170  0.0036  0.3403
23805W        W42659  18.487  11.609   2.136  0.0632 -0.3793 -0.2575
23806W        W42660   4.779   8.462  10.860  0.0315  0.0562  0.1078
23807W        W42661  12.500   9.704   2.463 -0.1321 -0.2679  0.2248
23808W        W42662  13.751   0.659  12.052 -0.0638 -0.0212 -0.0989
23809W        W42663   0.615   3.840  11.884  0.1928 -0.2054  0.1751
23810W        W42664  12.873  17.716   1.748 -0.1044 -0.3458 -0.1091
23811W        W42665   6.646  15.692   9.505 -0.0675 -0.0955  0.0744
23812W        W42666   7.594  17.087   3.141 -0.1316 -0.0165 -0.2429
23813W        W42667   8.321  15.592  14.021  0.0594  0.0447 -0.1659
23814W        W42668   1.284   4.335   4.046 -0.1542 -0.0285  0.0865
23815W        W42669   4.664   0.292  12.635  0.2153 -0.2182 -0.3953
23816W        W42670   5.079   0.541   1.885 -0.1724  0.2079  0.2101
23817W        W42671  16.651  18.189  14.458  0.2169 -0.3124  0.2510
23818W        W42672  14.351   7.046  11.305 -0.2862  0.0665  0.3188
23819W        W42673  10.715  14.148   1.307  0.0765 -0.0630  0.1530
23820W        W42674  18.315   1.079   4.148 -0.1903 -0.0517  0.0014
23821W        W42675   6.982  18.775  11.061  0.1258 -0.0539 -0.3850
23822W        W42676   5.738  10.454   2.632  0.0578  0.0549  0.1245
23823W        W42677   9.334  11.017  10.560 -0.0429 -0.2175 -0.1455
23824W        W42678  10.635   3.786   3.235 -0.3930  0.1687  0.1961
23825W        W42679  12.290  14.204  12.943  0.0652  0.0482 -0.0580
23826W        W42680  14.768   3.357   2.205 -0.1763 -0.0723 -0.1510
23827W        W42681  10.961   6.346  11.582  0.2241 -0.1007 -0.2411
23828W        W42682  18.469   5.409   2.277  0.1080  0.3035  0.1328
23829W        W42683   6.556   1.449  12.481  0.1542  0.1876 -0.0639
23830W        W42684  12.215   7.589   1.877  0.2588 -0.1854 -0.0865
23831W        W42685  18.298  16.121   2.689  0.2080 -0.1130 -0.1200
23832W        W42686   7.221   4.833  12.327  0.1353  0.0549 -0.1590
23833W        W42687   1.646   2.432  13.502  0.1549 -0.0090  0.0618
23834W        W42688   3.781  13.018   9.933 -0.3167 -0.0389  0.0522
23835W        W42689  13.655  14.184  10.587 -0.2636 -0.0350 -0.0100
23836W        W42690   3.610  14.978   2.173  0.0701 -0.2137 -0.4022
23837W        W42691   8.665   0.991  14.454  0.1799  0.0850  0.1018
23838W        W42692   0.831   2.746  13.187  0.0122  0.4597  0.2379
23839W        W42693   7.038  14.243  12.564 -0.1650  0.2141 -0.2376
23840W        W42694  14.938   2.357   4.406  0.3081  0.2183 -0.0769
23841W        W42695   6.327   1.421   5.085  0.2939 -0.0811 -0.1244
23842W        W42696   4.805   0.668   0.486  0.0902  0.2385 -0.0814
23843W        W42697  11.320   9.574  11.800  0.0295  0.0879  0.0204
23844W        W42698  11.626   0.919   3.184  0.1591 -0.1637 -0.1955
23845W        W42699  13.881   3.471  13.530  0.2745  0.0995 -0.1179
23846W        W42700  16.653   4.706  13.352 -0.3157 -0.0218 -0.1740
23847W        W42701   7.519   5.496   3.630  0.0930  0.2141 -0.1045
23848W        W42702   8.552  12.197  10.764  0.0921  0.2207 -0.1011
23849W        W42703   6.233  18.246  13.568  0.1527 -0.1667 -0.4059
23850W        W42704   1.655  14.875  12.285  0.0525  0.3202 -0.3373
23851W        W42705   7.497   7.253  13.942  0.0574 -0.2128 -0.2052
23852W        W42706  11.027   3.824   0.971  0.0742 -0.1914  0.0803
23853W        W42707   6.093   5.718   2.639  0.3373 -0.4025 -0.0437
23854W        W42708   2.818  16.187  12.539  0.3031  0.1199  0.1434
23855W        W42709   1.714  13.859   3.589  0.0780  0.0258 -0.1724
23856W        W42710  18.323   8.304   4.476  0.0504 -0.0060  0.1658
23857W        W42711  12.349  15.346  14.347  0.1219 -0.0940  0.0075
23858W        W42712  18.878   3.775  11.452  0.0413  0.1934  0.1285
23859W        W42713  18.021  17.307  13.634  0.2974  0.2795  0.0825
23860W        W42714  11.099   1.370  10.631 -0.0107 -0.0275  0.2511
23861W        W42715  15.442   8.035  13.068  0.0387 -0.0266  0.0720
23862W        W42716  12.448  16.435  13.477 -0.0560  0.0424 -0.5944
23863W        W42717  10.873   7.364   2.546  0.0376  0.0950 -0.4402
23864W        W42718   3.144   5.682  13.240  0.2804 -0.0741 -0.1150
23865W        W42719   6.310   5.840  12.019 -0.1781  0.2904  0.1437
23866W        W42720   9.035  10.268   0.213  0.0462 -0.3395  0.0986
23867W        W42721   2.959  17.625   4.979  0.1406  0.1447  0.3619
23868W        W42722   9.787   1.249   9.594  0.1156  0.3014  0.2824
23869W        W42723   5.567   4.966  11.317 -0.0523 -0.2177  0.2263
23870W        W42724  12.819   8.418  14.464  0.0258 -0.3561 -0.0299
23871W        W42725  13.582   9.697  14.767  0.1113 -0.2531  0.1422
23872W        W42726  18.589   4.511   4.109 -0.2096  0.4086 -0.1111
23873W        W42727  12.028  17.269  13.414 -0.2055  0.4080 -0.0205
23874W        W42728   0.614   3.094  11.894 -0.0373  0.2864 -0.2375
23875W        W42729   1.476  14.505   0.396  0.0365  0.0638  0.1028
23876W        W42730  17.233   7.241  10.756 -0.1999 -0.0549  0.1035
23877W        W42731  10.150   0.177   3.115  0.1621 -0.2332  0.2258
23878W        W42732   2.826   7.790   0.324 -0.0262  0.1873 -0.1346
23879W        W42733   1.401   6.040   9.688 -0.0938  0.0901 -0.2363
23880W        W42734   5.370   1.367  14.220  0.1416 -0.0795 -0.1996
23881W        W42735  14.949   1.541   9.939 -0.1062 -0.1888 -0.2814
23882W        W42736   8.953   3.630  14.585  0.0599  0.4391  0.2399
23883W        W42737  10.731   7.252  13.529  0.0312  0.0083  0.4901
23884W        W42738   7.249  11.798   3.278  0.2973  0.2478  0.1946
23885W        W42739  13.704   1.368   4.120  0.1781 -0.0685  0.0810
23886W        W42740   8.587   0.383   2.228 -0.0821  0.0318  0.0037
23887W        W42741  16.941  12.806  12.870 -0.0464  0.1980  0.1571
23888W        W42742   8.327  11.097   2.892  0.4000  0.1940 -0.1290
23889W        W42743  17.503   0.654  13.856  0.1699  0.0344 -0.0248
23890W        W42744  19.039  11.478   2.648 -0.0687  0.0018  0.4656
23891W        W42745   9.637  19.033   9.225  0.2455 -0.0025 -0.1890
23892W        W42746   5.464   5.472  14.637  0.3191 -0.0576 -0.0584
23893W        W42747   8.570   9.852  12.772  0.1483 -0.1720  0.0708
23894W        W42748   6.159  12.485   1.926 -0.1539  0.1012 -0.0483
23895W        W42749  10.334   5.274   3.206  0.0523  0.3244  0.1513
23896W        W42750  18.028   4.540  12.940 -0.2343 -0.1081 -0.1325
23897W        W42751  16.755  14.698  13.065 -0.1415 -0.1055  0.2850
23898W        W42752  10.397  14.814  10.884 -0.1163 -0.1153 -0.1961
23899W        W42753  10.224  17.275   2.729  0.1406 -0.2011  0.1996
23900W        W42754  18.514   9.883   5.314  0.2321 -0.1325  0.1516
23901W        W42755  12.292   1.427   4.296 -0.4200  0.1175 -0.0600
23902W        W42756  11.639   6.999   2.362 -0.0982  0.0121 -0.0246
23903W        W42757  11.831  18.426   1.025 -0.0787 -0.2523  0.0899
23904W        W42758   7.335   6.102   1.378  0.0274  0.0081  0.2636
23905W        W42759   5.154   8.347  12.991  0.3213  0.1061  0.0520
23906W        W42760  15.664   1.905  11.687  0.3183  0.1636  0.0018
23907W        W42761   5.426  17.939   4.817 -0.0117  0.0432 -0.0243
23908W        W42762   7.581   6.791  14.240  0.0463  0.1150  0.0142
23909W        W42763  15.112  11.475   0.053  0.0014  0.0732  0.4062
23910W        W42764   2.811  13.873  11.099  0.1672 -0.0526 -0.2343
23911W        W42765   6.096   5.306   1.407 -0.0191 -0.3638 -0.0372
23912W        W42766  15.915   7.786   3.422 -0.0364 -0.1487 -0.1902
23913W        W42767   3.473   7.408  11.303  0.1948 -0.2470  0.4196
23914W        W42768   2.615   9.327   2.424  0.0771 -0.3996 -0.0376
23915W        W42769   9.819   6.264   4.184 -0.1281  0.0096  0.1545
23916W        W42770   6.443   5.437   2.386  0.3289 -0.1696 -0.2219
23917W        W42771   0.738  15.217  12.223  0.2620 -0.0344  0.2092
23918W        W42772   4.897   0.995  11.789 -0.1348  0.0125 -0.0680
23919W        W42773   7.081  14.416   4.039 -0.0370  0.1551  0.0008
23920W        W42774  12.404   7.275  13.715 -0.0284 -0.2282 -0.0173
23921W        W42775   8.495  16.262  11.945 -0.2089 -0.0758 -0.0557
23922W        W42776  17.777  18.442  13.398 -0.1685 -0.5046  0.0394
23923W        W42777   0.024   5.377  11.261 -0.2032 -0.1606  0.0527
23924W        W42778   0.314   3.869  12.783  0.2268 -0.1289  0.2218
23925W        W42779   9.202   5.897  12.515 -0.0734  0.2612  0.0012
23926W        W42780   0.522  18.030   9.184  0.1931 -0.0222 -0.1113
23927W        W42781   1.702  16.758  11.244  0.1373 -0.0453  0.4001
23928W        W42782   6.495  17.063  12.533  0.1856 -0.0924  0.0753
23929W        W42783   9.030   0.926   3.899 -0.0589 -0.1857 -0.0605
23930W        W42784   0.371   9.228   1.193  0.2970 -0.0120  0.1167
23931W        W42785  10.791  14.321   9.836 -0.1826  0.1145  0.0342
23932W        W42786  10.918  15.054  10.504  0.3764 -0.1321 -0.1002
23933W        W42787  12.682  18.054  13.484 -0.2377  0.3826  0.2381
23934W        W42788   6.322   8.780   2.169  0.0165  0.0068 -0.0190
23935W        W42789  11.081  17.893  12.457 -0.1629 -0.0850 -0.1330
23936W        W42790   6.734  10.257   1.148  0.2293  0.0660  0.2878
23937W        W42791   8.147  12.448  14.743 -0.3270  0.0657  0.3921
23938W        W42792  11.552  18.544  10.939  0.1719  0.3316  0.0493
23939W        W42793  15.524  18.725   2.341 -0.0717  0.0267  0.1636
23940W        W42794  12.021  13.882   0.915  0.0086 -0.0698 -0.2418
23941W        W42795  16.296  15.494   4.808  0.0852  0.0849 -0.0378
23942W        W42796  16.209  13.314  12.404 -0.1330 -0.2214 -0.0920
23943W        W42797   6.954   2.795   0.372 -0.1415  0.0014 -0.1571
23944W        W42798   8.319  19.045   2.071  0.0013 -0.2913  0.0019
23945W        W42799  11.301  13.325   2.947 -0.1927 -0.0157  0.0273
23946W        W42800  18.788  15.763  12.557  0.4492  0.2392 -0.1077
23947W        W42801  11.266  16.690  10.272 -0.0763  0.0499  0.0863
23948W        W42802   1.992  18.043  11.860  0.0249  0.0335  0.0470
23949W        W42803  15.928  18.404   0.794  0.0948  0.0670 -0.1102
23950W        W42804   1.865   3.427   3.162  0.1369 -0.0745 -0.2497
23951W        W42805  16.872  12.903   4.366  0.3616  0.4390 -0.2361
23952W        W42806   8.048  14.545   3.069 -0.2173 -0.1818  0.0221
23953W        W42807   8.117   1.274  14.331  0.2060 -0.2039 -0.1406
23954W        W42808  11.536   6.802  12.815  0.0406 -0.0317 -0.1510
23955W        W42809  16.492   7.406   3.445 -0.0214 -0.2495 -0.1377
23956W        W42810  12.176  10.588  10.621  0.2266 -0.1557 -0.0933
23957W        W42811   4.475   0.711   2.885 -0.1282 -0.0636  0.4858
23958W        W42812  13.436  18.841   3.916 -0.0264 -0.0600 -0.1964
23959W        W42813  13.519  15.233   2.509 -0.1028  0.2476 -0.4560
23960W        W42814   9.853   0.521   0.328 -0.1582  0.2604  0.0226
23961W        W42815   0.571  18.162   9.649  0.3169 -0.2847  0.1356
23962W        W42816   3.816   9.065   3.440 -0.0569 -0.1470  0.0103
23963W        W42817   5.437  16.957   0.851 -0.0696 -0.1922  0.0797
23964W        W42818  18.983  10.382   2.315 -0.0344  0.2375 -0.3770
23965W        W42819   2.474  18.878   0.348  0.1431 -0.1071  0.0928
23966W        W42820   7.570   6.324   2.712 -0.1041 -0.0498 -0.0949
23967W        W42821  12.480   2.606  13.297 -0.2438  0.2204  0.1853
23968W        W42822  10.563  12.298  13.614 -0.3064 -0.0618 -0.0005
23969W        W42823  10.629  19.012  10.594 -0.0139  0.0220  0.2904
23970W        W42824   9.395   0.071   2.262  0.2373 -0.1806  0.0126
23971W        W42825   8.922  15.847   2.112  0.1822 -0.0091  0.1440
23972W        W42826  18.776   5.600   4.302  0.0197  0.1596 -0.1118
23973W        W42827  17.522  14.779   0.952 -0.2657 -0.0028 -0.2160
23974W        W42828  14.985  11.531  13.500  0.0975 -0.0045  0.0543
23975W        W42829  15.741   7.145   3.842  0.0474 -0.0157  0.2618
23976W        W42830   5.015   3.660  14.592  0.2498  0.1191 -0.1728
23977W        W42831   1.884   4.937   2.507  0.4598 -0.4008 -0.0270
23978W        W42832   8.172   5.563  13.127 -0.0561 -0.2677  0.0584
23979W        W42833   4.998   1.333  10.884 -0.2725 -0.1006  0.2040
23980W        W42834  12.640  17.352   0.925  0.0135  0.0454  0.5148
23981W        W42835   4.032  13.596  11.486  0.0410 -0.1431 -0.0536
23982W        W42836   5.190  12.345  11.458 -0.1431 -0.1090 -0.4205
23983W        W42837   2.333   9.148   1.715 -0.2061  0.1129 -0.1145
23984W        W42838  13.027   2.154  12.527  0.0797 -0.1948  0.2161
23985W        W42839  13.325  17.098  14.508 -0.2405  0.1650  0.2158
23986W        W42840  12.181   3.122   0.493 -0.0141 -0.1100  0.1814
23987W        W42841  18.952  11.867   3.737 -0.3830  0.3680 -0.0728
23988W        W42842   5.928   7.525   1.170 -0.3191 -0.0041  0.2344
23989W        W42843   6.279  17.112  11.976 -0.1976 -0.4603 -0.0411
23990W        W42844   9.547   9.201   2.085  0.1161 -0.0794  0.1796
23991W        W42845   4.986   0.615  14.331 -0.3049  0.0095  0.2633
23992W        W42846  14.145   0.966   0.084  0.2022  0.0562  0.0430
23993W        W42847  14.575   9.526   0.741  0.0320  0.3986  0.1376
23994W        W42848   4.838  17.513   1.575  0.0502 -0.0298  0.0707
23995W        W42849   5.289   8.803   0.390 -0.0523 -0.1985  0.5525
23996W        W42850   9.143   1.653   3.738 -0.1541  0.0062 -0.2220
23997W        W42851   1.766   5.800  12.258  0.1217  0.3901  0.2395
23998W        W42852   5.222  13.640   0.651 -0.0899 -0.1789 -0.2028
23999W        W42853  15.057  17.750   0.875 -0.0927 -0.1503 -0.1433
24000W        W42854  12.717  10.301  14.019  0.1056 -0.3258 -0.1733
24001W        W42855  15.334   2.606   2.022 -0.1496 -0.2164 -0.0807
24002W        W42856  15.916   6.011   2.962  0.1120 -0.0783  0.1783
24003W        W42857  16.271  17.541  14.772  0.1656 -0.0725 -0.0275
24004W        W42858  14.859  13.944  12.664  0.1501 -0.3327  0.1729
24005W        W42859   5.946  10.063   4.169 -0.3483  0.0065 -0.0082
24006W        W42860   0.621  13.768  13.382  0.0401 -0.0696  0.2158
24007W        W42861  12.043   3.467  10.816  0.3180 -0.0156 -0.0924
24008W        W42862   0.778  16.596  13.891  0.1951 -0.0273  0.0252
24009W        W42863  13.110   7.798  13.864  0.0916 -0.3658 -0.0724
24010W        W42864   3.304  14.366   0.039 -0.1237 -0.2730  0.5441
24011W        W42865  16.533  17.211  12.579 -0.0802 -0.0635  0.2941
24012W        W42866  15.894   7.293   3.358 -0.1885 -0.0076 -0.4248
24013W        W42867  10.297   6.089  14.259  0.0907  0.0882  0.1208
24014W        W42868   3.290  12.542   0.143 -0.0124  0.2577 -0.0013
24015W        W42869  10.279  15.950  12.875  0.2396  0.0205 -0.0825
24016W        W42870  18.381   5.635   1.789 -0.1154  0.0127  0.3326
24017W        W42871  18.270   6.239   4.624  0.1864  0.0585  0.0837
24018W        W42872  11.773  19.130   3.299 -0.1403  0.1349 -0.0395
24019W        W42873  17.351  18.974   2.479 -0.1178 -0.1473  0.0373
24020W        W42874  10.178   2.250  10.270 -0.0184 -0.0455 -0.0101
24021W        W42875  14.250  14.010   0.747  0.2381 -0.0280  0.1797
24022W        W42876  15.604   9.931   1.077  0.2054  0.3053 -0.1488
24023W        W42877  13.975  15.242  13.459 -0.3754 -0.0386 -0.0315
24024W        W42878   7.468   2.453  14.665 -0.0743  0.1274  0.1081
24025W        W42879   2.800  16.349  14.446 -0.0082  0.1326  0.1463
24026W        W42880   5.277   3.426  14.274  0.0122  0.0668  0.1360
24027W        W42881   3.307  15.195   3.270  0.1268  0.3111 -0.3144
24028W        W42882   1.597   6.191   1.462  0.0139  0.1237  0.1399
24029W        W42883   0.814   0.068  13.880  0.1166  0.1592  0.1449
24030W        W42884   5.676  10.946   4.708 -0.1278 -0.2368 -0.1443
24031W        W42885   3.906   7.560   3.629  0.2816 -0.2627  0.2280
24032W        W42886  14.949  11.162   2.438  0.1462  0.1826 -0.0901
24033W        W42887   2.172  14.679  11.334  0.0671  0.0449  0.1886
24034W        W42888   5.960  13.601  13.026 -0.0458 -0.2585  0.0946
24035W        W42889   6.144   9.995  11.201  0.2030  0.2249 -0.1535
24036W        W42890   9.971  10.914  12.282 -0.0421 -0.2990  0.3880
24037W        W42891   6.968   5.284  13.583 -0.2201  0.0970 -0.2213
24038W        W42892   3.061  15.118   1.884 -0.7123  0.1260 -0.2166
24039W        W42893  13.770  16.018   0.007  0.0220 -0.0324 -0.0641
24040W        W42894  10.829   9.221   3.576 -0.3450 -0.3962 -0.0891
24041W        W42895   3.418  11.912   3.010  0.0223 -0.0808  0.0417
24042W        W42896   5.438   2.349  10.427 -0.0656  0.0773 -0.0325
24043W        W42897   6.600  14.244   1.389 -0.0477 -0.0339 -0.0028
24044W        W42898   4.631   8.638   1.500  0.0852  0.2824  0.2348
24045W        W42899   2.400   0.741  13.252 -0.0248 -0.0376 -0.0567
24046W        W42900  10.370   0.179  10.946 -0.0355 -0.0102 -0.0665
24047W        W42901   1.853  15.754   2.058  0.0658  0.2784 -0.3176
24048W        W42902   7.311   1.083   0.654  0.2713  0.0491 -0.0015
24049W        W42903  10.974  17.152  13.976  0.0368  0.2106  0.3673
24050W        W42904  15.325  15.230   2.810 -0.2658 -0.4228 -0.0902
24051W        W42905  13.245   1.336   3.961 -0.1046  0.3067 -0.1415
24052W        W42906  10.068   0.556   9.508 -0.4012  0.2501  0.4548
24053W        W42907  14.021  18.089   3.443 -0.0991  0.0614 -0.4173
24054W        W42908   5.971   2.309  12.314 -0.0661 -0.3200 -0.0743
24055W        W42909   1.573  15.288   2.592  0.1409  0.1378 -0.0950
24056W        W42910  16.161  17.942  11.831 -0.1339 -0.0462  0.0220
24057W        W42911  17.003  19.057  13.520 -0.1770  0.1926  0.1548
24058W        W42912  15.089  11.734   1.499 -0.0207  0.0344  0.0170
24059W        W42913   2.618   6.749   3.054  0.1749  0.1067  0.0303
24060W        W42914  10.331  18.558  13.026  0.1919  0.0758  0.1340
24061W        W42915  14.118   4.589  11.571 -0.1532  0.0514  0.0323
24062W        W42916   7.906  17.140   4.096  0.2367  0.4913 -0.0259
24063W        W42917  13.691   5.598   2.579 -0.0273  0.4933  0.1897
24064W        W42918   0.439  15.978  12.740 -0.0883  0.1056 -0.0998
24065W        W42919   8.307   0.829   4.030  0.2357 -0.0715 -0.0307
24066W        W42920  10.170  10.913   2.577  0.3084  0.2599  0.1841
24067W        W42921   3.820  10.364   1.491 -0.1816 -0.2594  0.0665
24068W        W42922  10.829   6.423   2.016  0.2157 -0.0570 -0.1048
24069W        W42923   4.560   5.295   4.272  0.2954 -0.3429  0.3380
24070W        W42924  17.242  13.207  11.685  0.1930 -0.2069  0.0766
24071W        W42925   7.969  17.426  12.503 -0.0113 -0.0200  0.0049
24072W        W42926   6.522   3.712  13.980  0.2155 -0.3968  0.0421
24073W        W42927   7.098  14.069   3.254  0.2203 -0.1350 -0.0231
24074W        W42928  18.614   5.174   1.012 -0.1784  0.1000 -0.0552
24075W        W42929  13.842  15.004  12.147  0.0098  0.4987  0.0330
24076W        W42930   4.359  10.964  14.273 -0.2519 -0.2548 -0.2730
24077W        W42931  16.678   2.195   0.706  0.1617 -0.1651  0.1588
24078W        W42932   1.849   8.855  13.289 -0.0237  0.2728 -0.0285
24079W        W42933  13.130  12.033  13.535  0.0755  0.0911 -0.1400
24080W        W42934   4.527  15.140  11.768  0.0033 -0.0804  0.0061
24081W        W42935   8.034   5.668   0.523 -0.2860  0.1857  0.0778
24082W        W42936   6.439   8.096  13.828 -0.0284  0.0507  0.0382
24083W        W42937   3.220  11.143  12.317  0.0127 -0.3788 -0.0601
24084W        W42938  16.055  18.899  13.712  0.3261 -0.0893 -0.0647
24085W        W42939   6.324   3.588  13.328 -0.0689  0.1142 -0.0295
24086W        W42940  14.759  15.458  12.407 -0.2672 -0.1817  0.1256
24087W        W42941   5.616   5.044  14.786  0.0792 -0.1579  0.0573
24088W        W42942   7.577  15.782   4.385 -0.0529  0.0497 -0.1603
24089W        W42943   4.003  14.103   5.271 -0.1176  0.1685 -0.0866
24090W        W42944   9.556   7.964   1.774  0.3141  0.5473  0.0257
24091W        W42945   8.734   3.916  12.921  0.0399 -0.0225  0.0343
24092W        W42946  16.210  15.017   1.160 -0.0582 -0.0180  0.1475
24093W        W42947  11.827   6.269  11.950 -0.1183 -0.1316  0.0591
24094W        W42948  11.700   8.301   1.347 -0.1629  0.0619 -0.2262
24095W        W42949   4.157   4.897  12.859 -0.2963  0.0582  0.0570
24096W        W42950   2.269   4.164  13.466  0.2257  0.0768  0.0941
24097W        W42951   7.883   1.899   3.222 -0.0365 -0.0034 -0.0029
24098W        W42952   5.569  12.103  11.128 -0.1853 -0.0257  0.0128
24099W        W42953   0.231  16.122   1.664 -0.1853  0.1040 -0.1992
24100W        W42954   8.935   3.535  10.578 -0.0169 -0.2748  0.3057
24101W        W42955   1.295  17.325   0.501 -0.1063  0.1807  0.0422
24102W        W42956   0.554   9.692   1.093  0.1717  0.5550  0.0718
24103W        W42957   2.184  12.634   3.511 -0.3025  0.2405  0.1274
24104W        W42958   7.350  11.599   4.017 -0.0464  0.0244 -0.1014
24105W        W42959  10.736   7.991  13.356  0.2538 -0.1599  0.0559
24106W        W42960   1.358   9.820   2.804  0.3143 -0.1203 -0.1109
24107W        W42961  10.550   3.049  12.673 -0.2938  0.2097 -0.1591
24108W        W42962   5.913  15.679   1.276 -0.2255  0.0874 -0.3600
24109W        W42963   4.416  19.110  14.471 -0.2118 -0.0744 -0.0673
24110W        W42964   9.935   9.892  11.200  0.1537 -0.0979  0.0533
24111W        W42965   7.367  12.207  12.993  0.0648  0.0992 -0.2020
24112W        W42966   8.051  18.221  12.022  0.0139 -0.2212  0.0188
24113W        W42967  14.458  13.801  12.981  0.1196 -0.3179 -0.0285
24114W        W42968   7.357  18.454   1.659  0.0456  0.1577  0.0729
24115W        W42969  13.703   5.798   0.743 -0.0395  0.1329  0.2332
24116W        W42970  14.835   0.265   2.494 -0.1341  0.1908 -0.0452
24117W        W42971  11.226   4.061   2.715  0.2674 -0.1173 -0.1231
24118W        W42972  13.898  10.894  12.775  0.1562  0.2885  0.2598
24119W        W42973  10.259  16.634   4.131  0.0118 -0.3636 -0.2613
24120W        W42974  16.763  17.449   0.169  0.2028  0.0117  0.3162
24121W        W42975   7.436  13.697   3.219  0.0968  0.2550  0.0283
24122W        W42976   2.265   4.332  11.196 -0.2908 -0.0472  0.2838
24123W        W42977   1.221   7.847   2.035 -0.1814 -0.1403  0.0320
24124W        W42978  11.317  13.673   2.059  0.0703  0.1638  0.2126
24125W        W42979  18.282   7.385  11.588 -0.0417  0.4071 -0.4334
24126W        W42980   0.679   9.150  14.575  0.3614  0.0754  0.0418
24127W        W42981   6.871  14.467  14.003 -0.0822  0.1039 -0.1447
24128W        W42982  15.215   2.640   0.289  0.1370  0.2914  0.1161
24129W        W42983   0.764  12.216   1.571  0.0170  0.0376  0.2052
24130W        W42984   6.266  12.073  11.137  0.0206  0.0012  0.0581
24131W        W42985  16.002  16.243  10.913  0.0993  0.1934  0.3146
24132W        W42986   5.782   8.500   2.231  0.0193 -0.0735 -0.1020
24133W        W42987  10.623   6.138   1.508 -0.2416 -0.2118 -0.1212
24134W        W42988   0.864  15.688   1.021 -0.2066  0.0912 -0.3154
24135W        W42989   4.215  16.426   0.359 -0.4082  0.5641  0.1872
24136W        W42990  14.455  17.768  14.785 -0.1591  0.2773  0.0054
24137W        W42991   9.368   0.657  10.216  0.1901  0.0980  0.2114
24138W        W42992  15.673  12.634   1.867 -0.1527 -0.0829 -0.1701
24139W        W42993   5.541   3.561   1.172 -0.0109  0.2083 -0.0465
24140W        W42994  16.478  17.613  12.989  0.0417 -0.0945 -0.1899
24141W        W42995   8.735   1.233   4.998  0.2038  0.2217  0.1725
24142W        W42996  12.430   2.599   1.393 -0.2221 -0.3200  0.3743
24143W        W42997   5.201   3.947   1.078  0.0250  0.2251  0.0919
24144W        W42998  10.110   6.529   1.459  0.0712  0.0759 -0.2027
24145W        W42999  17.151  15.775  11.989  0.2291 -0.1282  0.3336
24146W        W43000  17.452   6.480  11.625 -0.4835  0.0641 -0.0607
24147W        W43001  15.788   1.999   1.354 -0.0884  0.1137  0.3864
24148W        W43002  10.971  13.022  11.923  0.1210  0.0530  0.0847
24149W        W43003  16.203   4.087  14.669  0.1875 -0.1025  0.3376
24150W        W43004   1.038   3.021   3.752 -0.0410 -0.2806 -0.1385
24151W        W43005   2.980   5.744  13.768  0.1862 -0.1408 -0.1505
24152W        W43006  10.066   1.143   2.666 -0.4263  0.2309  0.2838
24153W        W43007   9.370   9.228  11.851 -0.0067  0.0282  0.0371
24154W        W43008   3.211   3.078   2.348 -0.2805  0.0853 -0.0054
24155W        W43009   0.691   9.626   0.023  0.0624  0.2587 -0.0140
24156W        W43010  18.030   9.468  11.291 -0.4707 -0.0792 -0.1022
24157W        W43011  11.684  18.331  13.385  0.0357 -0.1044 -0.1631
24158W        W43012   4.500  10.936  13.238  0.0120  0.2050  0.1939
24159W        W43013  11.730  12.415  11.534 -0.0303 -0.1018  0.2217
24160W        W43014   0.864   6.980   3.464 -0.1926 -0.4803  0.2088
24161W        W43015  17.612   8.393  12.508 -0.1718  0.1329 -0.3108
24162W        W43016   4.882   6.774   1.231  0.4143  0.0153 -0.2106
24163W        W43017  12.857  17.216   3.488  0.0467  0.0393 -0.1433
24164W        W43018   2.228   8.374   2.644  0.0095  0.2562  0.1801
24165W        W43019  16.237   8.466  14.356  0.0313  0.0202 -0.1816
24166W        W43020  18.740  15.478   3.270  0.0703  0.1319 -0.1605
24167W        W43021  18.865  10.106  11.765  0.1738  0.0245 -0.1116
24168W        W43022  16.747  14.380   2.025 -0.1737  0.3172 -0.3760
24169W        W43023   6.440  13.235  12.325  0.2356 -0.0600 -0.1202
24170W        W43024   0.498  17.514   1.479 -0.0336  0.2688 -0.0037
24171W        W43025  11.745   1.585   1.455  0.5292  0.2514  0.3011
24172W        W43026   1.827  12.270   2.522 -0.1593 -0.1693 -0.0546
24173W        W43027   6.628   5.703   1.952 -0.2262  0.2007 -0.0073
24174W        W43028   7.396  13.411  11.532  0.1543  0.3017 -0.0144
24175W        W43029  13.042  10.255   3.821  0.2450 -0.0294 -0.2984
24176W        W43030  17.185  10.904  13.427 -0.1606 -0.0708 -0.0355
24177W        W43031   9.202   4.725  14.267 -0.2161  0.0645  0.1022
24178W        W43032   3.182  11.527  11.423 -0.2091 -0.0077 -0.2156
24179W        W43033  15.202   7.440   1.170 -0.0051  0.2699  0.1627
24180W        W43034  15.096  16.005  10.991 -0.4013 -0.0351  0.0441
24181W        W43035  16.908  15.490  13.049  0.4561 -0.0042  0.0167
24182W        W43036   1.697   6.675   1.694 -0.0354  0.1936  0.1809
24183W        W43037   6.332  14.692  13.274  0.0278 -0.0280  0.0220
24184W        W43038   7.108  11.537  11.846 -0.0711 -0.0617  0.0287
24185W        W43039   1.765   0.711  10.014 -0.2296  0.2449  0.0983
24186W        W43040  10.195   5.804   1.214  0.0891  0.2202 -0.2455
24187W        W43041   7.135   9.730   1.974  0.0844  0.0095  0.2487
24188W        W43042  12.352   9.335   3.077  0.0228  0.1103 -0.2652
24189W        W43043   7.665  12.026  12.529 -0.2305  0.0824  0.0368
24190W        W43044   5.141  11.553   1.897 -0.1332 -0.0841  0.2760
24191W        W43045  11.191   3.669  11.705  0.0706 -0.0502  0.0304
24192W        W43046   2.623  16.405  11.198 -0.1451 -0.0237 -0.2204
24193W        W43047  17.911   7.774   2.325 -0.1206  0.2262 -0.1364
24194W        W43048   0.482  16.578  11.941 -0.0445  0.0777  0.1223
24195W        W43049  12.401  18.017  13.108 -0.1783  0.0586  0.1408
24196W        W43050   7.110  16.656   2.437 -0.0195  0.2708 -0.0517
24197W        W43051   9.075   4.686   1.648 -0.0421  0.1523 -0.2106
24198W        W43052  11.353  19.111  13.405 -0.1136  0.0654 -0.0172
24199W        W43053   7.039  18.493  14.212 -0.1928  0.0046 -0.2057
24200W        W43054   1.375  13.516   0.716 -0.0137  0.1231  0.0243
24201W        W43055  13.592   6.942  11.739 -0.4563 -0.1246 -0.1236
24202W        W43056  17.053  12.008   3.981 -0.3976  0.0762 -0.2192
24203W        W43057   9.980  12.483  12.930 -0.1169 -0.2244  0.0146
24204W        W43058  15.211  10.682  11.208  0.3598 -0.5236  0.1249
24205W        W43059  15.919   9.179   0.765 -0.0129  0.0663 -0.2115
24206W        W43060  17.905  15.513  12.522 -0.2629 -0.0488 -0.1946
24207W        W43061  11.389   6.875   1.490  0.0087 -0.1039 -0.1486
24208W        W43062   2.878   8.571   3.345  0.0255  0.0391  0.1062
24209W        W43063  11.380  12.968  13.928  0.2072  0.0882 -0.0918
24210W        W43064   8.982  11.420   1.158  0.0986  0.0361 -0.0632
24211W        W43065  18.057   9.690  12.304 -0.0630  0.0551 -0.0635
24212W        W43066  18.646  13.061  13.857 -0.2439 -0.5522  0.2500
24213W        W43067  17.592   6.050  11.311 -0.0729 -0.2173  0.0137
24214W        W43068   8.717  12.130  11.257  0.0920 -0.1982 -0.0761
24215W        W43069   1.315   2.966   4.612  0.0490 -0.2801  0.0194
24216W        W43070  15.798  12.957   3.134 -0.1376  0.1526 -0.0677
24217W        W43071   5.639   9.089   1.350 -0.2227  0.0159 -0.2278
24218W        W43072  16.416  12.365  12.525 -0.2659  0.0592  0.0154
24219W        W43073  13.762   7.840   1.200 -0.1140  0.0771 -0.0744
24220W        W43074   7.157   2.528  11.336 -0.0020  0.1421  0.1310
24221W        W43075  11.395   1.210   3.606  0.2514 -0.2021 -0.2457
24222W        W43076   1.884   4.472   3.852  0.1142 -0.2046  0.2946
24223W        W43077  15.385   1.764   2.554  0.0132  0.1216  0.1697
24224W        W43078   3.128  12.542  11.640 -0.1717 -0.1675  0.0528
24225W        W43079   2.385  18.522  10.895  0.0851  0.4467 -0.0374
24226W        W43080   4.922   6.906  13.113  0.0920  0.1048  0.0251
24227W        W43081  12.599   5.876   0.772 -0.3517  0.0912 -0.1850
24228W        W43082  18.149   8.947   2.849  0.1799 -0.0763 -0.1094
24229W        W43083   4.729   7.233   1.265  0.0428  0.0459 -0.1090
24230W        W43084   3.083   9.724   4.430 -0.2849  0.0418 -0.0022
24231W        W43085  18.796  15.894  11.996  0.0661  0.2172 -0.1006
24232W        W43086   4.833  16.604   2.006  0.3205  0.0978  0.4325
24233W        W43087   9.352  10.405  13.561 -0.2155  0.4066  0.0458
24234W        W43088   0.712   0.799  14.137  0.0370  0.0834  0.2279
24235W        W43089  18.382  18.775   4.773 -0.1047  0.0317 -0.1364
24236W        W43090   2.242   9.335   0.687 -0.1197 -0.0166 -0.0832
24237W        W43091  10.468   6.269  12.018  0.0721  0.1073  0.1406
24238W        W43092  17.294  16.823  13.821  0.3301  0.0953  0.1782
24239W        W43093   3.826   7.607  11.518 -0.3696 -0.2090 -0.1072
24240W        W43094   6.923  16.442  12.585  0.0526  0.0668  0.1716
24241W        W43095   2.906  10.897   3.456 -0.0964 -0.0016 -0.1454
24242W        W43096   0.879   3.310  14.440 -0.2163  0.3637 -0.1141
24243W        W43097  13.712  16.108   0.806  0.3287  0.0209 -0.2427
24244W        W43098  15.854   9.383   0.296  0.1711 -0.0613 -0.0787
24245W        W43099   0.723   6.272  13.718  0.1805 -0.1004 -0.3995
24246W        W43100   3.235   7.644  10.896 -0.1384 -0.0096 -0.1003
24247W        W43101   2.088   0.188  11.581 -0.1813  0.3552  0.2910
24248W        W43102  16.394   9.326   0.226 -0.1089  0.5943 -0.2487
24249W        W43103  14.822   7.748   1.358  0.0251  0.1510 -0.1700
24250W        W43104  10.628   6.778   4.789  0.0020 -0.0056  0.0975
24251W        W43105  11.744   4.557   3.667  0.0827 -0.1182  0.0659
24252W        W43106   9.216   3.232  12.226  0.1508  0.1408  0.0157
24253W        W43107   0.703   7.557  10.990  0.0460 -0.0146  0.2657
24254W        W43108  14.778   2.005  13.520  0.1272  0.2966 -0.3291
24255W        W43109   9.425   1.772   1.696  0.3493  0.4771  0.0886
24256W        W43110   1.083  11.715   1.517 -0.1725 -0.1116 -0.3649
24257W        W43111  11.338   2.071   3.333 -0.0179 -0.1908 -0.1776
24258W        W43112   2.690  19.061   4.307  0.0319  0.2715 -0.1366
24259W        W43113   9.143   6.938  12.899  0.1129 -0.2653 -0.1336
24260W        W43114  14.011   5.428  11.600 -0.1022 -0.2478  0.2119
24261W        W43115  14.615  12.386   4.670 -0.0975  0.0571  0.0032
24262W        W43116  17.423  14.873   3.399 -0.2934 -0.0253 -0.0433
24263W        W43117  12.986   4.780  14.083 -0.0676  0.1128  0.0039
24264W        W43118   3.235  17.894   0.024  0.0210  0.3061 -0.2531
24265W        W43119   9.392   8.147  14.037 -0.0391  0.0618  0.1823
24266W        W43120  15.034   4.105  13.057 -0.1497 -0.0684 -0.0619
24267W        W43121  19.081  18.978   3.184  0.2747  0.1791 -0.3954
24268W        W43122   2.978  13.511  13.271  0.0061  0.1408  0.1282
24269W        W43123   0.970   4.562   3.178 -0.2193  0.2450  0.0775
24270W        W43124  10.102   7.804   3.503 -0.0842  0.1866 -0.2281
24271W        W43125   3.078   8.152  11.459 -0.0211 -0.1478  0.2161
24272W        W43126  10.891  15.609  12.073  0.2235  0.0293 -0.0112
24273W        W43127   7.783  16.154  14.019 -0.1403 -0.3178 -0.1168
24274W        W43128  12.223  16.406   2.502  0.0904 -0.0071  0.3324
24275W        W43129   8.651   1.457  12.170 -0.1931 -0.0647 -0.0009
24276W        W43130   5.141   4.749  11.434 -0.3270 -0.2038 -0.1148
24277W        W43131  16.059   2.873  12.609 -0.0485 -0.0633  0.3618
24278W        W43132   7.967   2.906   0.381 -0.1170 -0.3415  0.3611
24279W        W43133   2.648  12.636  10.670  0.0211 -0.0275 -0.0893
24280W        W43134   1.447   6.978  10.959 -0.1786  0.1001  0.3338
24281W        W43135  14.690   5.010  13.243 -0.3289 -0.1014  0.2368
24282W        W43136  15.557   1.372   4.157 -0.2137 -0.0309  0.2938
24283W        W43137  17.901   1.219  13.596 -0.1044  0.1715  0.0061
24284W        W43138  18.771  15.046  11.432 -0.2213  0.0354 -0.1297
24285W        W43139  14.284   8.043   5.451 -0.0772  0.1521  0.1862
24286W        W43140   5.562  19.074   9.769 -0.3481  0.0898 -0.0487
24287W        W43141   9.736   6.523   1.833  0.1297 -0.4186  0.4073
24288W        W43142  12.459   0.314   2.941  0.2045 -0.1637 -0.2096
24289W        W43143   8.363  18.067  13.580 -0.5624 -0.1729  0.1751
24290W        W43144   6.397   0.019   2.739 -0.1619  0.2407 -0.4130
24291W        W43145  15.942   0.325   1.687  0.1226 -0.2174 -0.1569
24292W        W43146  14.326   5.204  12.947  0.0443  0.3309 -0.2696
24293W        W43147   5.168   2.434  13.738 -0.2327 -0.1286 -0.1536
24294W        W43148   1.257  12.483  13.902 -0.1376  0.0484 -0.2928
24295W        W43149   9.168  17.073  12.362  0.1641 -0.0331 -0.1329
24296W        W43150   6.082  17.890   5.215 -0.0479 -0.1842 -0.0079
24297W        W43151   5.971   8.763   1.109  0.0702 -0.1883  0.3619
24298W        W43152   7.033   8.119  12.539 -0.0421  0.1636 -0.0887
24299W        W43153   1.028  15.961   2.436  0.2185 -0.3464  0.1467
24300W        W43154  11.374  11.596  12.810 -0.1435  0.0125 -0.0434
24301W        W43155   0.922   8.213  11.537 -0.2836  0.1475  0.1892
24302W        W43156  14.333  11.638   1.131 -0.2135 -0.1122 -0.3039
24303W        W43157  10.682  13.764  11.605  0.0251 -0.3078  0.2075
24304W        W43158   7.839   2.717   0.913  0.0058 -0.3753 -0.0867
24305W        W43159  10.116  13.778  11.296 -0.1142  0.1241  0.2680
24306W        W43160   9.667   9.722   0.528 -0.1902  0.1886  0.1600
24307W        W43161   7.242  15.638   1.286 -0.0723 -0.0022  0.1185
24308W        W43162   2.825   8.950  12.976  0.0839 -0.1535 -0.0693
24309W        W43163  18.837   5.111   3.495 -0.3786  0.0641  0.0977
24310W        W43164  10.590   9.710  11.857  0.3140  0.0651  0.1617
24311W        W43165   4.974   0.993   2.115 -0.1157  0.2881 -0.1350
24312W        W43166  14.793   4.561   1.403  0.1068 -0.1263  0.2921
24313W        W43167  12.134  10.077  10.675 -0.2442 -0.0141 -0.0189
24314W        W43168   6.524   9.568  11.899 -0.1222 -0.0123  0.1319
24315W        W43169  15.380  10.982   0.979  0.1194  0.1799 -0.0253
24316W        W43170   7.559  14.269   5.197 -0.2296  0.1653 -0.1308
24317W        W43171   2.453  12.528  14.590 -0.0892 -0.0256  0.0063
24318W        W43172   0.499   7.915   4.096 -0.0527 -0.1036 -0.4256
24319W        W43173   4.659  13.907  13.477  0.3239 -0.0431 -0.1633
24320W        W43174   5.002   9.462   1.136 -0.0549 -0.2081 -0.0597
24321W        W43175   2.485  13.460  13.109 -0.1681  0.4458  0.1875
24322W        W43176  12.230   0.914  12.167 -0.0832 -0.1880  0.0469
24323W        W43177   2.987  17.925   2.786  0.0296 -0.0204 -0.1508
24324W        W43178   0.853  18.244  14.264 -0.2407  0.0173 -0.1380
24325W        W43179   5.855  11.061   2.333  0.1619 -0.1901  0.0995
24326W        W43180  16.816  18.390   1.991 -0.0085  0.0814  0.0850
24327W        W43181   6.032  14.021   4.292 -0.2305  0.0736 -0.2600
24328W        W43182   4.628  13.053  12.032  0.1170 -0.1514 -0.1308
24329W        W43183  10.615  13.715   5.164  0.2922 -0.1322 -0.2506
24330W        W43184  15.910   4.125  10.756 -0.0107  0.1675 -0.0422
24331W        W43185   8.951  16.080   1.622  0.1490  0.1541  0.0764
24332W        W43186   0.422   0.525   5.101  0.2683  0.0255  0.0258
24333W        W43187  15.537   6.370   0.154 -0.0081  0.0062 -0.2288
24334W        W43188   6.508   4.762  12.886 -0.2255 -0.1470  0.2070
24335W        W43189   7.236  17.737  12.965  0.0065  0.1231  0.3190
24336W        W43190   8.033  13.466   1.645  0.0891 -0.1378  0.3750
24337W        W43191   0.370  13.175   3.706 -0.1094  0.1441  0.1085
24338W        W43192  15.221  15.922  11.548 -0.0371  0.0882  0.0143
24339W        W43193  11.260   6.918  12.234  0.0552  0.0989 -0.0833
24340W        W43194  10.154  13.921  13.810  0.0196 -0.4416 -0.0882
24341W        W43195   6.957   8.044  13.965  0.0094  0.0070  0.0380
24342W        W43196  15.696   5.520  13.399  0.1048  0.1601  0.0417
24343W        W43197   9.762  13.802   2.586  0.0430 -0.0444 -0.1471
24344W        W43198   6.507  18.623  14.707 -0.2603 -0.1259  0.0670
24345W        W43199  15.378  10.771  12.368 -0.2251  0.1439  0.2356
24346W        W43200  11.231   1.599   1.480  0.0979 -0.0098 -0.0772
24347W        W43201   9.943   8.879   4.566  0.2050  0.0291  0.0035
24348W        W43202  14.532  12.441   3.879  0.1327 -0.1814 -0.1412
24349W        W43203  15.369  14.151   0.591 -0.0306  0.0233  0.3151
24350W        W43204  12.421   1.768   4.645 -0.0679  0.3040  0.3551
24351W        W43205   2.951   9.355  13.206  0.4010 -0.1639  0.0636
24352W        W43206  10.496  13.677   0.054 -0.0113 -0.4123 -0.3079
24353W        W43207   7.222  18.719   1.269  0.2135 -0.3286 -0.0847
24354W        W43208   0.610  16.835   0.293  0.1873  0.0835  0.2041
24355W        W43209  10.248   2.389   0.483  0.0036 -0.0139 -0.1984
24356W        W43210  18.122  10.478   1.072  0.0177 -0.0908 -0.0192
24357W        W43211  16.529   1.692  13.855 -0.0146 -0.1252  0.1767
24358W        W43212   5.545  15.910  10.610 -0.0698  0.1537 -0.2828
24359W        W43213  18.974   7.647   1.325  0.0681 -0.0807  0.0916
24360W        W43214   9.703  16.658  13.747 -0.0796 -0.2112  0.1464
24361W        W43215   9.793  12.029   2.921  0.4153 -0.1320 -0.0583
24362W        W43216  10.792   5.353  12.579  0.3122  0.2574  0.1608
24363W        W43217   5.741  10.883  10.679 -0.0844 -0.1227 -0.2228
24364W        W43218  16.317   3.017  10.572  0.1333 -0.0197  0.1783
24365W        W43219   5.471   7.675   1.554  0.1666  0.0624 -0.1738
24366W        W43220  14.396   5.741  11.596 -0.0365  0.1675 -0.0315
24367W        W43221  14.730   3.586   0.725  0.1061  0.1963  0.0569
24368W        W43222  17.147   4.369   4.653 -0.0489  0.0559 -0.0474
24369W        W43223  15.715   9.550  14.570  0.0123  0.0668 -0.0682
24370W        W43224   0.841   1.106   2.586  0.2615 -0.2180  0.2265
24371W        W43225  15.761   7.986  12.725 -0.2995 -0.1283  0.0210
24372W        W43226  15.149   6.391  13.013 -0.3622  0.1461 -0.2273
24373W        W43227   7.371   8.978   3.224  0.1952  0.2101 -0.1755
24374W        W43228  12.679  16.352  14.596 -0.0243 -0.0107  0.0004
24375W        W43229  14.344   5.178   3.225 -0.2133  0.0069 -0.0960
24376W        W43230  14.859  15.027  14.677  0.2623 -0.0087 -0.0178
24377W        W43231  12.475  18.399   0.080 -0.1263  0.3294  0.2037
24378W        W43232   8.426  13.132  14.068 -0.0293 -0.1096 -0.1798
24379W        W43233   3.141   3.710  12.692 -0.1528 -0.0208 -0.0033
24380W        W43234  13.977  11.187  11.637 -0.1490  0.0076  0.1001
24381W        W43235  15.654  12.200  13.120  0.5675  0.3547  0.1048
24382W        W43236   5.455   1.190   2.118 -0.1528 -0.2272  0.2358
24383W        W43237  11.331  15.323  13.995 -0.2028 -0.2612  0.0545
24384W        W43238  12.794  10.148   0.397 -0.1276  0.0351  0.0244
24385W        W43239  14.085   2.554  13.530 -0.1899  0.2479 -0.0197
24386W        W43240   4.197   0.713  13.411  0.2948 -0.0629  0.2336
24387W        W43241  10.701  18.400  13.355  0.0256  0.0573 -0.2854
24388W        W43242  10.100  16.607  12.848  0.0275  0.0605  0.0559
24389W        W43243   2.813   8.087   0.742  0.0363 -0.0572  0.1445
24390W        W43244  17.793   2.771   1.002  0.1562 -0.2874  0.1327
24391W        W43245   0.680   3.594  12.563 -0.0006 -0.0037  0.1179
24392W        W43246  17.063  15.224  13.418 -0.2217  0.2226  0.0381
24393W        W43247   3.811   7.645   9.667 -0.3400 -0.1834 -0.1241
24394W        W43248   7.337  13.690  10.591  0.0041  0.0043 -0.0433
24395W        W43249  17.642   9.399   0.380 -0.1607 -0.0934 -0.0023
24396W        W43250   7.372   3.027   2.573  0.2118 -0.2290 -0.1036
24397W        W43251   4.169   2.165  13.910  0.4492  0.1405  0.0845
24398W        W43252  16.512  16.899  10.951 -0.1269  0.4496  0.0777
24399W        W43253   6.702   9.449   2.157  0.2214 -0.3205  0.0460
24400W        W43254  14.707  12.241   3.439  0.0832 -0.1976  0.0860
24401W        W43255   5.640  18.271  14.597 -0.1503 -0.0755  0.1306
24402W        W43256  15.627  15.030  10.781 -0.1487  0.1027  0.2483
24403W        W43257   4.550   9.488   2.276  0.0802 -0.0169  0.1289
24404W        W43258  12.977   1.288  11.482 -0.3092 -0.5803  0.0569
24405W        W43259  16.000  11.296  13.288 -0.2005  0.1996 -0.1232
24406W        W43260   4.283  13.088  11.159  0.0405 -0.1749 -0.0524
24407W        W43261   8.512  14.566   3.763  0.2722 -0.1182  0.1682
24408W        W43262   3.346  16.742  13.818 -0.1409 -0.0715  0.1774
24409W        W43263  16.154   1.043  14.558  0.0980 -0.0543  0.1329
24410W        W43264   2.520  11.843   3.843  0.2965 -0.3227  0.1855
24411W        W43265   2.796   4.180  10.899  0.3311 -0.1067 -0.1251
24412W        W43266   4.065   2.429  10.107 -0.1387 -0.1432 -0.2769
24413W        W43267  12.211   1.395  11.900  0.2742  0.1656 -0.1294
24414W        W43268   2.775  11.876  12.779 -0.1620  0.0245 -0.4017
24415W        W43269  14.507   6.499   0.325  0.3109 -0.0131  0.2384
24416W        W43270  17.292  16.581   3.891 -0.3955  0.1840  0.2998
24417W        W43271   2.411   0.045   3.002 -0.1114 -0.1129 -0.1314
24418W        W43272  18.256  11.254   4.080 -0.0339  0.2215  0.1146
24419W        W43273  12.350   3.176   4.057  0.3080 -0.1896 -0.2880
24420W        W43274  10.231   1.055   3.176  0.2744 -0.1650 -0.0979
24421W        W43275  15.974  11.253   3.999  0.1243  0.1904 -0.4021
24422W        W43276   5.604   3.280  11.971 -0.0199  0.3158  0.2676
24423W        W43277   2.534  15.496  11.887 -0.3716 -0.1666  0.1307
24424W        W43278  14.776  12.626  11.464  0.1522 -0.3034  0.0231
24425W        W43279  10.353  18.236   0.809 -0.1216 -0.0124  0.0222
24426W        W43280  16.695  10.320   5.429 -0.0230 -0.0035 -0.2934
24427W        W43281  18.179  16.270   9.419  0.0636 -0.0425 -0.1629
24428W        W43282   6.911   0.322  11.553 -0.0252 -0.0109  0.0163
24429W        W43283  19.020  12.622   4.567 -0.1051  0.3428  0.1101
24430W        W43284  13.319  17.149  13.576  0.1014  0.0556 -0.0261
24431W        W43285   7.579  12.769   3.207  0.3326  0.2292 -0.1587
24432W        W43286  15.993   1.748  13.363  0.0446  0.0945  0.1289
24433W        W43287  16.946  17.011   0.483  0.0387  0.3854  0.2297
24434W        W43288   8.489   4.457   4.108  0.3137  0.1372  0.1051
24435W        W43289  11.023  10.543   2.281 -0.0038  0.1677 -0.0856
24436W        W43290   7.914   1.847  12.931  0.1479 -0.1583 -0.0017
24437W        W43291   0.011  10.182   9.947  0.1914  0.0194  0.0572
24438W        W43292  15.951  10.533   4.286 -0.1156  0.3602 -0.0118
24439W        W43293   9.954  14.578   0.088  0.1884  0.1142  0.0002
24440W        W43294   0.972  18.475   0.374 -0.3142  0.4002  0.2014
24441W        W43295   8.318  13.448   1.232 -0.2887 -0.0361  0.1823
24442W        W43296  16.791  12.101  10.977  0.0196  0.1584 -0.1816
24443W        W43297   9.744  10.207   1.322  0.0589 -0.1087 -0.1604
24444W        W43298   0.245  11.243  13.359 -0.1508  0.3489  0.1874
24445W        W43299   5.757  16.619   2.638  0.0971  0.1947  0.0178
24446W        W43300   6.753   6.852  13.345  0.1946 -0.4006 -0.2858
24447W        W43301   1.737   1.181  13.962 -0.0461 -0.0338 -0.0133
24448W        W43302  12.163  15.180   1.203  0.2239  0.1929 -0.1621
24449W        W43303  12.607   4.179   2.892 -0.2354 -0.2452 -0.1481
24450W        W43304  13.857  16.469   3.197 -0.0279  0.1993 -0.1011
24451W        W43305  17.629  11.067  13.204  0.0429  0.4103  0.0924
24452W        W43306   1.138   8.370   3.362 -0.0835 -0.0509 -0.0313
24453W        W43307   1.042   0.123   2.679 -0.2293  0.2459 -0.0762
24454W        W43308  12.118   4.572   2.676  0.1958 -0.2426 -0.1405
24455W        W43309   9.608   6.683   0.847  0.1041  0.1166 -0.0579
24456W        W43310   6.604   3.994   3.423  0.0063 -0.1457 -0.4155
24457W        W43311  13.072  19.026  10.562 -0.0564 -0.2747 -0.1811
24458W        W43312   2.850   0.194   3.238 -0.1353  0.0418 -0.2947
24459W        W43313  15.680  11.720  12.314 -0.1312  0.1551  0.3200
24460W        W43314   7.717  10.263   0.887 -0.2071  0.2295  0.0114
24461W        W43315  16.532   9.352   2.857 -0.0005  0.1874  0.1152
24462W        W43316   7.802  14.068  14.112  0.2754 -0.2756  0.1225
24463W        W43317  17.666  13.523   1.064  0.1169  0.0014  0.0939
24464W        W43318   6.388  13.195   3.576 -0.1161  0.1191 -0.5270
24465W        W43319  15.109   6.575   4.128 -0.3337  0.0667  0.0502
24466W        W43320   5.299   8.797   4.020 -0.0052  0.0843 -0.1663
24467W        W43321  16.166   9.638  14.238  0.0404 -0.1648  0.0289
24468W        W43322  13.315  11.446   9.654  0.2892  0.0907 -0.2698
24469W        W43323  16.505   5.529  13.715  0.2333 -0.1900  0.0393
24470W        W43324   6.225   0.625  13.900 -0.1756 -0.0863  0.2217
24471W        W43325   7.715   7.687  13.789  0.1065 -0.0850  0.0389
24472W        W43326  18.055   2.945  12.606  0.3287 -0.1687  0.3048
24473W        W43327  11.993   7.802  11.410 -0.2319 -0.3582  0.2795
24474W        W43328  17.832   1.937   2.569  0.2925  0.1681  0.2147
24475W        W43329  14.060  14.172  11.577  0.1356 -0.0490 -0.0835
24476W        W43330   3.112   7.187  11.666  0.0286  0.1791 -0.0070
24477W        W43331   3.837  18.805  13.927  0.1111  0.1885 -0.0629
24478W        W43332   7.764  17.470   1.342  0.1958 -0.1739 -0.0917
24479W        W43333   3.963   2.104   2.558 -0.2409  0.0367 -0.1633
24480W        W43334  10.474  15.105   2.693  0.1078  0.0527  0.0045
24481W        W43335   9.355  17.634  10.799 -0.1360  0.2287 -0.0121
24482W        W43336  10.871  18.860   3.175 -0.0319 -0.5927 -0.2825
24483W        W43337   6.694   7.567   4.150  0.0435  0.1205 -0.0928
24484W        W43338  16.623  16.367  13.242 -0.1155  0.0589 -0.1808
24485W        W43339  10.580   1.022   2.790 -0.0184  0.2055  0.2273
24486W        W43340   8.164  12.361  13.941  0.0431 -0.3408  0.0071
24487W        W43341  10.917  14.127   3.939 -0.0177  0.3222 -0.2108
24488W        W43342   0.490   9.163   3.007 -0.0429  0.2499  0.3642
24489W        W43343   9.319   2.662   3.710 -0.1118  0.0109  0.2340
24490W        W43344  17.312  17.221   2.839  0.1419  0.0859 -0.1485
24491W        W43345  11.520  11.253  13.348 -0.1777 -0.1290 -0.0154
24492W        W43346  16.729  16.358   4.282 -0.1387  0.1242  0.0431
24493W        W43347  10.853   6.591  12.011  0.0515 -0.0921 -0.1307
24494W        W43348   6.766  12.999  10.163  0.0078 -0.0015  0.0644
24495W        W43349  15.791   8.611   3.859  0.1522 -0.0266 -0.1740
24496W        W43350  18.223   7.946  12.083  0.6021  0.0913  0.0871
24497W        W43351   0.894  18.858   1.171 -0.1730  0.1101 -0.0491
24498W        W43352   4.923  12.137   0.961  0.0774 -0.2127 -0.2656
24499W        W43353   8.541   4.832   3.745 -0.2404 -0.0530  0.0559
24500W        W43354  13.782  16.762  13.103  0.0757  0.1090 -0.0605
24501W        W43355   2.965   2.206   2.399 -0.0259  0.0344  0.2210
24502W        W43356  14.727  15.061  14.173 -0.2560  0.0434 -0.0044
24503W        W43357   5.721  14.023   1.271 -0.0166 -0.3008  0.1889
24504W        W43358   5.785   0.560  11.881 -0.0663  0.4461 -0.0993
24505W        W43359  17.278   7.967  11.849  0.0779 -0.1345 -0.1515
24506W        W43360   0.006   7.108   0.266 -0.1853  0.0944 -0.0290
24507W        W43361  10.831   6.349  11.040 -0.1727 -0.4712  0.0036
24508W        W43362   8.087  15.014   4.347  0.3242  0.0563 -0.1572
24509W        W43363   3.920  13.456  12.012  0.2882  0.1441  0.2479
24510W        W43364   5.762   3.292   4.018 -0.3309  0.0963  0.2115
24511W        W43365  13.767  12.352   2.519 -0.0527  0.0303  0.2580
24512W        W43366  17.362  12.622  11.955  0.0886  0.0555 -0.0443
24513W        W43367  18.682   2.056   0.970 -0.1857  0.0889 -0.3241
24514W        W43368  19.147   6.150  12.295  0.0977 -0.0822 -0.0492
24515W        W43369  11.731  11.372  12.194  0.1221  0.0553 -0.1078
24516W        W43370  10.046  16.447  14.542 -0.3133  0.0486 -0.0966
24517W        W43371  11.241   3.399   2.718  0.2846 -0.2467 -0.0743
24518W        W43372  16.909   1.125   3.897  0.0852  0.3928  0.1208
24519W        W43373   9.453  12.409   3.652 -0.0115  0.2650 -0.2132
24520W        W43374   5.988   9.139   4.324  0.0570 -0.3337  0.0693
24521W        W43375   0.871  15.574  12.617  0.2014 -0.2102  0.2039
24522W        W43376   2.918   7.036   0.939 -0.0261  0.3124 -0.1500
24523W        W43377  10.333  18.172  10.708  0.0989  0.2718 -0.0807
24524W        W43378   6.817  10.162  10.736  0.0722 -0.2053 -0.1762
24525W        W43379   4.140   1.102  13.061 -0.1519  0.2573  0.0124
24526W        W43380  14.501   2.852  14.672  0.2084 -0.1869 -0.0143
24527W        W43381  14.572  12.432   1.535  0.1189  0.1406  0.2162
24528W        W43382  14.453   0.326   4.133 -0.3883  0.1952  0.0157
24529W        W43383   0.594  16.184  10.975  0.1466 -0.2491  0.2463
24530W        W43384  16.547   5.762  12.498 -0.0730 -0.2511 -0.3027
24531W        W43385   2.605   2.891   9.670 -0.1878  0.1564  0.0703
24532W        W43386   5.038  16.344   0.672  0.0251  0.1717  0.4003
24533W        W43387   4.364  14.042   3.693 -0.1454  0.0410  0.0834
24534W        W43388  13.624   8.773  14.200 -0.1189  0.1359 -0.0870
24535W        W43389   4.244  16.448  10.841  0.0621  0.2530  0.0027
24536W        W43390  10.788   4.578  11.580  0.3607 -0.0190  0.1351
24537W        W43391  15.093   3.069   3.800  0.1091 -0.0626 -0.1445
24538W        W43392   2.292  13.148   2.269 -0.1017 -0.1159 -0.1270
24539W        W43393   9.604   7.022   1.716  0.0815 -0.0568 -0.0630
24540W        W43394  13.307   6.193  14.517  0.0090  0.0681  0.3729
24541W        W43395  16.638  12.839  14.042  0.0455 -0.0835  0.0455
24542W        W43396   4.514   8.131  14.531 -0.2104  0.2165  0.0619
24543W        W43397  11.812  18.945  10.535 -0.4095 -0.0681 -0.0932
24544W        W43398  18.955  17.701   2.651  0.1869  0.1841  0.0056
24545W        W43399  11.257   1.786  14.770 -0.0733  0.1250 -0.1451
24546W        W43400   8.096  15.339   1.760 -0.0658 -0.3348 -0.1200
24547W        W43401  17.462  17.862  11.592 -0.1485  0.1364  0.4083
24548W        W43402  15.577  17.198  13.739 -0.1587 -0.2576  0.1510
24549W        W43403  15.521  11.457   4.138  0.0967  0.1314  0.0074
24550W        W43404  12.742  14.741  13.676  0.1898  0.2267 -0.2586
24551W        W43405   2.212  10.722  14.585 -0.3801 -0.0734 -0.0717
24552W        W43406  13.252  11.633   1.102 -0.4022  0.1903  0.1396
24553W        W43407   3.112   2.696   1.425 -0.1898 -0.2578 -0.1384
24554W        W43408  10.038   0.724   3.779  0.0784  0.1093  0.0086
24555W        W43409  16.128  14.690   2.315 -0.0064  0.0612  0.2549
24556W        W43410   1.693   9.721  11.804  0.2476  0.0695 -0.1238
24557W        W43411   8.344   9.727   3.916  0.0365  0.2987  0.1099
24558W        W43412   2.910  13.609   4.384  0.0739 -0.1066  0.1424
24559W        W43413  17.126   7.534   1.535 -0.0173  0.0428 -0.2053
24560W        W43414  16.530  11.483  14.078 -0.2105  0.0729  0.1224
24561W        W43415  11.218  13.549  10.614  0.0008 -0.1276  0.4414
24562W        W43416  15.183  16.751   0.134  0.0869 -0.3709 -0.0632
24563W        W43417  18.196  11.706  14.322  0.2298 -0.2967  0.1272
24564W        W43418   0.376  18.496  13.437 -0.3578 -0.0942  0.2126
24565W        W43419   7.377  17.731  13.895 -0.0112  0.2543 -0.4480
24566W        W43420  12.771   6.193  12.391  0.0557  0.0808 -0.1054
24567W        W43421   5.618   5.302  12.354  0.2249 -0.0069  0.3315
24568W        W43422  16.566  15.374   3.485  0.1597 -0.1244  0.0493
24569W        W43423   7.037   5.875   2.252  0.2361  0.2768  0.1876
24570W        W43424  19.132  12.139  11.457  0.3135  0.2626 -0.1846
24571W        W43425   2.125   3.910  12.402  0.1891  0.1809 -0.2642
24572W        W43426   7.170   3.402   1.031 -0.1339  0.0262  0.3107
24573W        W43427   7.873  11.632   0.584 -0.0378 -0.0109  0.1349
24574W        W43428  17.490   1.846   1.189  0.1679  0.1216  0.2589
24575W        W43429   2.605  16.855  11.081 -0.3606 -0.1880  0.0245
24576W        W43430  18.188   3.177   1.127 -0.2012 -0.0944 -0.2017
24577W        W43431  14.102   9.400   3.543 -0.4032  0.0138  0.2262
24578W        W43432   5.552   0.021  12.581 -0.1872  0.1138  0.1731
24579W        W43433  12.360  18.022  14.404 -0.1255 -0.2071 -0.0811
24580W        W43434  18.613  18.091  13.724 -0.4217 -0.2675 -0.1921
24581W        W43435   3.226   2.394  13.627  0.0025  0.2479 -0.6283
24582W        W43436  10.791  16.132  14.086 -0.0348  0.2536  0.4619
24583W        W43437  15.874   2.332   0.103  0.3419 -0.0747  0.0439
24584W        W43438   1.983  12.860  12.397 -0.0883  0.1283  0.1838
24585W        W43439   9.036   8.914   1.779  0.1639  0.1943  0.0915
24586W        W43440  10.848   5.753   0.170  0.1071 -0.0267  0.1019
24587W        W43441   3.575   1.219   2.957  0.1450 -0.1840  0.1000
24588W        W43442   2.568  11.982  14.182  0.2669 -0.1147 -0.2218
24589W        W43443  16.755   2.079   2.795 -0.2041  0.2455 -0.0322
24590W        W43444   6.202   7.401  13.237 -0.2125  0.0939 -0.0810
24591W        W43445   0.145  18.791   1.511 -0.1248 -0.0713 -0.0567
24592W        W43446  18.185   6.082   1.675  0.2055  0.3463 -0.2637
24593W        W43447  11.176   4.076  13.500 -0.1298  0.0697  0.2993
24594W        W43448  10.183  10.399  11.400 -0.3572 -0.1547 -0.0616
24595W        W43449   5.651  18.819   2.308 -0.1418  0.1491 -0.0228
24596W        W43450  11.813   8.966  12.477  0.1404  0.0628 -0.2879
24597W        W43451   6.272  16.712  12.930 -0.0244 -0.2239 -0.0784
24598W        W43452   8.193   4.237   1.518 -0.1700 -0.3525 -0.0033
24599W        W43453   0.520  18.873  10.901 -0.1822  0.1897 -0.0408
24600W        W43454  17.927  13.755   2.508 -0.1774  0.1461 -0.2705
24601W        W43455   4.030  18.423  11.424 -0.1550 -0.0862  0.0491
24602W        W43456   0.843  12.466   2.988 -0.0186 -0.1211 -0.1398
24603W        W43457   7.323   9.237  11.096 -0.0279  0.2193  0.0834
24604W        W43458  13.721   8.451   3.681  0.0598 -0.0178 -0.0371
24605W        W43459   3.434   6.839  11.315  0.2768 -0.0107  0.2899
24606W        W43460  12.300   5.766   3.694  0.1717 -0.0576 -0.3363
24607W        W43461   4.027  17.218  12.438 -0.2916 -0.0587 -0.2181
24608W        W43462   8.349  10.750  14.687  0.1814  0.3027 -0.1441
24609W        W43463  17.472  14.403   1.771 -0.1730  0.1306  0.1194
24610W        W43464   3.555  12.032   1.048  0.0706  0.0935  0.5104
24611W        W43465  18.309   8.914  11.879  0.0471 -0.3968 -0.0729
24612W        W43466   4.432   5.911  14.444 -0.2253  0.0986 -0.4712
24613W        W43467   0.511   2.651  12.164 -0.1158 -0.0212 -0.1427
24614W        W43468  15.161  19.149   0.351 -0.3838  0.0284 -0.4734
24615W        W43469  13.886   5.277   4.062  0.0790 -0.0737 -0.1427
24616W        W43470  13.541   0.794   0.319  0.1414  0.0494  0.1458
24617W        W43471  15.541  18.861  12.383 -0.0295 -0.1062 -0.1570
24618W        W43472  18.720  17.474   0.052  0.0340 -0.0712 -0.0348
24619W        W43473   1.763  17.722   2.193 -0.1048 -0.0399 -0.0672
24620W        W43474   4.702   2.703  13.928 -0.0252  0.0086 -0.0135
24621W        W43475  17.982   6.485   0.651  0.0145 -0.3207 -0.5122
24622W        W43476   7.562  10.151   4.473 -0.0127 -0.0854  0.0278
24623W        W43477   6.800  11.416   4.217 -0.0688 -0.4273  0.2055
24624W        W43478   9.376   0.674   2.330 -0.0896  0.2352  0.2537
24625W        W43479  15.045   0.918  14.246  0.2119 -0.1426 -0.0529
24626W        W43480  10.737  16.370  11.099  0.2409  0.0748  0.0636
24627W        W43481  16.736   4.106   4.431 -0.1251 -0.0550  0.1059
24628W        W43482  10.764  13.681   1.829 -0.3952  0.4473 -0.0404
24629W        W43483   9.612  11.321   4.070 -0.0272 -0.1426 -0.4275
24630W        W43484  10.141  12.890   1.594  0.2453 -0.0932  0.1000
24631W        W43485   6.919   3.079   4.910  0.1689  0.0944 -0.2310
24632W        W43486   4.956  12.277   3.312  0.1065  0.4719  0.0111
24633W        W43487   0.931   1.910  11.022 -0.1386  0.2407  0.1279
24634W        W43488  14.529   2.727   3.665  0.3078 -0.0184  0.6827
24635W        W43489  16.159   8.331  12.722  0.1979 -0.1178  0.3108
24636W        W43490  18.470  10.320   1.423 -0.0025  0.0490  0.3169
24637W        W43491  11.840   9.718   0.615  0.0463  0.0669 -0.1960
24638W        W43492   3.846  12.222   4.441  0.0503 -0.2937  0.0346
24639W        W43493  16.332   5.038  11.430 -0.0899 -0.1043  0.0321
24640W        W43494  14.393  15.377   2.562 -0.1484  0.2006 -0.4867
24641W        W43495  10.961   8.157   2.134  0.0317  0.0988 -0.2223
24642W        W43496  18.240  16.324   3.708  0.0309  0.0943  0.0319
24643W        W43497   3.469   6.575   2.176  0.3404  0.1638 -0.1634
24644W        W43498   1.455  18.147  14.440 -0.0012 -0.0882  0.1697
24645W        W43499   5.389  11.984   2.120 -0.3834  0.1966 -0.1113
24646W        W43500   3.478  15.791  12.980 -0.1457 -0.2886  0.2263
24647W        W43501  15.181   4.252  12.530 -0.5608 -0.1196 -0.0181
24648W        W43502   8.309  13.786   0.709  0.0741  0.0302  0.0018
24649W        W43503   4.999   3.623   3.452 -0.2107 -0.0878 -0.2563
24650W        W43504  18.343   4.716  11.591 -0.1260  0.1165  0.1525
24651W        W43505  10.673   9.921   1.063  0.0432 -0.0365  0.0164
24652W        W43506   1.893   8.778   1.730 -0.2030  0.2937 -0.3931
24653W        W43507  14.777   9.369   4.323 -0.2283  0.1849  0.0555
24654W        W43508  11.028  18.679  14.524  0.0287 -0.0463 -0.2787
24655W        W43509   8.189   9.060   2.509 -0.2012 -0.2192  0.0373
24656W        W43510  14.975  11.997   4.618  0.2547 -0.2991  0.0152
24657W        W43511  11.397  10.416  12.200 -0.0383 -0.0326 -0.0990
24658W        W43512  17.583  17.114   0.845  0.0059  0.3302 -0.0776
24659W        W43513   4.627  18.357  11.841 -0.1748  0.1512  0.3246
24660W        W43514  11.798   1.449   1.989 -0.3955 -0.0479  0.1352
24661W        W43515  17.255  14.334   3.483  0.1275 -0.2121  0.0595
24662W        W43516   4.256   4.587   0.565 -0.2182 -0.1215  0.0540
24663W        W43517   4.591  16.909  10.847  0.1389  0.0810  0.1435
24664W        W43518   7.265  18.605   0.333 -0.0449  0.0208 -0.1351
24665W        W43519   9.221   6.142  13.558  0.1572 -0.5507 -0.3739
24666W        W43520  17.079  14.886   2.203  0.1064 -0.1601 -0.0845
24667W        W43521   3.606  11.459   2.880  0.4404  0.2858  0.1767
24668W        W43522  14.273   5.197  13.442 -0.0464 -0.3205  0.0133
24669W        W43523  18.469  17.213  12.326 -0.0522  0.1663  0.2672
24670W        W43524  16.962  18.617  12.615  0.0382 -0.0685 -0.2351
24671W        W43525  10.897  18.917  12.367  0.1396 -0.3022 -0.0929
24672W        W43526  10.442   0.754   0.807  0.0181  0.2034  0.4135
24673W        W43527  16.300  16.199  12.482 -0.1282 -0.0263  0.3055
24674W        W43528  13.046  15.333  12.178  0.0503  0.3018  0.0810
24675W        W43529   8.540  16.673  10.850 -0.1835  0.0377 -0.0550
24676W        W43530   9.492   0.649   1.103  0.1616  0.2433 -0.0034
24677W        W43531  17.867  16.029  12.390  0.3400  0.0400  0.3020
24678W        W43532   3.407   4.759   0.310 -0.1063  0.0603  0.3065
24679W        W43533  16.457  16.381  11.814  0.1054  0.0733 -0.2610
24680W        W43534  11.722  11.244   2.241  0.3968 -0.2967 -0.2517
24681W        W43535  11.693   5.763   1.330 -0.0647  0.1486 -0.0081
24682W        W43536   7.299  13.001   0.507  0.0094  0.0777  0.0752
24683W        W43537  15.181   8.190  14.445  0.1437  0.0013 -0.2950
24684W        W43538   2.942   7.209   4.389 -0.3349  0.2290 -0.0676
24685W        W43539   3.439   3.510   0.831  0.1434  0.0010  0.1227
24686W        W43540  16.692   9.919   3.453  0.0630  0.0036 -0.1745
24687W        W43541  18.412   2.652   2.494  0.0589 -0.0042  0.2677
24688W        W43542   2.903  18.330   2.488  0.2499 -0.0969  0.3787
24689W        W43543  15.560  15.994   4.032 -0.2074  0.1301 -0.0740
24690W        W43544   3.842  11.303   0.721  0.0489  0.0257 -0.2188
24691W        W43545   3.212  13.890  11.459 -0.1537  0.2656  0.2096
24692W        W43546   8.238  19.053   0.666  0.1404  0.0995  0.0690
24693W        W43547   6.402   6.530  13.273 -0.1771  0.1526 -0.3171
24694W        W43548   5.655  13.592   3.346  0.2508 -0.1265  0.2257
24695W        W43549  18.015   0.275   3.039 -0.1681 -0.1782 -0.2069
24696W        W43550   3.501   4.392   4.971  0.0079  0.0558 -0.1456
24697W        W43551   3.416  14.413  11.497  0.0211  0.1263  0.1892
24698W        W43552  13.479   2.136   1.634  0.2353  0.1599 -0.2516
24699W        W43553   0.483  12.029   2.087 -0.2392 -0.0349  0.1946
24700W        W43554  17.138  10.567   0.506  0.1971 -0.1921  0.1081
24701W        W43555   5.496   4.544   3.874  0.1603  0.2755  0.0503
24702W        W43556  13.503  10.986   2.573  0.1405  0.1953  0.1092
24703W        W43557  18.215  15.093   1.129 -0.0140 -0.3246 -0.0934
24704W        W43558  13.503   0.165   0.321  0.1835  0.1577  0.2461
24705W        W43559   9.794  16.800  11.085  0.0193 -0.2207  0.0652
24706W        W43560   0.039   6.176   3.948 -0.1119  0.0706  0.0302
24707W        W43561  13.652  14.557   2.640  0.2044 -0.1199  0.2287
24708W        W43562  13.880   4.226  11.840 -0.2165 -0.0746 -0.3607
24709W        W43563   8.824   0.643  13.874  0.1387 -0.1327 -0.1207
24710W        W43564  15.047  10.258  11.461 -0.0865 -0.3586 -0.2137
24711W        W43565   1.517  17.894   0.106  0.3615  0.1544  0.0214
24712W        W43566   9.159  11.560   4.678  0.3625  0.0495 -0.0381
24713W        W43567   6.014   0.762  13.079  0.1089 -0.0443 -0.0435
24714W        W43568  12.590  18.307   0.916 -0.1459  0.2033  0.0455
24715W        W43569  10.203   9.999   1.174  0.1532  0.1566  0.0541
24716W        W43570  11.075  15.869  11.135  0.2570  0.0154  0.2055
24717W        W43571   5.966  11.489  13.328  0.0867 -0.0185 -0.1265
24718W        W43572  12.369  18.894   1.476 -0.1898  0.0612 -0.2371
24719W        W43573  14.827   2.228  11.901  0.0528 -0.4344  0.1962
24720W        W43574  12.726  17.590   3.155 -0.0511  0.0663  0.2093
24721W        W43575  18.729  13.066  10.965  0.0099  0.3071  0.2037
24722W        W43576   6.251   6.503  12.800  0.1611  0.1721 -0.0268
24723W        W43577  13.809  18.392  10.127 -0.2553 -0.3626 -0.0688
24724W        W43578  16.468  15.116  12.201  0.0549 -0.1268 -0.0371
24725W        W43579   0.897   3.558   3.461  0.0414  0.2974 -0.2300
24726W        W43580  18.520  13.573   3.374  0.0300 -0.4213  0.0982
24727W        W43581  14.399  14.954  12.364  0.1775  0.1721  0.5784
24728W        W43582   7.884  15.320  14.054 -0.3305  0.0533 -0.0794
24729W        W43583  10.945  14.801  10.921  0.0891 -0.2191  0.0517
24730W        W43584   6.532  12.291   1.620 -0.1211 -0.1947  0.0989
24731W        W43585  17.646   0.510   1.962  0.1188  0.1113 -0.0924
24732W        W43586  11.529  11.721   0.934  0.0835  0.0397 -0.4324
24733W        W43587   0.860   3.765  11.406  0.0898  0.0498 -0.2682
24734W        W43588   3.084   1.619   1.790  0.2016  0.0281  0.1778
24735W        W43589  10.698  17.535   1.180 -0.4170 -0.0991  0.1972
24736W        W43590  13.623   7.054   3.851 -0.0566 -0.1171 -0.3765
24737W        W43591  12.592   2.723   3.050 -0.2076  0.0996 -0.3391
24738W        W43592  16.959  16.726  10.909  0.1524  0.0325 -0.2212
24739W        W43593  13.856  14.015   4.707 -0.1320  0.0439  0.0945
24740W        W43594   7.018   6.061  10.247 -0.1072 -0.0039 -0.2625
24741W        W43595   1.409   1.664   0.790  0.5450  0.1079  0.1145
24742W        W43596  12.532  10.821   3.854 -0.0919 -0.0275  0.2061
24743W        W43597  15.957  14.194  14.532  0.1250 -0.3499 -0.1240
24744W        W43598   9.684   9.814   3.554 -0.1448  0.0721 -0.1451
24745W        W43599  14.672  14.397   9.616  0.2248 -0.3185  0.0454
24746W        W43600  12.258   6.734  14.511  0.0534  0.0149 -0.0111
24747W        W43601  16.091  13.467   2.332  0.0456 -0.1429  0.1250
24748W        W43602   6.201  11.609   1.210  0.1520  0.0341  0.0669
24749W        W43603   2.544   4.171  13.032  0.1837 -0.1598 -0.1472
24750W        W43604   1.850   8.037  14.536 -0.2170 -0.1910 -0.3031
24751W        W43605   0.985   9.819  13.469 -0.3173 -0.1720  0.3407
24752W        W43606   9.387   2.299   0.332  0.0377 -0.0268 -0.3107
24753W        W43607   2.930  10.359  13.527  0.1157  0.0156 -0.0111
24754W        W43608   4.906   5.609   0.953  0.2208  0.2145 -0.0409
24755W        W43609  15.671   9.195  11.027  0.0452  0.0355 -0.0644
24756W        W43610   5.928   6.436   3.586 -0.1109 -0.0298  0.3205
24757W        W43611   2.847  11.656   4.389  0.0585 -0.2213  0.0047
24758W        W43612   1.969   0.462   1.152  0.1135  0.2140  0.0631
24759W        W43613  13.819  15.169   2.104 -0.1647 -0.0868 -0.0609
24760W        W43614   6.011   0.293  11.479 -0.3377 -0.0701 -0.3158
24761W        W43615  18.407   8.304   2.735 -0.3675  0.0932 -0.0790
24762W        W43616   9.430  12.437  11.061  0.0881  0.0470 -0.0807
24763W        W43617  12.391   5.932   0.247 -0.2723 -0.6206 -0.1710
24764W        W43618  11.083   5.606   3.591  0.1138  0.1035  0.0717
24765W        W43619   6.627  11.483   2.171 -0.1671  0.4892  0.5072
24766W        W43620   8.352   3.080   0.043  0.3031 -0.2399  0.2435
24767W        W43621   8.772  17.791   2.416 -0.3161  0.0439 -0.1990
24768W        W43622  18.787   8.692   2.615  0.1576  0.0823  0.1830
24769W        W43623   0.824  10.951  11.371 -0.1147  0.1480  0.0680
24770W        W43624   5.680  10.050  11.387  0.0093  0.0083  0.0698
24771W        W43625  18.762   2.200  11.373 -0.1468 -0.2313 -0.1753
24772W        W43626  10.805   6.322   0.262  0.0300  0.0425 -0.2691
24773W        W43627   4.423  18.500  14.081 -0.0116  0.0291  0.3576
24774W        W43628  10.088   3.099  13.967 -0.1205  0.2292  0.0220
24775W        W43629   3.660  16.514  12.430 -0.1871  0.0895 -0.0209
24776W        W43630   7.145  10.715  13.489 -0.4417  0.2225 -0.1519
24777W        W43631   6.156   6.740   1.587 -0.0595 -0.0760  0.0955
24778W        W43632   6.867   0.245   0.501 -0.0268  0.0714 -0.1520
24779W        W43633  12.203  18.026   0.840  0.2462 -0.1646  0.3186
24780W        W43634  13.085  18.627   3.144 -0.0465 -0.4315 -0.2194
24781W        W43635   0.119  17.008  13.041 -0.1234 -0.2468  0.1723
24782W        W43636  19.095  15.668   0.898  0.1394  0.1082 -0.2144
24783W        W43637  11.459  13.844   0.034 -0.2677  0.0076 -0.1320
24784W        W43638   7.107  18.528   0.821 -0.0137  0.0377  0.0641
24785W        W43639   3.538  10.267  12.744  0.0545  0.1024 -0.3760
24786W        W43640   2.102  12.729  11.776 -0.0115 -0.2940 -0.1777
24787W        W43641  11.865   3.089  12.057 -0.1501  0.1897  0.2534
24788W        W43642  14.306   8.064   3.100  0.0905  0.0603  0.2987
24789W        W43643   9.242   4.191   9.722  0.1425  0.1347  0.0674
24790W        W43644  16.426  12.424   0.972 -0.1574 -0.1095  0.0969
24791W        W43645  14.152   6.189   4.867  0.1630  0.0073  0.2195
24792W        W43646  14.552  15.010  13.479  0.2852  0.0699 -0.1017
24793W        W43647   8.653  11.638  10.099  0.0042 -0.2918  0.0026
24794W        W43648   5.465   1.558  12.760 -0.0445  0.2883  0.0676
24795W        W43649   9.093  11.080   0.389  0.3105 -0.0608  0.3555
24796W        W43650  18.193   3.444  12.797  0.3887  0.3180  0.0599
24797W        W43651  16.167  18.845  11.779  0.0194  0.2367  0.0566
24798W        W43652   9.363   4.766   1.232 -0.1477 -0.1825 -0.4324
24799W        W43653   4.439  17.691  11.636 -0.1530 -0.2061  0.1369
24800W        W43654  14.646  10.886   3.369  0.1455 -0.0836  0.1914
24801W        W43655  13.739   8.052  13.138 -0.2003  0.1244  0.2208
24802W        W43656   9.595  15.259   0.819  0.0786  0.1399  0.0893
24803W        W43657   2.698  11.097   1.737 -0.1318 -0.0860  0.0364
24804W        W43658  10.844   1.806   5.045  0.0364 -0.0453  0.0350
24805W        W43659   2.368  10.731   3.310  0.0467 -0.0070  0.1720
24806W        W43660  14.878   6.322  12.611 -0.1116 -0.2390 -0.2837
24807W        W43661   1.201   1.942  12.989 -0.1519 -0.0934  0.2412
24808W        W43662   4.290   0.451   0.399  0.2076 -0.6077 -0.0990
24809W        W43663  13.068   2.861   2.880 -0.1831  0.1461 -0.2695
24810W        W43664   2.146   6.736  12.027  0.0735 -0.0393  0.1911
24811W        W43665   6.828  18.025   3.195  0.0098 -0.0842  0.0812
24812W        W43666   5.711  17.630   0.038  0.2360 -0.4584  0.0609
24813W        W43667   9.884   9.595   2.035  0.3413 -0.1478 -0.1718
24814W        W43668  17.371   8.925   2.478 -0.1148 -0.1419  0.1401
24815W        W43669   4.449  18.739   3.762  0.0966  0.0973 -0.0607
24816W        W43670   0.043   1.976   0.978 -0.0915 -0.0770 -0.0289
24817W        W43671  13.868  15.882  13.645  0.0886  0.0934 -0.0281
24818W        W43672  13.118  13.258  11.140 -0.0999  0.0377  0.1874
24819W        W43673  12.754  12.228   3.043 -0.3412  0.2455 -0.0526
24820W        W43674   1.276   5.009   4.287 -0.1396  0.2432 -0.0764
24821W        W43675   4.490  18.246   1.805  0.0897  0.2108  0.1937
24822W        W43676  15.932  16.177   0.193 -0.1298 -0.0252  0.2752
24823W        W43677  15.392   8.168  10.800  0.0181  0.0568  0.0625
24824W        W43678  16.882  13.557  13.267 -0.1750  0.0492 -0.1234
24825W        W43679  15.353  18.336   2.045  0.1595 -0.2550  0.1828
24826W        W43680   8.290   9.650  12.271 -0.0024 -0.1488 -0.0737
24827W        W43681  16.033  10.464   1.837  0.1394 -0.2987  0.2545
24828W        W43682  15.598   7.108   4.315  0.0638  0.1667 -0.2764
24829W        W43683  13.393   6.182   4.851 -0.2440  0.2497 -0.0569
24830W        W43684   7.945  15.074   3.104 -0.3672 -0.0510 -0.1901
24831W        W43685  12.598   2.780   4.420 -0.1033 -0.3100 -0.3059
24832W        W43686   0.233   4.917   2.128 -0.1486 -0.1264 -0.0628
24833W        W43687   8.295  17.459  12.879  0.5465 -0.0323 -0.0902
24834W        W43688  14.860  11.983  13.790 -0.2998 -0.0033  0.0090
24835W        W43689  12.694   2.831   3.789 -0.3271 -0.0167 -0.0665
24836W        W43690   9.107  17.862  14.602 -0.0755  0.0434  0.0257
24837W        W43691   6.836  14.012  14.311 -0.0977 -0.0598  0.1310
24838W        W43692   8.168   6.738   2.623  0.2028  0.0826 -0.3500
24839W        W43693   6.164  16.127   3.939 -0.1041 -0.0132 -0.0326
24840W        W43694  12.751   4.057   3.648 -0.2483 -0.0760  0.0738
24841W        W43695  18.347  11.048   4.554 -0.1142  0.1685 -0.3458
24842W        W43696  14.200   1.466   4.044 -0.0940 -0.2631  0.0670
24843W        W43697   2.547  14.580   3.476 -0.2596 -0.1332  0.0464
24844W        W43698   0.009   0.055  12.899 -0.1148 -0.1781  0.1684
24845W        W43699  18.774   0.981   2.565 -0.1620  0.0696  0.0221
24846W        W43700  12.273   9.986   4.178  0.2448  0.0436 -0.0473
24847W        W43701   8.250  17.566   9.622  0.2128 -0.1159  0.1343
24848W        W43702  18.246  13.986   2.101 -0.2729  0.2007 -0.0156
24849W        W43703   9.462   1.246   2.982  0.2314  0.0741 -0.2071
24850W        W43704  12.915   4.503  11.664 -0.0602  0.0993 -0.0883
24851W        W43705   8.875   2.742  14.658  0.3495 -0.2619  0.4858
24852W        W43706  17.674   9.160  13.386 -0.0101  0.1503 -0.2154
24853W        W43707  10.613  10.111   2.480 -0.0472 -0.1222  0.1267
24854W        W43708  17.806   7.495   0.713 -0.1225 -0.2782 -0.0433
24855W        W43709   2.481  18.101   2.493 -0.0581  0.1796  0.3184
24856W        W43710  18.444  10.653  14.610 -0.0377  0.0213 -0.0366
24857W        W43711   6.315  13.566  11.459 -0.0735  0.3693 -0.0179
24858W        W43712   5.273   1.117  12.299 -0.1901 -0.0688  0.2382
24859W        W43713   5.617  14.327  12.805  0.1510  0.1551  0.0707
24860W        W43714  16.788   5.287   0.447  0.1480 -0.0193  0.1715
24861W        W43715   3.984  12.981  10.692 -0.0362  0.1102 -0.0401
24862W        W43716   5.978  14.562   2.138  0.0648 -0.0883 -0.0120
24863W        W43717   3.388  18.297  13.360 -0.1131  0.3572  0.0780
24864W        W43718  13.572  15.674   0.819 -0.0856 -0.2393  0.0172
24865W        W43719   0.221  16.337  12.521  0.1888  0.0599  0.0180
24866W        W43720  16.531   7.889   0.745 -0.1716  0.0906  0.0452
24867W        W43721  17.018   2.512   2.129 -0.1026  0.1989  0.0138
24868W        W43722   4.108   8.088   1.962 -0.0533  0.0430  0.2715
24869W        W43723   9.093  15.933   9.968  0.2601  0.0665  0.3273
24870W        W43724   0.116   5.052   3.794 -0.3393 -0.2184  0.0904
24871W        W43725  11.787   0.869   1.210  0.1315  0.2920 -0.2495
24872W        W43726  14.725   1.037   3.203 -0.0944  0.2555 -0.1767
24873W        W43727   2.851  17.652  14.414 -0.0783  0.0981 -0.0392
24874W        W43728  11.659   9.980   3.390  0.1776 -0.2129  0.0475
24875W        W43729  14.722   8.799   9.878  0.0058  0.1071  0.1372
24876W        W43730   6.169   9.901  11.705 -0.0366  0.0068  0.0631
24877W        W43731  12.373   3.158   2.871 -0.1715 -0.1454 -0.1287
24878W        W43732   4.775  14.864  14.592  0.1772 -0.0857 -0.2407
24879W        W43733   1.081  18.116  10.167 -0.1202  0.0103 -0.0130
24880W        W43734   6.916  18.583  12.258 -0.0317 -0.2920 -0.1573
24881W        W43735   0.379  13.043  10.939  0.2628  0.1311 -0.0573
24882W        W43736   6.461   7.819  13.299  0.2071  0.1277 -0.0335
24883W        W43737   6.453   3.696  12.504 -0.0546 -0.0163 -0.0927
24884W        W43738   2.204  14.091  12.436 -0.1221 -0.0810  0.6367
24885W        W43739   4.345  18.025   3.294  0.2233 -0.0044 -0.1520
24886W        W43740  14.328   9.550   4.468 -0.2061  0.1170  0.0101
24887W        W43741   9.421   2.855  10.465  0.0966 -0.1312 -0.2477
24888W        W43742  18.385  10.491  13.993 -0.0811  0.2361 -0.1736
24889W        W43743   9.080   9.145  13.647  0.0727  0.0256 -0.0198
24890W        W43744  14.425   9.323  13.857 -0.0657  0.4121 -0.2544
24891W        W43745  10.792   0.963  10.532  0.2561 -0.0725 -0.1411
24892W        W43746  11.144  12.194  14.434  0.2781  0.1220 -0.0012
24893W        W43747   2.251  17.396   2.002 -0.1344 -0.0592  0.0594
24894W        W43748   4.803  10.049   2.779  0.0766  0.0940 -0.0210
24895W        W43749  14.998  16.471  13.712  0.1557 -0.1299 -0.0097
24896W        W43750   0.117   4.051   2.969  0.2991 -0.1671  0.0988
24897W        W43751   0.637   0.559  11.862 -0.2253  0.1674 -0.0703
24898W        W43752   3.896   8.618  13.717 -0.0510 -0.2241 -0.4341
24899W        W43753   3.189  13.059  13.044  0.0193  0.2073 -0.2010
24900W        W43754   2.910   1.324   1.434 -0.3455  0.4292  0.2774
24901W        W43755   7.401  10.611   1.888 -0.0399 -0.1743  0.3129
24902W        W43756   3.018   9.705   0.065 -0.2256 -0.0557  0.2490
24903W        W43757   9.840   2.971   0.743 -0.3521  0.1931  0.0299
24904W        W43758   6.762  18.103  10.956  0.0837  0.0639  0.2898
24905W        W43759   5.299   9.724   5.469  0.2324  0.3804  0.3228
24906W        W43760   5.714   5.419   2.314  0.3171  0.1693 -0.0520
24907W        W43761  10.754  12.316   1.818  0.0303 -0.2674  0.0620
24908W        W43762   0.476  18.718   9.844 -0.1833 -0.1894 -0.1158
24909W        W43763  18.835   7.797  13.953  0.3944  0.0682 -0.2262
24910W        W43764  10.135   9.299   1.077 -0.0088  0.1089  0.1195
24911W        W43765   9.529   0.081  14.775 -0.3246 -0.0774  0.1105
24912W        W43766  15.206  17.193   1.750 -0.0135  0.1593 -0.2429
24913W        W43767   6.683   5.142   2.108  0.0301  0.3097  0.1105
24914W        W43768   1.364  16.580  11.602 -0.0242  0.2614 -0.0189
24915W        W43769  13.246   6.566  11.772 -0.0619 -0.0044  0.5053
24916W        W43770   7.745  18.534   5.234 -0.1239  0.0130 -0.2135
24917W        W43771   8.656   2.933   2.514 -0.4022  0.0856 -0.1729
24918W        W43772   1.726  13.648  10.853  0.0731 -0.0714  0.4365
24919W        W43773   8.628  10.100   1.437 -0.0589  0.0208  0.1326
24920W        W43774  12.344   6.189  14.288 -0.3381  0.0444  0.3801
24921W        W43775  13.400   3.035  10.817  0.0425  0.1652 -0.0799
24922W        W43776  17.263  13.211   2.281 -0.0218  0.1687 -0.0822
24923W        W43777  16.571  19.036   0.447 -0.1214 -0.1152  0.0475
24924W        W43778   2.902  14.498  13.071 -0.4906  0.2815 -0.3641
24925W        W43779  14.180   0.658  13.145  0.3165 -0.3105  0.1254
24926W        W43780   9.669  13.673  10.384 -0.2292  0.4266  0.2152
24927W        W43781   8.332   7.792   2.530  0.2176  0.1653  0.0546
24928W        W43782   7.297   2.154   9.397 -0.0953  0.2978  0.1274
24929W        W43783   7.625  13.661   2.094  0.0140  0.0475 -0.2386
24930W        W43784  11.169   7.814   2.469  0.2934  0.0790 -0.1144
24931W        W43785   6.003   6.225  11.042  0.2031 -0.1020  0.3344
24932W        W43786   7.906   9.851   4.252 -0.0318  0.3466  0.0579
24933W        W43787   6.083  10.244   0.122  0.4812  0.2632 -0.0261
24934W        W43788  19.104   6.705   1.898 -0.0840  0.0465 -0.0487
24935W        W43789  17.132   8.065   1.254 -0.1002  0.1362  0.0284
24936W        W43790   8.595  10.258   2.505 -0.0890  0.1513 -0.0345
24937W        W43791  18.081   0.736   1.795  0.1048  0.3207 -0.0966
24938W        W43792   8.610   0.836   1.104  0.1463 -0.0973  0.0405
24939W        W43793  12.382  10.195   2.526 -0.0759  0.1734 -0.0847
24940W        W43794   5.015   1.583  13.114  0.0639  0.0899 -0.1474
24941W        W43795  16.550  14.651   1.330 -0.1980 -0.0015  0.2055
24942W        W43796   9.117  17.747   3.459  0.0324  0.1046 -0.0262
24943W        W43797  11.684   3.206   0.642 -0.0258  0.2135  0.0137
24944W        W43798   4.279  16.792  14.752  0.0613 -0.4195 -0.2070
24945W        W43799  16.082  10.105   2.575  0.0061  0.1415  0.1461
24946W        W43800   8.183   7.817  12.487  0.0610 -0.1704  0.1058
24947W        W43801  16.669  13.170   0.340 -0.0398  0.2390  0.0539
24948W        W43802   0.471  15.598  12.379 -0.1955  0.0049  0.1785
24949W        W43803   8.139   6.059   3.443 -0.2039  0.1626  0.2168
24950W        W43804   9.842   6.756  14.763 -0.0197  0.1824  0.0736
24951W        W43805  12.248  13.865   2.382  0.0620 -0.5041  0.0913
24952W        W43806   4.689   6.709  13.793  0.3018 -0.2193  0.0042
24953W        W43807  15.065   1.414  10.476  0.1205  0.2809  0.1405
24954W        W43808   1.811   4.404  12.378 -0.3280 -0.0361 -0.1042
24955W        W43809   7.322  16.577  10.750 -0.3096 -0.2070  0.1574
24956W        W43810  16.098  10.535   2.392  0.1138 -0.0740 -0.1200
24957W        W43811  13.826  14.808  13.708 -0.0260  0.0442  0.0538
24958W        W43812   2.931   1.247   4.134 -0.3857  0.0123 -0.0167
24959W        W43813  10.806  10.779  12.880  0.0119 -0.0240  0.1206
24960W        W43814   9.672   4.799   2.161  0.1166 -0.0271  0.0077
24961W        W43815   3.095   4.203   2.297 -0.0742 -0.1600  0.0632
24962W        W43816  12.940   2.917   3.386  0.3408 -0.0248  0.1397
24963W        W43817  16.499  12.444   1.522 -0.1438 -0.0892  0.0529
24964W        W43818  14.728   1.981   0.983 -0.0584  0.0232  0.0433
24965W        W43819   6.949  11.635  11.136  0.0275  0.3366  0.1373
24966W        W43820  14.851  10.413   4.236 -0.3088  0.1214  0.0718
24967W        W43821   0.613   0.629  13.138 -0.0561  0.0845 -0.0039
24968W        W43822   8.081  18.322  10.895  0.1702  0.0275  0.0633
24969W        W43823  14.077   8.774  12.604 -0.1068 -0.1843  0.0813
24970W        W43824   3.724   3.164  11.968  0.0411  0.0730  0.0419
24971W        W43825  15.831   5.274   0.825  0.1995  0.3004  0.0606
24972W        W43826  14.336   8.221   0.335  0.1624  0.1957 -0.4001
24973W        W43827  18.844  11.836  12.911  0.2046  0.2203  0.0555
24974W        W43828  11.014  14.361   2.369 -0.4093 -0.1827  0.1699
24975W        W43829  12.944  15.329   0.343  0.0487  0.0776 -0.1187
24976W        W43830  14.204  17.482  10.088 -0.2041 -0.1136  0.1089
24977W        W43831   0.798  13.569  11.952 -0.0234 -0.0820  0.1806
24978W        W43832   9.670   5.825  12.246  0.0422  0.0926 -0.0816
24979W        W43833   1.899  19.100   1.337  0.0987  0.4033  0.1688
24980W        W43834  15.514  14.318  12.190  0.0708 -0.2050 -0.0946
24981W        W43835  10.411   2.800  12.221 -0.3666  0.1229 -0.1202
24982W        W43836  13.098  11.631  13.818  0.0161  0.2166 -0.2132
24983W        W43837   8.271   7.651  14.470  0.2415 -0.0687  0.1317
24984W        W43838  10.153  10.567  12.522 -0.0024  0.1029  0.2494
24985W        W43839   9.350  16.765   3.198 -0.1360 -0.0856 -0.1895
24986W        W43840  14.264  11.232   3.354  0.3557 -0.2197 -0.2049
24987W        W43841   6.065   2.615   1.615 -0.4052 -0.1545  0.0262
24988W        W43842   2.929   8.272   1.174 -0.0103  0.2439 -0.0811
24989W        W43843   5.892  14.714   4.103 -0.0547  0.2593  0.5878
24990W        W43844  10.237   1.752  13.780  0.0839  0.0796  0.0723
24991W        W43845  13.620  17.558   3.362  0.0280  0.0466 -0.1124
24992W        W43846  10.852   1.534   2.855 -0.0350 -0.2755  0.1100
24993W        W43847   0.751  11.930   5.454 -0.0052 -0.2877 -0.0190
24994W        W43848  16.552   2.144  11.178  0.2141 -0.3395  0.0516
24995W        W43849   6.359  13.254   2.500  0.1546  0.0591 -0.2338
24996W        W43850   3.579  13.026   0.670  0.0614  0.0768  0.2975
24997W        W43851  15.410   8.868  11.841  0.1632 -0.5694  0.1295
24998W        W43852   3.362   2.937  11.612 -0.3390  0.0774 -0.1489
24999W        W43853   1.780   0.232   9.090 -0.2667  0.0585  0.0927
25000W        W43854  18.359  12.836  14.123 -0.0063  0.2745  0.0816
25001W        W43855   4.624   7.506  14.084 -0.2861  0.0998  0.2077
25002W        W43856   5.649  17.296  12.803 -0.0325  0.0222 -0.0529
25003W        W43857  15.268   0.095  14.669 -0.1988  0.2746  0.2970
25004W        W43858   0.209  11.734   2.396 -0.3528 -0.0232 -0.1896
25005W        W43859  16.777   2.344  10.531 -0.0809  0.1306  0.0539
25006W        W43860  17.484   7.995   0.118 -0.0182  0.0408 -0.1195
25007W        W43861  11.812  15.976   1.411 -0.3544  0.1568  0.0684
25008W        W43862   8.346  16.980   2.228  0.4722  0.0738  0.1041
25009W        W43863   4.542   0.312   1.189  0.1139 -0.2599 -0.1069
25010W        W43864   0.124  14.716  11.572 -0.0160  0.1476  0.1320
25011W        W43865  18.173   0.249   1.783 -0.2550  0.0988  0.0223
25012W        W43866  12.751   2.540  12.425  0.2290  0.2345  0.1832
25013W        W43867   2.551   4.751  11.863 -0.3292  0.0151  0.2864
25014W        W43868   1.660   2.371   1.493  0.0498  0.0305  0.1754
25015W        W43869  13.049  11.361  12.417 -0.2230 -0.1126  0.0814
25016W        W43870  10.557  13.482   2.822  0.1306 -0.3535 -0.1453
25017W        W43871  16.332  10.524  14.641  0.0914 -0.0314 -0.1965
25018W        W43872  13.524   0.480   0.764 -0.0323 -0.2480  0.2613
25019W        W43873   9.908   0.677  10.924 -0.1877 -0.1906  0.0773
25020W        W43874   5.932   6.619  10.752  0.0805  0.1338  0.2273
25021W        W43875  15.264  14.410   3.882 -0.1210  0.0983 -0.1291
25022W        W43876   2.120  18.530   0.312 -0.1166  0.0036 -0.3396
25023W        W43877  11.846   4.221   2.394  0.0237  0.0982 -0.0600
25024W        W43878  14.465  18.731  12.627 -0.1044  0.0135  0.1001
25025W        W43879  14.744  12.923  11.849  0.4613  0.0619  0.1083
25026W        W43880   5.675   4.398  10.690  0.2120 -0.1348 -0.2907
25027W        W43881   2.989  14.360  11.209 -0.0032 -0.3432  0.0574
25028W        W43882   5.263  15.012  14.585 -0.0706 -0.1116 -0.5222
25029W        W43883   7.344   5.471  13.997  0.2217  0.0158 -0.2584
25030W        W43884  12.262   1.121   2.140 -0.2171 -0.1173  0.4097
25031W        W43885  17.184  12.128   1.474  0.0828  0.0366  0.2034
25032W        W43886   9.743  13.153   3.403 -0.0256 -0.3377  0.0300
25033W        W43887  12.231   0.706   3.184  0.1026 -0.1499  0.0689
25034W        W43888   0.803   7.391   0.934 -0.0252  0.1884  0.0106
25035W        W43889   5.697   1.404   1.717  0.0986 -0.0922  0.0190
25036W        W43890  12.762  12.073   3.959 -0.0186  0.2282 -0.1435
25037W        W43891  16.747   4.610   4.220  0.2110 -0.1083 -0.2123
25038W        W43892  19.125   4.685  13.347  0.0691 -0.2139  0.0143
25039W        W43893  10.562   6.106   2.630 -0.0601  0.0065 -0.0436
25040W        W43894  13.739  14.381   0.213 -0.1963 -0.0016 -0.0051
25041W        W43895   7.971   3.375   1.899  0.2218  0.0369 -0.1184
25042W        W43896  14.047   4.634  12.068  0.1364 -0.1682 -0.0734
25043W        W43897   5.632   8.219  14.319  0.1205 -0.1195  0.1447
25044W        W43898   6.830  19.151  14.637 -0.1665  0.3966  0.1447
25045W        W43899  16.740  17.713   3.486 -0.0924  0.0220 -0.0159
25046W        W43900   2.216   5.248   3.794  0.2007  0.1015 -0.1752
25047W        W43901  15.263   7.009   3.752 -0.2488 -0.0151  0.0577
25048W        W43902  11.916   3.777  12.995  0.3131  0.1510 -0.1711
25049W        W43903  10.193  16.373   1.896 -0.2673 -0.1102 -0.3890
25050W        W43904  12.922   0.888  11.099 -0.1448  0.0879  0.0839
25051W        W43905   3.716  11.816  13.457 -0.0421 -0.1806  0.0092
25052W        W43906   6.327  10.134   1.420 -0.1420 -0.2038 -0.1360
25053W        W43907   8.814   1.539   0.294  0.0968 -0.0560  0.0339
25054W        W43908   8.467  18.330   3.061 -0.0893  0.0497  0.2275
25055W        W43909   7.262   8.235   4.366 -0.1980 -0.4117  0.0490
25056W        W43910  16.854  14.364   2.510  0.0400  0.1691  0.0460
25057W        W43911   9.223   3.223   1.807 -0.0179  0.0549  0.1562
25058W        W43912  18.909  16.676   2.737  0.2089 -0.0611  0.3857
25059W        W43913  15.693  11.147  10.976  0.1949 -0.3071 -0.1319
25060W        W43914  18.869   9.475   4.255 -0.1554  0.0020  0.4314
25061W        W43915  17.290   7.375   1.040 -0.2925  0.1105  0.0979
25062W        W43916  11.153   3.555   0.037  0.0640  0.1217  0.1523
25063W        W43917  15.123   7.709   3.272  0.0910 -0.1706 -0.1617
25064W        W43918   9.480   2.125  10.953  0.0149  0.4557 -0.0931
25065W        W43919  16.943  14.669   3.186  0.0840  0.1446 -0.1646
25066W        W43920  12.828  17.365  14.294  0.0518 -0.0668 -0.1643
25067W        W43921  12.263   4.789   3.542  0.3286 -0.0642 -0.1183
25068W        W43922  17.002   5.529  13.771 -0.2332 -0.0702  0.0592
25069W        W43923   8.019   3.199  13.748  0.2364  0.0572  0.0765
25070W        W43924   6.011  10.468  10.659  0.0555 -0.1956  0.3271
25071W        W43925   0.710  11.805  11.483 -0.0898  0.0058  0.0074
25072W        W43926  13.074   7.360  12.958 -0.3935 -0.2565 -0.1439
25073W        W43927   8.941  14.476  12.642  0.0678 -0.1640  0.0384
25074W        W43928   9.315   7.041   2.215 -0.0525  0.0828 -0.1994
25075W        W43929   8.122   7.829  14.015 -0.3651  0.3521  0.0247
25076W        W43930   5.949   8.374  14.652  0.0388 -0.0447  0.1331
25077W        W43931  15.272   3.430   3.055 -0.4071 -0.0223  0.2625
25078W        W43932  13.368   9.901   2.073 -0.0723  0.1727 -0.0436
25079W        W43933   3.441   7.222  12.979 -0.0822  0.1181  0.0624
25080W        W43934   0.378  15.918   2.677 -0.0226  0.4380 -0.0060
25081W        W43935  14.804   8.646   1.476  0.0717  0.1862  0.3060
25082W        W43936   6.559   6.518  13.747 -0.0030  0.1101  0.3445
25083W        W43937  16.080  15.210  10.642  0.1713 -0.1056 -0.2056
25084W        W43938  14.550  16.372   1.084  0.0253  0.1110 -0.0410
25085W        W43939   9.112   6.387   3.079 -0.2765 -0.1588  0.2812
25086W        W43940  14.470   4.641  12.903 -0.0120 -0.1030 -0.0607
25087W        W43941   6.425   8.049  12.378  0.0790 -0.1623  0.2678
25088W        W43942   2.949  12.567  14.574 -0.0563  0.3519 -0.2094
25089W        W43943   9.409  18.193   3.205  0.0584 -0.0690 -0.2009
25090W        W43944  16.701   9.858   1.729 -0.1432  0.1330  0.1341
25091W        W43945  11.211   4.897  11.630  0.5109  0.1014  0.0126
25092W        W43946  18.291  13.107   3.664  0.1915  0.2267 -0.1066
25093W        W43947   4.643   6.574  12.281 -0.4033 -0.2178 -0.2280
25094W        W43948  11.146   5.516  12.946 -0.0346  0.0238  0.1680
25095W        W43949   7.486   2.598   1.747  0.2419 -0.1241  0.1507
25096W        W43950  15.115   9.548  14.372 -0.1317 -0.3881 -0.1778
25097W        W43951   8.491  13.655  11.036  0.0051  0.0169 -0.0200
25098W        W43952   3.960   7.211   2.786  0.0431 -0.1702 -0.0890
25099W        W43953   0.608  17.242   2.840 -0.1538 -0.0415 -0.1221
25100W        W43954  14.311  10.691   1.450 -0.1000 -0.1217 -0.2073
25101W        W43955  11.154   5.733  14.335 -0.1391 -0.0047  0.1616
25102W        W43956   2.763  16.965   4.855 -0.1727  0.2613 -0.1691
25103W        W43957   5.321   0.393   3.994  0.0606 -0.0190  0.1191
25104W        W43958   9.788  11.081  13.127  0.0212 -0.0331 -0.2387
25105W        W43959  11.685   4.504  11.994 -0.2674 -0.3219  0.3354
25106W        W43960   5.618  15.003  11.849  0.1662  0.2191 -0.1944
25107W        W43961   5.064  16.713  13.012  0.0286 -0.2579 -0.4060
25108W        W43962  17.967   3.716  13.685  0.1680 -0.1310 -0.4066
25109W        W43963   2.057  14.555  12.039  0.2133 -0.0417 -0.1089
25110W        W43964  15.698  18.059  11.759  0.4112  0.0733  0.3161
25111W        W43965   2.937  10.778   2.042  0.0646 -0.1725  0.1651
25112W        W43966   3.113  14.938  12.089  0.0926  0.0186 -0.1780
25113W        W43967   2.724   8.472  13.453 -0.2630 -0.0185 -0.0854
25114W        W43968   0.489   8.790   0.153  0.0474  0.2960  0.0602
25115W        W43969   0.988   4.265   1.814 -0.0148 -0.1094 -0.1865
25116W        W43970  17.645  14.833   2.454  0.2903 -0.0777  0.4107
25117W        W43971  18.824  11.271   0.234  0.1153  0.0280 -0.0017
25118W        W43972   5.678   3.035  10.613 -0.0119 -0.0472 -0.2912
25119W        W43973   0.399  14.082   3.474  0.1818 -0.0798 -0.3366
25120W        W43974   5.964   0.010  11.072  0.2213 -0.1084 -0.0163
25121W        W43975  11.796   4.314   4.813  0.1772 -0.1265  0.1391
25122W        W43976   6.724  17.065  13.870 -0.0696  0.2503  0.0375
25123W        W43977  15.920   7.001   0.064  0.2674 -0.0070  0.4341
25124W        W43978  10.578  10.247  13.053 -0.2913  0.0541 -0.0335
25125W        W43979   1.327  18.485  14.123  0.4366 -0.3355  0.0237
25126W        W43980  14.432  11.005  10.883  0.0480  0.1894 -0.1391
25127W        W43981   1.646   2.568   4.833 -0.3211  0.1374 -0.1562
25128W        W43982  15.374   5.961   3.012 -0.3746 -0.0391 -0.0626
25129W        W43983  18.033  17.530  12.145 -0.0307 -0.2142  0.2233
25130W        W43984  13.231   5.218  13.849  0.0753 -0.0453 -0.0846
25131W        W43985  14.186   4.002  10.747 -0.0796 -0.2236 -0.1668
25132W        W43986   6.320  11.768   0.010 -0.1958 -0.1082  0.0530
25133W        W43987  10.535   2.110  14.361 -0.0861 -0.1185 -0.0750
25134W        W43988   9.834  18.076   2.198 -0.1121  0.0431 -0.1160
25135W        W43989  15.535  14.026   4.189 -0.1059 -0.1412  0.0258
25136W        W43990   6.627  13.918  12.532  0.0956  0.0297 -0.0328
25137W        W43991   2.945  17.211   1.660 -0.1860 -0.3271 -0.1662
25138W        W43992   7.574  14.918  12.636  0.0022 -0.1245 -0.1469
25139W        W43993   8.432  14.126  10.882  0.0813 -0.0464 -0.0759
25140W        W43994   1.716   7.157   0.495  0.1566 -0.1981 -0.1608
25141W        W43995   5.555   3.739  13.119 -0.0496 -0.1610 -0.1976
25142W        W43996   5.165  12.035   1.623 -0.1723  0.2074  0.1688
25143W        W43997  12.606   8.487   1.219  0.0295  0.2427 -0.1824
25144W        W43998   4.181   7.247  13.411  0.1739 -0.1267 -0.2381
25145W        W43999  12.976  18.461   1.636  0.3066  0.0520  0.0355
25146W        W44000   6.780   1.734   4.168  0.0589 -0.0907  0.2196
25147W        W44001   8.368   7.631  11.967 -0.3436  0.0373 -0.2123
25148W        W44002  12.457   9.499  11.899 -0.2062 -0.0386  0.1872
25149W        W44003   2.856  15.470   3.140  0.1133 -0.3846  0.2073
25150W        W44004   3.010   1.541  13.439  0.1250  0.0444  0.0333
25151W        W44005  14.835  10.847  12.224 -0.2544 -0.0744 -0.0549
25152W        W44006  12.198   1.722  11.086  0.2541  0.2906  0.1303
25153W        W44007   4.347  12.007   0.189  0.1975 -0.0912 -0.1670
25154W        W44008  10.855  17.835  13.296 -0.1797  0.0629 -0.0606
25155W        W44009  14.318  11.763   0.096 -0.1995 -0.0711  0.0647
25156W        W44010  11.627  16.381  11.388  0.0234 -0.1218 -0.1361
25157W        W44011   6.688   1.584  14.763 -0.4090 -0.0213  0.1854
25158W        W44012   2.545   5.864  11.918  0.1159  0.0459 -0.0809
25159W        W44013  10.496   7.055  13.138 -0.1652  0.0106 -0.2216
25160W        W44014  15.967  10.661  14.312  0.0098  0.1855 -0.3107
25161W        W44015  18.549  17.261  11.629 -0.3917 -0.3582 -0.3256
25162W        W44016   2.777   8.035   2.403  0.0842  0.0087 -0.0431
25163W        W44017  16.909  16.924   9.298  0.0439 -0.1040  0.1980
25164W        W44018   8.829   9.804   2.736 -0.0504 -0.1711 -0.1147
25165W        W44019  13.455  14.657  14.698 -0.2004 -0.1505 -0.0736
25166W        W44020   3.401   6.113  11.893  0.0561 -0.2686 -0.2929
25167W        W44021  10.052   2.027  13.404 -0.0970  0.0806  0.1144
25168W        W44022  11.046  16.874   3.074  0.0700 -0.1175 -0.1467
25169W        W44023  15.111   8.144  12.459 -0.1499 -0.2680  0.1532
25170W        W44024   2.142  14.050  11.793  0.2108  0.0855 -0.0794
25171W        W44025  15.924  14.864  12.177  0.1543 -0.2334 -0.0048
25172W        W44026   8.539  14.792  11.979 -0.0286 -0.0395 -0.0149
25173W        W44027   9.289  17.250   3.151  0.2143 -0.2203 -0.1143
25174W        W44028  14.840   0.989  12.030  0.1331  0.1780  0.0126
25175W        W44029   0.682   1.162  11.379 -0.2108  0.0535 -0.1171
25176W        W44030   1.100  10.980  12.446  0.1508  0.3239  0.0281
25177W        W44031   2.954   4.887   1.716 -0.1058 -0.2780  0.3014
25178W        W44032   8.786  10.218   2.987  0.0980  0.0321 -0.2163
25179W        W44033  13.340  10.242   2.449 -0.0426 -0.1027 -0.1044
25180W        W44034   1.556  11.448   1.245 -0.1342  0.2140 -0.0537
25181W        W44035   4.019   4.980  13.640  0.3378  0.1037 -0.0519
25182W        W44036   0.326  10.831  11.559  0.0806 -0.1704  0.3813
25183W        W44037  10.910   4.530   3.172  0.0799 -0.0080 -0.0952
25184W        W44038   9.410   5.195   2.071  0.0776  0.0609  0.1610
25185W        W44039  14.554   6.547   1.245  0.1145 -0.0539 -0.0976
25186W        W44040   6.865  16.103   3.212 -0.2666  0.0288  0.0065
25187W        W44041  14.082   9.741  13.895  0.0438  0.0809  0.0719
25188W        W44042   2.583   7.961   1.927 -0.1073  0.2299 -0.2756
25189W        W44043   3.129  15.959  14.544  0.1036  0.1959  0.0904
25190W        W44044   6.320   2.382  10.183  0.0480  0.1240  0.1978
25191W        W44045  14.048   4.945   0.064  0.1525 -0.0520  0.3220
25192W        W44046   2.641  16.313   2.823 -0.0585  0.0714  0.0697
25193W        W44047   1.810  19.093  14.158  0.2433 -0.1510 -0.0008
25194W        W44048  11.497   8.590  14.347 -0.2787 -0.1082  0.0511
25195W        W44049   5.680   4.460   0.548 -0.0685 -0.0293  0.0400
25196W        W44050   8.880   7.563   2.692  0.1745  0.0251 -0.0896
25197W        W44051  12.566   2.149   1.461 -0.0197  0.0840  0.0195
25198W        W44052  17.606  14.379  14.502  0.3022 -0.0075 -0.2174
25199W        W44053   1.098   6.387   1.652  0.0475  0.0815  0.1302
25200W        W44054  12.121  11.069  12.252 -0.0101 -0.7186  0.1830
25201W        W44055  14.116   9.074   2.957  0.0617  0.0619  0.0056
25202W        W44056  17.226  18.670   2.055 -0.1170  0.0955 -0.0495
25203W        W44057   6.103   5.783   2.102  0.1092  0.3851 -0.1282
25204W        W44058  14.113  11.748  12.342  0.2260  0.0210  0.2976
25205W        W44059  11.359   1.128  10.981 -0.1687 -0.1534 -0.2803
25206W        W44060  11.184   3.513  10.849 -0.3276 -0.1436 -0.2955
25207W        W44061   3.006   2.855  14.520  0.1111  0.1025 -0.1251
25208W        W44062  15.691   6.667  13.037 -0.1484 -0.1808  0.0611
25209W        W44063   5.371   2.780   0.097  0.3950 -0.1043 -0.2562
25210W        W44064   6.936   4.167   1.968 -0.0257 -0.1555 -0.0441
25211W        W44065  17.834  18.760  12.675 -0.1787 -0.1149  0.2587
25212W        W44066  18.211  14.017  12.513 -0.0673 -0.0497  0.0522
25213W        W44067  12.885   8.552   3.381  0.1290  0.0114 -0.1543
25214W        W44068   6.769  14.672  11.403  0.2777 -0.0907 -0.3327
25215W        W44069  17.316   8.400  14.452 -0.0334 -0.2370  0.0149
25216W        W44070   4.953  15.343  14.376  0.0234  0.1600 -0.3002
25217W        W44071   0.565   2.868  14.513 -0.0222  0.1441  0.5149
25218W        W44072   7.019   2.321   3.305  0.2201  0.0263  0.1538
25219W        W44073  11.646  17.873   2.632  0.0319 -0.0235  0.1105
25220W        W44074   9.665  11.290  10.126 -0.4453 -0.1933  0.0519
25221W        W44075  11.481  18.599  10.449 -0.1049  0.0219  0.2314
25222W        W44076   5.801   0.898  12.260 -0.1791  0.2054  0.2307
25223W        W44077  11.879   3.332   1.096  0.0694  0.2656  0.0242
25224W        W44078   9.636   7.173   3.824  0.1684 -0.0362 -0.2798
25225W        W44079  10.013   2.141  14.136  0.1054  0.1462 -0.1733
25226W        W44080   7.097   6.542  11.509 -0.1389  0.2107  0.3136
25227W        W44081  14.341  17.336  13.424  0.0289  0.1269 -0.0872
25228W        W44082  15.982  17.190  13.395 -0.0138 -0.1903  0.2254
25229W        W44083   2.893   5.645  10.891  0.1264  0.0612  0.2349
25230W        W44084   0.909   8.475  13.150 -0.3009  0.2560  0.2726
25231W        W44085  10.926  11.393   3.422  0.0372  0.1601 -0.1565
25232W        W44086   0.597   7.578  11.892  0.1990  0.1664  0.3631
25233W        W44087   5.699   8.581  13.195 -0.1803 -0.0760 -0.0031
25234W        W44088  15.007   9.565  13.874  0.0780 -0.0282  0.0606
25235W        W44089  10.104   7.381  13.030 -0.2709  0.0154  0.3174
25236W        W44090  11.972   6.175  11.448 -0.2070 -0.1585 -0.3639
25237W        W44091  12.828   0.049  12.568 -0.3851  0.0478 -0.1850
25238W        W44092  16.671   7.872   1.230  0.2062 -0.0362  0.1366
25239W        W44093  17.314  16.002  10.308 -0.0580 -0.1742 -0.2476
25240W        W44094   0.334   1.542  13.123 -0.1310 -0.0970 -0.0218
25241W        W44095  17.435  18.495   2.522 -0.3058  0.0621 -0.0288
25242W        W44096   2.618   1.626  13.125 -0.0886  0.2542 -0.0060
25243W        W44097  16.204  16.478  12.929 -0.2500 -0.0115 -0.0772
25244W        W44098   1.569   4.598  13.267 -0.1017  0.0762  0.0956
25245W        W44099   2.712   2.190   9.696  0.0219 -0.0773  0.1226
25246W        W44100  11.505   9.940  13.947  0.1372 -0.0473  0.3373
25247W        W44101   5.162   0.699   3.186  0.2197 -0.0680 -0.1334
25248W        W44102  14.311  12.688   1.119  0.0213 -0.0717 -0.0027
25249W        W44103  15.439   7.277  10.598  0.1595 -0.0338 -0.1238
25250W        W44104   3.879   4.992   1.989 -0.1230  0.2170 -0.1561
25251W        W44105   1.377  15.674   2.208 -0.0512 -0.0440 -0.1035
25252W        W44106  13.483   9.221   0.270  0.0130  0.2599  0.1898
25253W        W44107   8.093  16.391   3.761  0.0463 -0.2967  0.2541
25254W        W44108   7.459   3.282  10.933  0.0771  0.1936 -0.0554
25255W        W44109  19.150  10.781  14.514  0.0143 -0.0688 -0.1568
25256W        W44110  18.286   4.765   2.761  0.2411 -0.0742  0.4940
25257W        W44111  18.588   9.900   3.337 -0.2359  0.3131 -0.2800
25258W        W44112   8.811   5.447  11.428  0.1938 -0.2396  0.3814
25259W        W44113   7.700  17.893   0.904  0.2454  0.0746 -0.0903
25260W        W44114  18.945   5.342  12.130  0.5266 -0.2584  0.0067
25261W        W44115   4.611  11.329   9.854 -0.2162  0.1739  0.0222
25262W        W44116  11.942   1.548   0.130  0.1741 -0.4399  0.1718
25263W        W44117  11.210   1.765  11.061 -0.2772 -0.1092  0.1127
25264W        W44118  12.338  13.469   0.669  0.3143 -0.3617 -0.1088
25265W        W44119   7.233   8.859  12.038  0.0321  0.1011 -0.1938
25266W        W44120  10.134  15.156  10.636  0.0665 -0.1316 -0.1532
25267W        W44121  11.374   2.562   2.267 -0.0719  0.1199 -0.0894
25268W        W44122   3.417  13.354  13.445 -0.0137 -0.0761  0.3527
25269W        W44123  10.084   0.620   3.336  0.0661 -0.0931  0.4522
25270W        W44124   8.610   2.889  14.087 -0.0166 -0.2979 -0.0416
25271W        W44125  15.553   4.734  12.855 -0.2695 -0.0902  0.0905
25272W        W44126   1.401   2.779   0.702  0.0649 -0.2171  0.0994
25273W        W44127   1.833  11.179  11.972 -0.0140  0.1825 -0.1179
25274W        W44128  17.769   4.837   4.236  0.2868  0.1773 -0.0477
25275W        W44129   7.585   1.029  13.133  0.0741  0.0437 -0.0978
25276W        W44130   4.761   1.340  13.534 -0.0132 -0.1259 -0.2359
25277W        W44131   4.659  17.598  12.510  0.1440 -0.1336 -0.0302
25278W        W44132   3.363   2.390   3.018  0.1643  0.0316  0.2372
25279W        W44133  17.906   2.240  11.976 -0.0174  0.1646 -0.0787
25280W        W44134  12.996   0.192  11.625  0.1128 -0.0669 -0.1870
25281W        W44135  17.534   2.627  12.685  0.1567 -0.0461  0.0645
25282W        W44136  11.054   2.826  11.324 -0.1100  0.0032  0.2214
25283W        W44137   8.058  14.631   4.031 -0.1983 -0.2532  0.0551
25284W        W44138   3.934   1.545  13.203 -0.0020 -0.1093 -0.1235
25285W        W44139  18.545   6.023  11.598  0.1988  0.0059  0.0230
25286W        W44140   6.153   3.311   3.226 -0.2099  0.2084 -0.1820
25287W        W44141   1.162   5.465  13.199  0.2950 -0.3852  0.3406
25288W        W44142   9.024   6.690  11.969 -0.2261 -0.0173  0.0854
25289W        W44143   6.193   9.909   3.255  0.1328  0.1693 -0.0393
25290W        W44144   7.671   8.283  13.170 -0.2862 -0.0606 -0.0285
25291W        W44145  18.264  12.935  11.132  0.1036  0.3012 -0.0151
25292W        W44146   2.059   0.951   1.293 -0.1907  0.0650  0.1360
25293W        W44147   9.666  14.825   0.450 -0.5820  0.1769  0.1855
25294W        W44148   8.386   7.969  13.065 -0.0236 -0.0151  0.2908
25295W        W44149  15.148  18.596  12.114  0.1819 -0.1258  0.1609
25296W        W44150  18.586   8.987   0.335  0.1594  0.2182  0.2268
25297W        W44151  12.754   1.692  14.750 -0.1824  0.1166  0.0887
25298W        W44152   7.056   5.619  11.913  0.0701 -0.4970  0.2177
25299W        W44153   2.750  12.599   0.264  0.0147  0.4317  0.1243
25300W        W44154  12.745  13.317   1.890 -0.1465 -0.0241 -0.2266
25301W        W44155   2.998   7.310  12.782 -0.1558 -0.1089  0.1560
25302W        W44156  10.776  17.987  10.837  0.1914  0.3140  0.0788
25303W        W44157   1.910  16.206  14.155 -0.2298 -0.0138  0.3110
25304W        W44158  18.605   3.012   4.125  0.1053  0.1187  0.0769
25305W        W44159  13.743   3.775   1.938 -0.2117  0.3557 -0.2410
25306W        W44160   7.381   2.539  12.365  0.0886  0.0599 -0.0115
25307W        W44161   3.123  13.647   3.576 -0.1192 -0.0175 -0.1056
25308W        W44162   7.822   3.584   1.020 -0.2146 -0.1977  0.0111
25309W        W44163   9.108   1.418   1.804  0.4011  0.1533  0.0659
25310W        W44164  18.163   2.420  14.372 -0.1083 -0.0365 -0.1521
25311W        W44165   8.456  17.686   4.215  0.2952  0.0543  0.0906
25312W        W44166  12.636  10.605   1.162 -0.0645  0.0058  0.4143
25313W        W44167  13.735   1.208  11.128 -0.1914 -0.1300  0.0755
25314W        W44168  12.269  18.423   0.554 -0.0416 -0.1644  0.1099
25315W        W44169   2.785  13.820   2.221 -0.2244  0.0817  0.2074
25316W        W44170   1.755  14.461   3.964 -0.1069 -0.0264  0.3600
25317W        W44171   5.229   1.425   1.455 -0.0084 -0.1159 -0.0098
25318W        W44172   8.221   2.257  13.410 -0.0865 -0.2655  0.1023
25319W        W44173   2.684  14.356   1.878 -0.1031 -0.3081 -0.0170
25320W        W44174  18.106  15.808   0.142  0.3829  0.1518  0.1855
25321W        W44175  13.963  15.978   3.093  0.0299  0.1526 -0.1959
25322W        W44176  11.265  10.904   0.399 -0.1450 -0.0373  0.0387
25323W        W44177   0.955  10.148   1.725  0.0669  0.4947 -0.1758
25324W        W44178  17.956   7.664  14.646 -0.1172 -0.2435  0.1787
25325W        W44179   3.098  14.615   1.881  0.2953 -0.2503 -0.1724
25326W        W44180   1.200  14.880  13.061 -0.1857  0.2806 -0.3514
25327W        W44181   7.161  18.292   3.415 -0.2860  0.0173 -0.0792
25328W        W44182   6.669  18.858  14.127  0.1461  0.0040  0.2060
25329W        W44183  16.226   6.504  12.812 -0.2249 -0.0704 -0.1068
25330W        W44184   2.801   0.513   0.298 -0.2509 -0.2956 -0.0315
25331W        W44185  13.204   0.901   3.169 -0.2640  0.2537 -0.0773
25332W        W44186   1.948  14.424   0.624  0.1255  0.0179 -0.1039
25333W        W44187  11.682  17.598   3.059  0.2644  0.2433 -0.0334
25334W        W44188  14.309   0.223   3.675 -0.2714  0.0717  0.1152
25335W        W44189  12.416  18.049   3.092 -0.1619  0.5956 -0.0668
25336W        W44190   8.427  16.919   2.955  0.1168  0.0312  0.2096
25337W        W44191  17.785   3.432  13.278  0.3775  0.1830 -0.0224
25338W        W44192   0.448   3.676  11.150 -0.0748  0.0692  0.1058
25339W        W44193   8.401  19.147  11.897  0.1101  0.0138 -0.2805
25340W        W44194   3.016  10.005   3.452 -0.0759 -0.1726 -0.0371
25341W        W44195   4.654   0.686  11.289 -0.1295  0.1236 -0.2390
25342W        W44196   8.542   7.106  12.779  0.2436 -0.3199 -0.2457
25343W        W44197  14.473   6.421  10.887  0.3884  0.1670  0.5159
25344W        W44198   4.496   3.008   3.888  0.1025  0.0425  0.1021
25345W        W44199  11.028  12.805  10.497 -0.1067 -0.1631  0.0921
25346W        W44200   1.109  14.296   1.899 -0.0840  0.1747  0.1344
25347W        W44201  10.164   1.562   9.416  0.0804  0.1471 -0.1205
25348W        W44202   0.906  14.370   4.367 -0.1575  0.0532  0.1793
25349W        W44203  14.546   3.946   9.726 -0.0396  0.1885  0.5330
25350W        W44204   9.316  16.874  13.063  0.0407  0.0642 -0.0258
25351W        W44205   4.852  14.727  11.877  0.0864  0.0249 -0.1070
25352W        W44206  12.289  11.583  11.588 -0.1208  0.0633  0.0907
25353W        W44207   8.581   1.651  14.630  0.0285 -0.1163 -0.2699
25354W        W44208   9.016   3.351   0.516 -0.0528  0.1258  0.5535
25355W        W44209  14.714   8.575   4.707  0.0082 -0.1215  0.1498
25356W        W44210   4.023  16.626  12.764  0.0259 -0.0664  0.0427
25357W        W44211  17.497   3.822   2.162 -0.0002  0.0058  0.1120
25358W        W44212  16.095  15.790   2.837  0.0041  0.0027 -0.0843
25359W        W44213   6.569   1.237   0.327  0.0551 -0.2938 -0.0315
25360W        W44214  10.112  18.756   1.864 -0.2028 -0.0430  0.0096
25361W        W44215  16.574   2.343   0.221 -0.0544 -0.0762  0.1146
25362W        W44216   4.704  17.599   1.083  0.0550  0.0667  0.1624
25363W        W44217   2.182   8.442   3.569 -0.1318  0.1063  0.2955
25364W        W44218  14.846   9.446   0.286 -0.0319  0.0596 -0.1927
25365W        W44219  10.990   3.409  12.617 -0.1437 -0.1357 -0.1588
25366W        W44220  15.134  13.294   0.322  0.0096  0.0139  0.3964
25367W        W44221   3.182  11.553  12.982  0.1229 -0.3297 -0.4565
25368W        W44222   9.215   7.909   2.390  0.0020 -0.0910 -0.0929
25369W        W44223   6.766  12.297   4.662  0.0812 -0.0971 -0.0150
25370W        W44224  10.099  13.523   3.619 -0.0610 -0.0131 -0.0783
25371W        W44225  14.012   6.829   3.209 -0.3265 -0.2273  0.2225
25372W        W44226  18.248   1.725   9.655  0.0835 -0.1790 -0.0683
25373W        W44227   5.114   8.287   0.236 -0.1703 -0.0938 -0.1084
25374W        W44228  14.657   3.502   4.033  0.2089  0.1575  0.2721
25375W        W44229   1.988   6.445  11.522 -0.0230 -0.1121 -0.0892
25376W        W44230   5.989   0.899  14.266 -0.1343  0.0695  0.1853
25377W        W44231  13.505  12.895   3.208  0.1216  0.1017 -0.0745
25378W        W44232   2.339  18.537  13.090 -0.2202 -0.0253 -0.1359
25379W        W44233   7.023  13.280   0.815 -0.1902  0.0373  0.1712
25380W        W44234   3.497   1.254  11.404 -0.3568  0.0164  0.0951
25381W        W44235  13.710   3.785   3.847  0.2161 -0.0974 -0.2445
25382W        W44236   1.650   4.455  11.038  0.0931 -0.3234 -0.2006
25383W        W44237  17.301  15.775  11.083  0.3303 -0.3114 -0.1985
25384W        W44238   9.898  17.802  13.395  0.0876  0.1667 -0.3107
25385W        W44239  16.320   2.555  14.610  0.1994  0.0589  0.0091
25386W        W44240  11.288  11.688  13.329 -0.1596  0.1657  0.2022
25387W        W44241  17.410   1.605  14.480  0.0815 -0.0219  0.1209
25388W        W44242   2.268  17.120  13.055  0.0304 -0.0935  0.1662
25389W        W44243   1.314  17.395   5.339  0.0955 -0.0760 -0.2124
25390W        W44244   8.256   8.704  12.142  0.1871 -0.1681 -0.1895
25391W        W44245  12.761   8.912  13.320  0.0540 -0.0263 -0.0267
25392W        W44246  11.292   8.245   1.754  0.0163  0.0720 -0.1942
25393W        W44247   1.682   3.427  13.976  0.0298 -0.0474  0.1431
25394W        W44248  13.736  15.312   1.614 -0.0880 -0.2891  0.1093
25395W        W44249   2.732  19.106  10.719  0.0990  0.1776 -0.0712
25396W        W44250   7.378  14.806  13.338 -0.0561 -0.0770 -0.0847
25397W        W44251   3.821  17.345  13.333 -0.0414  0.1076  0.1556
25398W        W44252  16.113   8.809   1.153  0.3548 -0.3827  0.2113
25399W        W44253   0.457  11.936  10.666 -0.0927  0.0469 -0.1352
25400W        W44254   1.888   4.062  13.078  0.3207  0.1612 -0.1086
25401W        W44255   2.563   7.823  12.910  0.0879  0.3061  0.3309
25402W        W44256  13.568   4.894  14.723  0.0850  0.0410 -0.0787
25403W        W44257   3.104   6.476   1.324 -0.2010  0.2155  0.1892
25404W        W44258   6.853  14.618  12.186 -0.1171  0.0477  0.0401
25405W        W44259  18.362   2.026  14.066  0.0226 -0.0273 -0.1508
25406W        W44260   1.185   7.078  11.562 -0.1164  0.0050 -0.3255
25407W        W44261  17.319   0.338   1.336  0.0940 -0.1386 -0.2786
25408W        W44262  17.116   5.085   2.103 -0.0189 -0.1266 -0.2082
25409W        W44263   8.388  10.852  11.042  0.0875  0.1477 -0.1427
25410W        W44264  11.140  19.123  10.596  0.3745 -0.0403  0.0374
25411W        W44265   4.142   0.836  11.340  0.0404 -0.1651  0.3897
25412W        W44266   5.713   9.565  13.704  0.0646  0.2054  0.3742
25413W        W44267  17.251  15.834   3.642 -0.2465  0.1027  0.0537
25414W        W44268   1.515  12.256  14.741  0.0785  0.0395 -0.1834
25415W        W44269   3.166  15.888  11.653 -0.1861  0.1339  0.0898
25416W        W44270   7.580  11.810  14.296  0.0456  0.0162 -0.0263
25417W        W44271   4.933   5.174   0.676  0.0875 -0.0482 -0.1863
25418W        W44272  16.875   1.655  10.911 -0.0464 -0.2106  0.1157
25419W        W44273  16.466  16.839   3.368 -0.2392 -0.1974 -0.0588
25420W        W44274  14.622  11.559   4.115 -0.2621  0.0341  0.0177
25421W        W44275   3.899   1.868  13.576  0.2221 -0.0740  0.0777
25422W        W44276   9.575  17.011   2.827 -0.0719  0.1272  0.0566
25423W        W44277   8.046   8.632  14.543 -0.0498 -0.0047 -0.2321
25424W        W44278   8.492   4.690  14.443  0.1033 -0.3123 -0.3539
25425W        W44279   6.615  11.935   1.227 -0.2811 -0.2428 -0.0746
25426W        W44280   4.604  16.453   0.859 -0.1281 -0.0114 -0.0950
25427W        W44281  11.102   4.676  12.994 -0.3680  0.0081 -0.2430
25428W        W44282  11.641  16.970  13.281 -0.1449  0.1049 -0.0049
25429W        W44283   8.292  14.572  11.175 -0.0649  0.2723  0.1035
25430W        W44284   2.732  18.512  12.189  0.2286  0.0930 -0.0915
25431W        W44285   7.642  11.240   1.228  0.2625 -0.1922  0.1673
25432W        W44286   6.193   7.528   2.737 -0.0219  0.2454  0.0844
25433W        W44287  12.232  15.470   0.108 -0.1640 -0.1323  0.4104
25434W        W44288  17.289   3.313   0.327 -0.0503  0.2323  0.1077
25435W        W44289   1.685   8.421  11.959 -0.1770  0.0846 -0.2082
25436W        W44290  15.681  11.471  11.403 -0.0278 -0.2471 -0.0023
25437W        W44291   1.154   5.970  11.442  0.2556  0.3357  0.0997
25438W        W44292  10.211   4.385  11.729 -0.2319 -0.0144 -0.2202
25439W        W44293   2.849  19.154   1.279  0.1411 -0.0019 -0.2492
25440W        W44294   1.879  13.529  14.681  0.0234  0.3633 -0.1862
25441W        W44295   4.329   8.560  13.943  0.0065 -0.3230  0.3092
25442W        W44296   4.674  17.683   2.857  0.3282 -0.2715 -0.0795
25443W        W44297   1.073  17.199   3.062 -0.2529  0.1087 -0.1915
25444W        W44298   7.477   3.616  12.457  0.0466  0.3162 -0.3019
25445W        W44299  14.576  10.963   1.121 -0.2002  0.2237  0.2023
25446W        W44300   9.318  16.318   0.919 -0.0874  0.0649 -0.1945
25447W        W44301  16.760  12.291   2.445 -0.1267 -0.0002 -0.0541
25448W        W44302  10.873  11.743   2.071  0.4511  0.1342  0.1435
25449W        W44303   9.573   0.851   3.816  0.0924  0.2145  0.1515
25450W        W44304   3.118  12.470  12.437  0.1854 -0.1149  0.0854
25451W        W44305   0.169  18.109   4.283  0.3056 -0.2541  0.1356
25452W        W44306   4.494  13.010  13.139 -0.0196  0.1195  0.1284
25453W        W44307  10.084  10.275  14.489 -0.1063 -0.2121 -0.2051
25454W        W44308  15.266   3.505   3.545 -0.0227  0.2453  0.3317
25455W        W44309  14.671   7.225   0.588 -0.0846  0.2022  0.2133
25456W        W44310   1.833   6.548  10.970  0.0971 -0.0809 -0.1522
25457W        W44311  11.842  14.888   0.863 -0.0299  0.1512 -0.0548
25458W        W44312  11.992  12.645   1.352  0.2243  0.2660 -0.1359
25459W        W44313   2.267   2.648   0.360 -0.2814 -0.1425 -0.0453
25460W        W44314  14.423   2.192  12.724  0.2194 -0.1487 -0.0255
25461W        W44315  12.500   3.500  14.402  0.1228  0.2596 -0.0683
25462W        W44316   5.493   1.156  11.069  0.1927  0.0535 -0.1269
25463W        W44317  11.401   9.558   3.219 -0.4334 -0.1434  0.3352
25464W        W44318  14.707  15.735  10.764  0.2565 -0.1228 -0.1636
25465W        W44319   0.765   7.465   4.197  0.1253 -0.0397  0.0951
25466W        W44320   4.544   4.353   1.499  0.1240 -0.1309 -0.0899
25467W        W44321   8.680   2.244  14.630  0.2068 -0.0267  0.4015
25468W        W44322   4.623   3.274  10.439 -0.3376 -0.1776 -0.0152
25469W        W44323   9.959   1.479  11.330  0.2051  0.2234  0.2471
25470W        W44324  13.915   9.361   0.079  0.0752 -0.2565  0.2763
25471W        W44325  16.456   0.246   2.442 -0.2082 -0.1274  0.0796
25472W        W44326   7.661  17.472  10.828  0.2481 -0.0300 -0.0142
25473W        W44327  13.460   7.293  12.136  0.0243 -0.2006 -0.0955
25474W        W44328   2.171   7.194  13.498 -0.2248  0.0088 -0.1391
25475W        W44329   2.323  16.942  14.756  0.0646 -0.1258  0.0176
25476W        W44330   6.812  11.284  11.519  0.1045 -0.0468  0.1853
25477W        W44331   4.193   6.428  12.296 -0.2707  0.0207  0.3010
25478W        W44332   3.713   8.566  14.562 -0.0304 -0.3331 -0.1210
25479W        W44333   8.246  17.702   0.071 -0.4239  0.3266  0.1512
25480W        W44334   2.081   2.138  13.489  0.0240 -0.0253  0.2202
25481W        W44335   4.078  17.794   5.100  0.0624  0.1701 -0.0140
25482W        W44336   6.631  10.222   2.975  0.2010  0.1830 -0.1637
25483W        W44337   0.043  15.855  11.403  0.1414 -0.4197 -0.2401
25484W        W44338   8.262  18.525   0.579 -0.1388 -0.0904 -0.1745
25485W        W44339   7.925  10.472   2.893 -0.0995  0.0486 -0.2923
25486W        W44340   7.112   3.668  12.903  0.1890 -0.4555 -0.1719
25487W        W44341  11.746   2.341   1.126 -0.0966  0.0855 -0.1751
25488W        W44342  12.833  12.922  10.920 -0.5039 -0.2060  0.0927
25489W        W44343   7.484   9.168   3.720 -0.2546  0.2700  0.2166
25490W        W44344   9.173   0.456  12.099 -0.0694 -0.2619 -0.4835
25491W        W44345   6.001  14.882   0.718  0.1411 -0.0544  0.0047
25492W        W44346  15.836  11.729   5.409 -0.1601  0.0486 -0.2042
25493W        W44347   6.118   6.213   0.684 -0.1724 -0.0280  0.2238
25494W        W44348   7.292  18.333  13.793  0.3673 -0.1251 -0.1089
25495W        W44349   0.239   1.357  11.518  0.2416  0.2743  0.0603
25496W        W44350  10.119  15.571  14.078  0.3206  0.1748 -0.0261
25497W        W44351  13.584   8.749  13.023 -0.2940 -0.0720  0.0611
25498W        W44352  18.365  14.897  13.057 -0.0391 -0.2541 -0.0888
25499W        W44353   4.546   9.524   4.159  0.2813  0.2603 -0.0146
25500W        W44354   0.717  12.427   0.304  0.1758  0.1394  0.2500
25501W        W44355   8.362  14.455  11.661  0.0956  0.1216  0.3494
25502W        W44356   2.001   3.120  12.525 -0.2778  0.0453 -0.0907
25503W        W44357   2.877   9.732  12.346  0.1283 -0.0832  0.1268
25504W        W44358  12.878  11.474  13.397 -0.0360 -0.0703 -0.3406
25505W        W44359   1.197   1.297  11.745 -0.1452  0.0506  0.1435
25506W        W44360  14.622  15.227  11.495 -0.1265 -0.0575 -0.0597
25507W        W44361  14.190   3.156  14.363  0.1642  0.1615  0.1100
25508W        W44362   8.446  15.725  11.212  0.1086  0.0687  0.1990
25509W        W44363   1.927  10.492  13.221  0.1773 -0.1164 -0.1528
25510W        W44364  14.714   9.701   2.952 -0.5504 -0.1841  0.0290
25511W        W44365   3.584   4.901   3.466  0.2196 -0.0605 -0.0438
25512W        W44366   1.121  17.544  11.483 -0.0234 -0.2567 -0.0963
25513W        W44367   3.602   2.304  12.574 -0.1204 -0.1905 -0.1134
25514W        W44368  16.924   3.490   0.795  0.1971  0.1921 -0.2754
25515W        W44369   3.912   9.298   3.957  0.1419 -0.1367 -0.1459
25516W        W44370  12.403   0.942  11.264  0.0764  0.0400 -0.2310
25517W        W44371  18.958   0.272   3.328  0.1804 -0.3922  0.5659
25518W        W44372   2.328  12.282  11.867 -0.0721  0.0224  0.1078
25519W        W44373   4.463  15.625  13.481 -0.1456 -0.1677  0.0361
25520W        W44374  14.199  16.148  11.439 -0.4469  0.1026  0.0813
25521W        W44375   2.997   6.642  13.523 -0.1585  0.2009  0.1197
25522W        W44376   3.560  16.166   2.232 -0.1706 -0.0661 -0.2571
25523W        W44377   6.635  13.971  11.620  0.4485  0.0568  0.1618
25524W        W44378  15.768   5.390  11.215  0.0088 -0.0211  0.0053
25525W        W44379  15.270   7.088  14.549 -0.2446  0.2165 -0.0519
25526W        W44380  14.949   1.081  10.779  0.4449  0.1611  0.0509
25527W        W44381  10.154  15.027  12.825 -0.2529  0.2747  0.1229
25528W        W44382  15.908  11.286   3.173 -0.1026 -0.0358 -0.2775
25529W        W44383   5.210  17.507   0.143  0.1143  0.2309  0.1695
25530W        W44384   2.438  17.008   3.390  0.0490  0.0168  0.0762
25531W        W44385   1.844   2.684  12.780 -0.1959 -0.0005 -0.0970
25532W        W44386   1.233   8.569   4.232  0.0730 -0.1754  0.0519
25533W        W44387   0.505  14.448   1.637  0.1953 -0.2997  0.0310
25534W        W44388  16.308  16.816  13.372  0.0016  0.2760  0.1685
25535W        W44389  12.052   5.110   2.460  0.0534  0.2759  0.1243
25536W        W44390  13.681   3.320  14.155 -0.1147 -0.0883 -0.2053
25537W        W44391   1.808  14.383  11.645  0.1500 -0.1050  0.0839
25538W        W44392  13.204  17.555   3.688 -0.0113  0.0194  0.0658
25539W        W44393  14.217  11.546  14.361 -0.0709 -0.1116 -0.2490
25540W        W44394   5.127   5.292   1.311  0.2694 -0.1913 -0.3125
25541W        W44395  13.311   0.970  13.895  0.0007  0.0097  0.2491
25542W        W44396  17.389   7.550   3.076  0.1802 -0.0026  0.2147
25543W        W44397  15.451  17.995  13.671  0.1679  0.1633 -0.2828
25544W        W44398   0.126   8.012  13.747  0.2309  0.5079 -0.2313
25545W        W44399   9.792   7.715  11.671  0.1084  0.2899 -0.1394
25546W        W44400   1.101   0.441  14.054 -0.1330  0.0054  0.4329
25547W        W44401   6.353   1.179  14.014  0.4665 -0.1463 -0.0441
25548W        W44402  12.080   7.251   2.258  0.0985 -0.0704 -0.0204
25549W        W44403  14.499  15.890  12.840  0.2940 -0.1033  0.1276
25550W        W44404  17.402   8.650   1.926  0.1493 -0.1100  0.0473
25551W        W44405   6.666   9.062   1.772  0.0364  0.1687 -0.3713
25552W        W44406  16.009  17.150  11.416 -0.0911 -0.0038  0.1344
25553W        W44407   5.202   9.647  13.658 -0.1477 -0.0183 -0.0078
25554W        W44408  10.351   5.729  13.877  0.0074 -0.0317 -0.0893
25555W        W44409  18.417   9.048   4.986 -0.0307  0.0792  0.2889
25556W        W44410   8.928   1.453  11.602  0.2231  0.0308  0.1407
25557W        W44411   4.169  10.055   1.153 -0.1615  0.0648  0.3164
25558W        W44412  16.335   3.724   1.557 -0.2683 -0.1662  0.1520
25559W        W44413  18.465   8.704  13.485 -0.2581 -0.4809  0.0155
25560W        W44414  17.228  16.174   0.802  0.0727 -0.0103 -0.0550
25561W        W44415   4.107  16.845  11.598 -0.1953 -0.1003  0.0684
25562W        W44416  11.206   8.597  13.893  0.1874  0.1040 -0.1215
25563W        W44417  12.937  15.231   1.315 -0.1026  0.2764  0.0689
25564W        W44418  17.115  14.595  14.554  0.2292  0.1704 -0.1770
25565W        W44419   5.039  13.234  11.808 -0.0321  0.2394  0.0902
25566W        W44420  10.670   9.749  10.120 -0.0063  0.2075  0.0789
25567W        W44421   4.976   7.565   0.859 -0.2254  0.0450  0.1266
25568W        W44422   3.072   5.674   2.071  0.4775  0.1495 -0.0436
25569W        W44423  15.158  13.344   4.057 -0.1687  0.0955 -0.1114
25570W        W44424   7.717  12.253  14.641 -0.1721 -0.3617 -0.0260
25571W        W44425   5.063  12.548   1.332  0.0947 -0.0844 -0.0922
25572W        W44426  18.244  12.382  11.271  0.2778 -0.1606  0.0845
25573W        W44427  18.754   7.622  10.050 -0.1989 -0.1563 -0.1679
25574W        W44428   1.487   7.451  11.793 -0.1647 -0.0287 -0.1444
25575W        W44429  13.289   5.773   2.832 -0.1780  0.1536 -0.0599
25576W        W44430   5.946  12.954  13.389  0.0927  0.2172  0.1012
25577W        W44431   6.035   6.120   4.035  0.1636  0.0560  0.1152
25578W        W44432  11.089  15.043   4.424 -0.0430  0.1553  0.1425
25579W        W44433  11.925  11.096  10.606  0.2247  0.2283 -0.0277
25580W        W44434  17.027   6.086   0.004 -0.0796  0.0487 -0.0768
25581W        W44435   7.053   1.572  12.236  0.3564 -0.3010 -0.0693
25582W        W44436  12.314  10.767   1.627  0.0041  0.3420  0.0286
25583W        W44437   5.164   1.230   3.263 -0.2646 -0.0680 -0.1814
25584W        W44438   6.542   1.712  11.332 -0.0784  0.0164 -0.2082
25585W        W44439   8.491  14.682   0.218  0.0026 -0.3401 -0.3169
25586W        W44440   6.299   6.962  13.561  0.2837 -0.1151  0.4484
25587W        W44441   9.874  18.086   4.032 -0.1102 -0.1297  0.1094
25588W        W44442   9.183   1.643  12.897 -0.0056  0.3464  0.1821
25589W        W44443   7.938  15.913   0.079  0.0775  0.2976  0.0549
25590W        W44444  19.035   3.749   3.331 -0.1023 -0.0292  0.1090
25591W        W44445   9.378  16.843  10.327 -0.2495  0.0884 -0.0511
25592W        W44446   0.658  18.533  12.314  0.1153  0.3577  0.1879
25593W        W44447   6.675   4.292   3.836 -0.0452 -0.0110 -0.0778
25594W        W44448   6.762  12.631   2.823  0.1307  0.0206  0.0795
25595W        W44449  14.067  17.081   2.949 -0.0825  0.2520 -0.1711
25596W        W44450  10.185   1.658   2.479 -0.0692  0.0755  0.0120
25597W        W44451   8.349   6.775  13.092  0.0440 -0.2227  0.0373
25598W        W44452   5.738   2.632   3.832 -0.0943  0.0237  0.1295
25599W        W44453  12.531  15.191  11.276  0.1599 -0.1408  0.0399
25600W        W44454   7.703   1.869   9.620  0.0854 -0.0466  0.1854
25601W        W44455  17.385   5.812   2.823  0.0629 -0.0961 -0.3156
25602W        W44456   3.073  13.888  12.946  0.0956 -0.1031  0.0541
25603W        W44457   0.988   8.532  12.685 -0.2691  0.0295 -0.0144
25604W        W44458  12.116  18.393   3.329 -0.1146  0.0239  0.4246
25605W        W44459  15.322  10.545   0.423 -0.1505  0.1811 -0.1669
25606W        W44460  14.315   6.244   5.362  0.0299 -0.1756  0.2430
25607W        W44461  10.610   2.995   2.067  0.3462  0.0773 -0.0876
25608W        W44462   5.059   8.404  11.902 -0.3215  0.1646  0.0093
25609W        W44463   4.587  11.563  10.689  0.3654  0.2174 -0.1545
25610W        W44464   1.924   7.311  11.531 -0.5034 -0.1705  0.1047
25611W        W44465  13.363   2.076   2.587 -0.2503  0.0872  0.1104
25612W        W44466   3.042  12.687   3.425 -0.0502 -0.0053 -0.2884
25613W        W44467   5.491  16.601  13.955  0.2439  0.1084 -0.3143
25614W        W44468  13.615   9.710   2.533  0.3432  0.0652 -0.0351
25615W        W44469  12.356   1.917   0.117 -0.3530 -0.0950  0.0530
25616W        W44470  14.122  15.718  14.652 -0.0116  0.3077  0.0333
25617W        W44471   4.566   0.513  12.164  0.2613 -0.0035 -0.1511
25618W        W44472   8.284   7.352   1.396 -0.2389 -0.1975 -0.0237
25619W        W44473   6.000  12.917   2.697  0.0220 -0.4173  0.0255
25620W        W44474   5.898   1.566  10.716 -0.0324 -0.0376 -0.1910
25621W        W44475   8.609   5.829  13.088  0.4224 -0.5406  0.4536
25622W        W44476  10.300   5.484  12.576 -0.0939 -0.1119  0.0102
25623W        W44477  13.205  16.770  14.160  0.1607  0.1055  0.0993
25624W        W44478   7.271   1.510  10.713  0.2236 -0.0970 -0.0027
25625W        W44479   3.265   9.905  11.531 -0.4956  0.0630 -0.0949
25626W        W44480   8.271  10.083   2.931 -0.0048 -0.3302 -0.2909
25627W        W44481   5.306   8.310   3.435 -0.2187  0.0717 -0.3349
25628W        W44482  13.316  13.401  13.395 -0.2971 -0.0627 -0.1294
25629W        W44483   7.913  16.768   3.058  0.0625 -0.0535 -0.0385
25630W        W44484  18.250   6.958   0.590 -0.0197 -0.0258  0.0434
25631W        W44485   6.970  11.982   2.171  0.0324 -0.0161 -0.1876
25632W        W44486   5.445   6.529   9.646 -0.2020 -0.2440  0.0821
25633W        W44487   5.939   1.053   2.159 -0.1675 -0.0794  0.1270
25634W        W44488   1.248   2.110  14.789 -0.1679 -0.0410  0.0975
25635W        W44489   2.824  12.889  11.335  0.2294  0.2117  0.2735
25636W        W44490  10.311  17.605   3.172  0.2989  0.1092 -0.2042
25637W        W44491   4.728   3.754  13.796 -0.0208  0.0562  0.2589
25638W        W44492  11.873  10.437   1.703 -0.3362  0.0110  0.1228
25639W        W44493  16.509   1.257   0.926 -0.0799  0.0986 -0.1344
25640W        W44494   4.829  17.944  10.620 -0.3061 -0.0673 -0.1252
25641W        W44495  17.895   4.734   1.689 -0.0607 -0.2495  0.2402
25642W        W44496   0.937   9.124   3.781  0.2489  0.0986  0.3883
25643W        W44497   9.605  15.082  13.017  0.0126  0.0520  0.3708
25644W        W44498  18.643  14.207   4.094  0.1651 -0.0447  0.3219
25645W        W44499  19.129   3.431   2.339 -0.1625  0.0570  0.1757
25646W        W44500   9.426   7.573   4.243 -0.0377 -0.1133  0.0415
25647W        W44501   3.377   0.772   2.851 -0.1133  0.0782  0.1897
25648W        W44502  12.937   7.788   4.346 -0.4259 -0.1522  0.1558
25649W        W44503   5.758  17.082   3.003 -0.1475 -0.1382 -0.2017
25650W        W44504   2.643  11.299  13.149 -0.2647  0.1378 -0.1273
25651W        W44505   1.648   5.180   0.250  0.1078 -0.0398 -0.0015
25652W        W44506  13.754   8.803   5.406 -0.1943  0.0525 -0.0135
25653W        W44507   0.772  17.673   3.282 -0.1469  0.0067 -0.0545
25654W        W44508  15.677   3.254  10.409 -0.0369 -0.1794 -0.1866
25655W        W44509  12.204  11.977  12.537 -0.1504  0.2405 -0.1491
25656W        W44510   3.096   5.297  10.396  0.1465 -0.0933 -0.2393
25657W        W44511   2.681  17.553   2.604  0.2063 -0.2120  0.0012
25658W        W44512   5.964  12.374  10.879 -0.3219 -0.2802  0.1788
25659W        W44513  18.769   7.888  13.120  0.4201 -0.0708 -0.3071
25660W        W44514  13.601  10.142   4.064 -0.1882  0.1846  0.1318
25661W        W44515  13.512  17.680  11.236 -0.1424  0.0076 -0.1046
25662W        W44516   3.004  12.013   0.936 -0.0321  0.1074  0.3841
25663W        W44517  16.507   2.078  14.259 -0.4059  0.1670 -0.3205
25664W        W44518  12.766  10.637   0.646 -0.1938  0.0702  0.0666
25665W        W44519  15.527  11.987  14.194 -0.0582  0.0651  0.0544
25666W        W44520   7.895   1.265   4.983  0.2488 -0.0728  0.0195
25667W        W44521   2.217  10.253   2.505  0.1160  0.0303 -0.0458
25668W        W44522   9.419  11.515   3.657 -0.0422  0.0995  0.0708
25669W        W44523   8.318   0.405  12.320 -0.0252  0.1462 -0.1717
25670W        W44524   3.394  11.006   3.532 -0.2129 -0.2330  0.1629
25671W        W44525   8.919   8.177  11.322  0.0073  0.3698  0.0027
25672W        W44526   8.292  16.089  14.445 -0.0219 -0.4346 -0.0476
25673W        W44527  15.300   1.653  11.413 -0.0648 -0.0352  0.2262
25674W        W44528  17.746   8.457   5.351  0.2587 -0.0341 -0.0778
25675W        W44529  15.895  13.693  13.570 -0.1106  0.0640 -0.0617
25676W        W44530   4.822  14.308  13.297  0.3430  0.2961 -0.0956
25677W        W44531   4.420   2.520  12.302 -0.2914 -0.6797 -0.2430
25678W        W44532  12.478   9.782   1.198  0.2939  0.2201  0.2331
25679W        W44533   2.467   0.036  13.631 -0.4015  0.1848 -0.0268
25680W        W44534  11.219   9.757  13.452  0.0197  0.0936 -0.0793
25681W        W44535  16.428   0.941   3.017 -0.2278 -0.1416 -0.0534
25682W        W44536  10.789   4.885  12.580 -0.1897  0.0751 -0.0110
25683W        W44537  12.723  16.592   4.439 -0.1187 -0.0137  0.1633
25684W        W44538   4.474  10.391   4.501 -0.1043 -0.0501 -0.0469
25685W        W44539  13.294   4.650  12.468  0.2037  0.0111  0.1852
25686W        W44540   8.854   3.162   1.385 -0.0708 -0.0231  0.0672
25687W        W44541   4.491  11.462  14.289 -0.0317  0.2806 -0.1279
25688W        W44542   5.967   2.089   3.693  0.0816  0.2228 -0.2755
25689W        W44543  15.512   9.235   1.528 -0.3316  0.3098 -0.0532
25690W        W44544   1.949   8.253  14.052  0.2676 -0.0235  0.0803
25691W        W44545   5.548   8.068   0.025 -0.2923 -0.3078  0.3632
25692W        W44546  11.892  10.446   2.239 -0.0998 -0.1104 -0.1498
25693W        W44547   2.738   6.925  10.854 -0.0820 -0.0143 -0.2968
25694W        W44548  18.800   9.954   1.114 -0.0611 -0.0580  0.0363
25695W        W44549  17.964  11.557   3.873  0.5164 -0.1239 -0.0199
25696W        W44550   1.141  16.841   1.867  0.0535 -0.1411  0.1339
25697W        W44551  17.953   3.698  10.756 -0.1973  0.0544  0.2465
25698W        W44552   3.821   6.015   1.586  0.1754 -0.3397 -0.0122
25699W        W44553  10.606   1.614   0.847 -0.1554  0.1986 -0.0626
25700W        W44554   8.667  10.686  14.019 -0.1682 -0.0360 -0.2503
25701W        W44555   1.958   2.741   1.664 -0.1567 -0.1120 -0.1629
25702W        W44556   5.996   2.362   2.807 -0.1467  0.1323  0.2862
25703W        W44557   5.753   2.354  13.805 -0.4751  0.2563  0.0298
25704W        W44558  11.388  11.033   4.409 -0.3869 -0.2648  0.1084
25705W        W44559  18.755   3.876   2.299 -0.2119  0.1566 -0.2334
25706W        W44560  15.436   6.510   3.055 -0.1031  0.3196 -0.1134
25707W        W44561   7.538   5.620  13.062 -0.4820  0.1986  0.3152
25708W        W44562  11.279  11.066   3.668  0.1227 -0.0046  0.1283
25709W        W44563   4.187   6.289   0.610 -0.0980  0.0812 -0.1205
25710W        W44564  13.168  17.495  10.918  0.1255  0.0752 -0.4730
25711W        W44565  15.802   7.545  10.974 -0.1932  0.3520 -0.2187
25712W        W44566   4.337   0.309  13.729 -0.1052 -0.1413 -0.0359
25713W        W44567   3.177   9.029   1.724  0.0414 -0.1225  0.0095
25714W        W44568  15.064   7.846  13.328  0.3289 -0.2044  0.1417
25715W        W44569  14.325   6.879  14.180 -0.1326 -0.0791  0.1766
25716W        W44570   8.037   0.419  12.783 -0.3530 -0.1222 -0.0860
25717W        W44571  19.072   4.627   3.574  0.0312 -0.0884 -0.2348
25718W        W44572  17.803   0.261  13.796 -0.2228 -0.1618 -0.1283
25719W        W44573   3.293   3.507  10.195  0.2495 -0.0576  0.0470
25720W        W44574  11.864   4.917   0.577 -0.1176  0.1434 -0.2996
25721W        W44575   1.964   7.942  12.876  0.1004  0.0993 -0.0327
25722W        W44576   2.069   2.518  13.792  0.4017  0.1801 -0.0473
25723W        W44577   6.821   1.800   2.957 -0.1530  0.1928 -0.1702
25724W        W44578   3.186  10.482   3.476  0.0846 -0.1972  0.0157
25725W        W44579   1.020  10.535   0.958 -0.2421  0.1250 -0.0743
25726W        W44580   1.498   5.719   0.124 -0.3902  0.0512 -0.0028
25727W        W44581   5.606  18.018   0.950 -0.2351 -0.1415  0.0643
25728W        W44582   3.463  14.772   5.297  0.2650 -0.1712 -0.0613
25729W        W44583  15.691  10.776  13.421  0.2471 -0.1419 -0.5280
25730W        W44584   3.894  13.416   4.087  0.1113 -0.3480  0.0418
25731W        W44585   9.488  12.545  11.630 -0.2081 -0.1443 -0.1497
25732W        W44586   0.246   5.969  12.706 -0.1061 -0.3169  0.2074
25733W        W44587   8.305   1.886  14.292  0.3878 -0.1294  0.1230
25734W        W44588  15.345  18.780  12.904  0.0408 -0.2915  0.1802
25735W        W44589   3.901   0.738   0.508  0.1256  0.1473 -0.1869
25736W        W44590   5.053   0.334  11.321 -0.1151  0.0672 -0.2407
25737W        W44591  11.677  18.821  13.174 -0.0156  0.1332  0.0700
25738W        W44592   2.368   9.117  11.305  0.0316  0.1428 -0.1943
25739W        W44593  12.572  10.490  14.515  0.1056  0.0813 -0.0380
25740W        W44594  14.452   8.138   2.617  0.2872 -0.0983 -0.1618
25741W        W44595  17.233  15.893  13.789 -0.0036 -0.4044 -0.2848
25742W        W44596   9.177  12.027   0.321 -0.0300 -0.2356 -0.3330
25743W        W44597  14.689   7.060  13.893  0.1483 -0.1065 -0.2685
25744W        W44598   6.447   0.091   0.705  0.1478 -0.0651  0.2144
25745W        W44599  18.319  18.108   2.212 -0.0468  0.3604  0.0478
25746W        W44600   9.760  12.503   1.684  0.0120 -0.0877 -0.0672
25747W        W44601  11.270  16.612   2.308 -0.2342 -0.2152 -0.1403
25748W        W44602   1.426  16.020  13.700 -0.5029 -0.1384  0.3800
25749W        W44603  11.840   3.676  13.779 -0.1666  0.0258 -0.0731
25750W        W44604   2.869   4.878  12.761  0.1234 -0.3346 -0.1930
25751W        W44605   2.314  13.521  13.586  0.0495 -0.0292 -0.0718
25752W        W44606  16.497   7.933   2.071  0.0417  0.0338  0.0431
25753W        W44607  12.546   6.685   1.044 -0.2226 -0.2206 -0.0102
25754W        W44608   1.114   6.342   0.634 -0.4808 -0.2027  0.1609
25755W        W44609  16.120  10.092   1.337  0.0409  0.1343 -0.1226
25756W        W44610  19.135  12.411   3.603 -0.0627 -0.0647 -0.0076
25757W        W44611   1.344  16.626   3.318 -0.0198 -0.1233  0.1902
25758W        W44612   3.818   2.770  11.566  0.1320 -0.0427  0.1189
25759W        W44613   3.683  18.770  13.467  0.0604 -0.1271  0.5588
25760W        W44614   1.944   5.921   1.731  0.5575 -0.2322  0.1389
25761W        W44615   4.811  11.198   1.795 -0.0699  0.0586  0.1640
25762W        W44616  17.034  16.137   2.941  0.2127 -0.0169  0.0275
25763W        W44617   8.372   1.301  10.702 -0.3466 -0.0253  0.1170
25764W        W44618  15.735  12.468   3.443  0.0141  0.0487 -0.0152
25765W        W44619  18.489   0.891   3.010 -0.4047 -0.1461  0.0975
25766W        W44620  10.154   1.148   1.563 -0.0355  0.3561 -0.0087
25767W        W44621   8.001   9.452  13.313 -0.1228  0.2139 -0.0473
25768W        W44622   3.331  15.569   0.024 -0.2882  0.0812  0.0761
25769W        W44623   5.598   0.332   2.514 -0.4907  0.0776 -0.0450
25770W        W44624   2.083  12.958   0.836  0.1124 -0.0773 -0.1712
25771W        W44625   5.244   3.642  12.329  0.2399 -0.0017  0.1226
25772W        W44626   8.301  11.387   0.471  0.1481 -0.1514 -0.0704
25773W        W44627   9.763  14.726  12.587 -0.1405 -0.0313 -0.0229
25774W        W44628   2.692  12.854   1.894 -0.1652 -0.2034  0.3183
25775W        W44629  15.839   3.191  11.985  0.0793  0.1026 -0.3091
25776W        W44630   4.047   6.084   1.136  0.0888  0.2541  0.0789
25777W        W44631   8.941  15.436   3.214  0.2091 -0.1649  0.0684
25778W        W44632  15.488   6.157   1.138 -0.2720  0.0122  0.1474
25779W        W44633   4.912  11.947  10.542 -0.1466 -0.0441  0.2339
25780W        W44634   7.163  18.408   2.304 -0.0700 -0.1181  0.2591
25781W        W44635   5.558   8.061  12.873  0.1484  0.1626  0.5277
25782W        W44636   6.596   6.037  12.899 -0.0003 -0.1634  0.0077
25783W        W44637  17.802   6.751  14.035 -0.3584 -0.2764  0.0903
25784W        W44638   4.812  13.184   2.524  0.0943 -0.2357 -0.1564
25785W        W44639  16.506   5.007   1.389 -0.1641  0.1066  0.2460
25786W        W44640   5.359  11.247  12.700  0.2723  0.2178 -0.2455
25787W        W44641  19.123   8.233  11.040 -0.2156 -0.0197  0.0432
25788W        W44642  10.313  11.722   1.915  0.1237 -0.4215 -0.2942
25789W        W44643   4.093   1.424  14.697 -0.1615  0.0276 -0.1527
25790W        W44644  11.855  14.774  11.164 -0.0201 -0.0599 -0.4069
25791W        W44645   8.525  18.715  12.731  0.0167 -0.1423 -0.0614
25792W        W44646   1.183  14.074   1.050 -0.2747  0.2804 -0.0430
25793W        W44647   2.385  11.527  12.775  0.0230 -0.0435  0.4247
25794W        W44648  14.944   1.576   3.423  0.0268 -0.0307  0.0620
25795W        W44649   5.776   8.289   2.764 -0.2343 -0.1656 -0.0357
25796W        W44650   2.720   8.787  11.315 -0.1640  0.0715  0.3329
25797W        W44651  16.987   2.476   1.656 -0.1224 -0.2713 -0.0421
25798W        W44652   4.710   8.882   1.875  0.1749 -0.0299 -0.0876
25799W        W44653   8.187   3.155   3.692  0.2101  0.0888 -0.1377
25800W        W44654  14.478   3.521   1.595 -0.1893 -0.0320 -0.1445
25801W        W44655  17.500   9.349  14.679 -0.0269 -0.0220 -0.2203
25802W        W44656  11.525  10.317   3.766  0.0365 -0.0719 -0.0047
25803W        W44657   2.164   8.647  11.813 -0.1434  0.0275 -0.2406
25804W        W44658  14.805  16.342  14.193  0.0821 -0.1783  0.3620
25805W        W44659  12.059   5.656  13.586 -0.0212  0.2798  0.0948
25806W        W44660  11.173   0.311   2.678 -0.1374  0.1899  0.0625
25807W        W44661   2.807  11.451  12.450 -0.2002 -0.1787 -0.1167
25808W        W44662   0.666  13.174   0.774  0.4224 -0.2642 -0.2858
25809W        W44663   4.457   6.395   3.011 -0.0685 -0.3384 -0.0044
25810W        W44664  12.717   4.414   2.318 -0.1549  0.0646 -0.0567
25811W        W44665  15.062  17.563   2.676 -0.0924 -0.1780  0.0229
25812W        W44666   6.795   3.393   3.376  0.2279 -0.2669 -0.0155
25813W        W44667  11.119   3.306   1.420  0.1245  0.1029 -0.0106
25814W        W44668  14.870  18.343  11.718 -0.0997 -0.0369  0.1179
25815W        W44669  13.787   8.376   1.201 -0.0494  0.0149 -0.1055
25816W        W44670  10.077  14.307   0.666 -0.1801 -0.3622 -0.0307
25817W        W44671  16.697  14.909  14.415  0.0052 -0.1069  0.0771
25818W        W44672  17.326   5.170  12.434  0.2211  0.1335 -0.0027
25819W        W44673   3.522   1.904   0.361 -0.0299 -0.0723  0.0535
25820W        W44674   0.851  10.796   3.481  0.1282 -0.0825 -0.1483
25821W        W44675   8.450  10.742   3.670 -0.0497 -0.0201 -0.4036
25822W        W44676   7.597   8.719  13.502 -0.1530  0.1162 -0.0384
25823W        W44677  11.420  14.650  12.580 -0.1702  0.1303 -0.2006
25824W        W44678  13.198   1.457   1.364  0.1578  0.0132 -0.0367
25825W        W44679  18.811   0.632   0.730  0.0062 -0.0991  0.0135
25826W        W44680   8.504   2.032   0.289 -0.2486  0.0534  0.0011
25827W        W44681  15.640   4.917  13.772 -0.2655  0.0904 -0.1500
25828W        W44682  12.317  12.132  11.529  0.0434  0.1779  0.1469
25829W        W44683  15.557   6.688   4.078  0.0317 -0.1312 -0.0538
25830W        W44684  18.718  17.692  13.993  0.0195 -0.0060 -0.0457
25831W        W44685  18.209   3.132   2.624 -0.1385 -0.0105  0.0109
25832W        W44686  16.486   6.790   2.204  0.2606  0.1163  0.0933
25833W        W44687   6.135  18.911   1.623  0.0269  0.3206  0.1817
25834W        W44688  12.478  11.467   0.631 -0.1980 -0.2369  0.2544
25835W        W44689  10.659   0.647  13.378 -0.1046 -0.0372 -0.0741
25836W        W44690  10.186   0.774  13.691 -0.2222 -0.1783 -0.1795
25837W        W44691   9.173  10.799  10.950  0.1207 -0.1802  0.0338
25838W        W44692   6.118  15.739   2.783  0.1961 -0.1323 -0.1347
25839W        W44693  15.960  15.784   0.697  0.0233 -0.0027  0.4532
25840W        W44694  13.606  16.444  12.648  0.3029 -0.0041  0.2081
25841W        W44695   2.945   6.606  13.027  0.2132 -0.0120  0.2078
25842W        W44696  17.803   4.081  13.330 -0.0168 -0.1488 -0.4547
25843W        W44697  14.219   0.092  10.536  0.1990 -0.1299  0.1039
25844W        W44698   4.221  16.976  13.338  0.1019  0.1818 -0.1871
25845W        W44699   6.854  15.924   1.171  0.1548  0.0487  0.0668
25846W        W44700   2.361  17.687   4.033  0.0716  0.4002  0.1394
25847W        W44701   0.488   4.063  14.085 -0.3089  0.1330 -0.1528
25848W        W44702  18.871  13.461  14.043 -0.0103 -0.2806 -0.0596
25849W        W44703  14.388  11.888  13.559  0.0741 -0.1030  0.0401
25850W        W44704   2.765  18.943  14.242 -0.0186 -0.2621  0.2620
25851W        W44705  11.404   3.731   4.102 -0.0493 -0.0142  0.0774
25852W        W44706   0.567  15.130   3.934  0.1126  0.5323 -0.3086
25853W        W44707  13.473   9.214   4.165 -0.1310 -0.0463 -0.0020
25854W        W44708   0.021  11.292  11.170  0.4103 -0.0269 -0.3540
25855W        W44709   4.763   6.000  10.666  0.3223 -0.0441 -0.1539
25856W        W44710   2.926  16.655   0.578 -0.0450 -0.0947 -0.3709
25857W        W44711  18.512   5.773   4.734 -0.0056  0.1977  0.0503
25858W        W44712  12.117  10.093   3.257  0.1056  0.1473 -0.0148
25859W        W44713   1.013  16.384  14.259 -0.1417 -0.0360  0.0659
25860W        W44714  10.652   1.911   2.612  0.2179  0.0679  0.1192
25861W        W44715   8.912  11.873  14.494 -0.0466 -0.0721 -0.0616
25862W        W44716   2.311   6.113   1.319  0.0041 -0.0515  0.1414
25863W        W44717  15.499   4.258  12.960  0.3315 -0.1357  0.0628
25864W        W44718  19.114   3.717  11.001 -0.1854  0.0311  0.1281
25865W        W44719  13.956  18.116  11.065 -0.1026  0.2318 -0.1707
25866W        W44720  15.046  10.823   4.326 -0.0646  0.3263 -0.0521
25867W        W44721   9.322   7.964   1.320  0.0324 -0.0921 -0.1344
25868W        W44722   3.644  15.268  14.535  0.3735 -0.1865  0.1189
25869W        W44723  17.410   3.314  12.343  0.0951 -0.2838  0.0723
25870W        W44724   1.203  13.652  12.378 -0.1913 -0.1527 -0.0290
25871W        W44725  11.121  12.907   2.666 -0.0544  0.2005 -0.1837
25872W        W44726  15.387  11.504  11.863 -0.1241 -0.0719 -0.2201
25873W        W44727   6.140  18.816   0.809 -0.1494 -0.0316  0.1934
25874W        W44728   0.441   5.862   2.157 -0.1280  0.0201  0.0983
25875W        W44729  13.274   4.316  11.962  0.0741 -0.0114 -0.0139
25876W        W44730   4.741  16.386   3.777 -0.0425 -0.2251  0.1701
25877W        W44731  16.509  18.066   0.765 -0.1529  0.2259  0.2304
25878W        W44732   1.378  12.342  12.196 -0.3058  0.3935  0.2302
25879W        W44733  16.413   9.295  10.566 -0.3123 -0.1741 -0.0238
25880W        W44734   4.150  12.966   1.341  0.0806 -0.0926 -0.2377
25881W        W44735   6.375  16.319   0.143 -0.3148  0.1119 -0.1507
25882W        W44736   3.112   6.928  10.453 -0.0747  0.0514 -0.0994
25883W        W44737   2.296  10.982  14.104 -0.0936 -0.0013  0.2610
25884W        W44738  12.221  10.749   2.593 -0.0544  0.0909 -0.0933
25885W        W44739  10.123   0.187  11.374  0.0325  0.0978 -0.0226
25886W        W44740  11.285   8.525  13.088 -0.0284 -0.2391  0.1401
25887W        W44741   6.457   4.211  14.046 -0.0911 -0.0824 -0.0382
25888W        W44742  14.210   7.887  14.772  0.2553  0.1915  0.4183
25889W        W44743   3.270   8.160   2.348 -0.1851  0.0191 -0.0948
25890W        W44744   4.593   8.314   1.908  0.0453 -0.0448 -0.0604
25891W        W44745  18.790   1.779   2.551 -0.0277  0.0581 -0.0019
25892W        W44746   2.224  13.398   2.906  0.1299  0.1145 -0.1164
25893W        W44747  17.340   5.608  11.148  0.0584 -0.1160 -0.0662
25894W        W44748  13.617  18.987  12.738  0.0801  0.1695  0.5506
25895W        W44749  10.232  12.446   0.891 -0.2129  0.4039 -0.1814
25896W        W44750   6.917  14.659   1.416  0.0542 -0.2302 -0.0052
25897W        W44751  12.383   0.696   1.772 -0.1685 -0.1591  0.1778
25898W        W44752   4.603   8.607   3.519 -0.0704 -0.1759 -0.1132
25899W        W44753  16.197  14.241   2.915  0.0246 -0.0096 -0.1005
25900W        W44754   3.397  11.718   1.421  0.2161  0.3978  0.0986
25901W        W44755  16.805   7.319  11.214  0.2257  0.0855  0.0034
25902W        W44756   8.715  12.843   9.924 -0.0501  0.0616 -0.2149
25903W        W44757   9.150   1.567   2.708 -0.2495  0.5038 -0.1999
25904W        W44758   6.904   9.403  14.612 -0.0573 -0.2557  0.0747
25905W        W44759  15.708  12.152   3.846 -0.2745 -0.0385 -0.2039
25906W        W44760  13.802  14.841  13.190 -0.2451 -0.0519 -0.0589
25907W        W44761  14.844  15.621  11.251  0.0957  0.2407 -0.1036
25908W        W44762   4.565  13.257  11.534  0.2044 -0.0175  0.0417
25909W        W44763  19.055  13.619   0.788 -0.4155 -0.1985  0.1438
25910W        W44764  11.776   4.451  14.189 -0.0753 -0.0044  0.0366
25911W        W44765  11.663   5.813  11.181 -0.0997  0.0138 -0.1933
25912W        W44766   9.404   5.444   4.339  0.3570 -0.0842 -0.0782
25913W        W44767   3.510   5.808  11.093  0.4495 -0.0475 -0.0412
25914W        W44768  11.281   2.399   3.713  0.0522 -0.2920  0.4417
25915W        W44769   5.565  15.963  14.631  0.1507  0.1950 -0.0259
25916W        W44770   1.716   3.185  10.849  0.0865  0.1262  0.1185
25917W        W44771  16.249   3.992   4.661  0.0559 -0.1105 -0.0908
25918W        W44772   4.312  12.360   4.688  0.1058 -0.1584  0.0408
25919W        W44773   4.568  13.492  13.127  0.1947  0.0731  0.1161
25920W        W44774   7.074   0.700   0.487  0.1288  0.0122 -0.0093
25921W        W44775  11.666  18.767  14.678 -0.1690 -0.1482  0.0718
25922W        W44776   8.739   6.517  12.788  0.1595 -0.2836 -0.4015
25923W        W44777  10.861   4.280   1.292 -0.1547 -0.3594  0.0403
25924W        W44778   3.788  16.734   3.705 -0.3045  0.0207 -0.0530
25925W        W44779  10.541  15.747  14.729 -0.1697  0.4379  0.1811
25926W        W44780   5.288  15.489  10.651  0.3376  0.2672  0.1519
25927W        W44781  13.959  12.134  11.011 -0.0220  0.1955  0.0876
25928W        W44782  15.587   1.645  14.129  0.0924  0.1659 -0.1481
25929W        W44783  17.933  13.728  11.535 -0.0236 -0.1300 -0.0038
25930W        W44784  12.465   3.423  11.153  0.4339  0.0150 -0.1956
25931W        W44785  18.524  10.366  12.126  0.0190  0.0155 -0.1330
25932W        W44786   0.374  13.708  12.763 -0.0330  0.0248  0.2280
25933W        W44787   4.680   6.028   0.577 -0.0544  0.1860  0.0907
25934W        W44788   6.212   8.428   2.997 -0.1962  0.2806  0.0813
25935W        W44789  15.811   0.745  10.504  0.2138  0.3145 -0.0896
25936W        W44790  11.351  15.093  12.804 -0.0393  0.0249 -0.0212
25937W        W44791   0.302   5.191  12.156  0.6668  0.0163  0.0813
25938W        W44792   8.898  15.239  10.512 -0.2962 -0.0140 -0.4768
25939W        W44793  18.989   7.288   3.828  0.3151  0.0198  0.0957
25940W        W44794   4.440  16.559  14.309 -0.1177 -0.2361  0.0250
25941W        W44795   8.907  16.189   3.490 -0.3886 -0.1455 -0.0684
25942W        W44796  10.376   5.042  12.775  0.1495 -0.0523 -0.0877
25943W        W44797  11.327  16.265  13.777  0.4403  0.2493 -0.3025
25944W        W44798   4.444  16.813   3.023 -0.0508  0.1501  0.0380
25945W        W44799   8.988   3.979   0.207 -0.1159  0.0066  0.2228
25946W        W44800   1.047  15.942   1.818  0.1683  0.3905 -0.2574
25947W        W44801   3.490  12.597  13.974  0.0837  0.1212  0.0315
25948W        W44802   9.007   2.641  14.212  0.0809  0.0536  0.1209
25949W        W44803   8.161   0.837  11.879 -0.1626  0.0388  0.0048
25950W        W44804  18.521   0.754   1.245 -0.0024  0.4782  0.5070
25951W        W44805   6.814  13.580   1.474 -0.0143  0.3748  0.2109
25952W        W44806   7.445   7.596  10.413  0.0428 -0.2252  0.0003
25953W        W44807   1.452  14.649  11.392  0.1859  0.1046 -0.3493
25954W        W44808   1.332   4.019  13.246 -0.2254  0.1705 -0.2801
25955W        W44809   8.549  14.077  12.893  0.1441  0.1336  0.1805
25956W        W44810  13.533  10.103  13.017 -0.0470 -0.1784  0.0980
25957W        W44811  11.954  11.495  14.258  0.0450 -0.0670 -0.0049
25958W        W44812  16.458   3.523  10.532 -0.0936  0.1558  0.0465
25959W        W44813  11.900   5.453   3.095  0.0363  0.0509 -0.2225
25960W        W44814  11.999  10.265  10.202 -0.1532 -0.2121  0.0187
25961W        W44815  13.066  14.390   2.544  0.0316  0.1444  0.0310
25962W        W44816   7.404   6.539  12.965  0.1250  0.5863  0.0866
25963W        W44817  11.442  13.133  10.491  0.2735  0.0831 -0.0836
25964W        W44818   5.028   7.601   1.837 -0.1050 -0.1649 -0.2321
25965W        W44819   8.612   4.022  14.599 -0.4367  0.1818  0.3287
25966W        W44820   3.871   1.476   4.146 -0.3718 -0.0291  0.1978
25967W        W44821  12.094  10.876   2.053 -0.1063 -0.1432 -0.0365
25968W        W44822   4.888  11.097   3.580 -0.0881  0.0109  0.0455
25969W        W44823  18.557   2.219   2.367  0.0521  0.1204  0.0975
25970W        W44824  12.215   8.157  13.862 -0.0104  0.3950  0.0846
25971W        W44825  15.047  17.137  12.905  0.2233  0.0281  0.0997
25972W        W44826   1.423   1.732  11.158  0.2063 -0.1183  0.1412
25973W        W44827  11.318   8.896  13.463 -0.1460  0.3264  0.1851
25974W        W44828   2.364  13.059  14.530 -0.2662 -0.0491  0.1400
25975W        W44829   5.851  16.709  14.285  0.0460  0.0595 -0.1647
25976W        W44830   7.459   1.268   3.884 -0.2508  0.1645  0.0260
25977W        W44831  18.249  16.679   4.041 -0.1322  0.1231 -0.0637
25978W        W44832   7.211   1.627   1.243  0.2000  0.2048  0.1155
25979W        W44833   5.213  14.855   2.927  0.1235  0.0130  0.1926
25980W        W44834  16.174  10.640   0.540  0.2995 -0.1200  0.0934
25981W        W44835   0.440  15.585   2.306 -0.1548  0.1351  0.2206
25982W        W44836   4.697  10.897   4.400  0.0868  0.0831  0.1106
25983W        W44837   8.809  18.304  10.612  0.1743  0.3737 -0.1943
25984W        W44838   6.888  15.160  14.653  0.0586 -0.1407 -0.0779
25985W        W44839   1.160  17.942   2.223  0.0314  0.1035  0.2774
25986W        W44840  18.497   9.471  11.215  0.2493  0.2485  0.1865
25987W        W44841  10.870   3.157  12.278  0.0677  0.3013 -0.1928
25988W        W44842  16.519   2.339   2.424 -0.4092  0.1032  0.1042
25989W        W44843   9.610   5.088   1.594 -0.1656 -0.1973  0.2146
25990W        W44844   5.646   5.455   3.802  0.1780 -0.0219  0.0067
25991W        W44845  18.511   1.758   1.274  0.1881  0.1629 -0.1554
25992W        W44846  18.335  10.956   5.079  0.3933  0.3911 -0.4675
25993W        W44847  12.836   9.701  11.245 -0.2792 -0.3385  0.1002
25994W        W44848  12.964   1.889  10.321 -0.0132 -0.1370  0.2524
25995W        W44849  17.372   8.561   3.515 -0.1682 -0.0042  0.2141
25996W        W44850   2.283   2.353   1.610  0.0971 -0.1776 -0.1972
25997W        W44851  17.782   5.704   0.698  0.0933 -0.0626  0.2391
25998W        W44852   3.536   7.794  13.074 -0.0247  0.1269  0.3733
25999W        W44853   5.921  17.966   1.845  0.0712  0.0981  0.3279
26000W        W44854   6.244  12.470   2.815  0.0089  0.1089 -0.1428
26001W        W44855   7.939  11.323   3.121 -0.0198  0.0506 -0.3635
26002W        W44856  13.802  15.833   1.290  0.0685 -0.0590  0.0701
26003W        W44857  13.463   8.120   2.744 -0.2688 -0.2502  0.0836
26004W        W44858   6.394   1.714   9.494  0.0692 -0.1246  0.0696
26005W        W44859   0.445  11.358  11.392 -0.4135  0.1160 -0.1932
26006W        W44860  18.285   7.731   0.624 -0.1164  0.0315 -0.1003
26007W        W44861  17.692   0.256  13.279  0.2293  0.0160  0.1441
26008W        W44862   6.163  14.081   0.109  0.0334 -0.1360 -0.0928
26009W        W44863  16.390  13.006  14.415 -0.4083 -0.1885  0.1816
26010W        W44864   3.051   9.861   3.942  0.2378 -0.0987  0.0768
26011W        W44865  14.713  11.461  11.032  0.0075 -0.1615 -0.0158
26012W        W44866   4.427  12.025   2.404 -0.0136  0.0257  0.1812
26013W        W44867  13.593  15.814  10.871  0.2949  0.1534 -0.0952
26014W        W44868   3.941   3.349  11.431  0.1149  0.0502 -0.3034
26015W        W44869   7.072  13.064  11.771 -0.0545  0.0345  0.0627
26016W        W44870   6.289  10.132   4.540 -0.1894  0.0688  0.0822
26017W        W44871   9.857  18.211   3.532  0.1697  0.0972 -0.2172
26018W        W44872  10.503  14.668  14.285 -0.1182 -0.2451  0.1325
26019W        W44873   7.193   8.793   5.385  0.2125  0.2562  0.2782
26020W        W44874  17.524  10.626  14.335  0.2804 -0.0899 -0.2862
26021W        W44875   4.323   4.087  11.179 -0.1571  0.4167 -0.1664
26022W        W44876   3.273   3.124   4.560  0.1729  0.1448 -0.5333
26023W        W44877   4.490   3.542   1.151  0.3523 -0.0998  0.2452
26024W        W44878  11.275   5.154   3.377  0.2491 -0.2600  0.0962
26025W        W44879   3.802   0.819   3.728 -0.0463 -0.1467 -0.1274
26026W        W44880   1.990   0.039  13.727  0.1113 -0.0769  0.1464
26027W        W44881   9.988  12.605  14.242 -0.0691  0.3502 -0.0350
26028W        W44882  14.711   2.558  11.549 -0.0069 -0.0068 -0.0304
26029W        W44883  11.577  18.873   1.949 -0.2036 -0.2768 -0.0301
26030W        W44884  11.893   1.934  14.102  0.1257 -0.0663  0.2334
26031W        W44885   4.521   1.888   2.608  0.3417 -0.0290  0.1236
26032W        W44886   3.129  13.404   3.157  0.0693  0.0481  0.1108
26033W        W44887   4.619  10.590   2.511  0.0080 -0.2683  0.0941
26034W        W44888   8.858  14.287   4.033  0.4212 -0.2314  0.2256
26035W        W44889   4.746   4.024   4.150 -0.2084 -0.1103 -0.2683
26036W        W44890   7.132  12.368   1.913 -0.0133 -0.0568 -0.0592
26037W        W44891   3.448  15.696  12.419  0.0458  0.1580  0.0960
26038W        W44892  16.254   0.691  12.668 -0.0879  0.1823 -0.1822
26039W        W44893   2.390  10.448  12.117 -0.2073 -0.1541  0.2381
26040W        W44894   7.002   0.147   1.599  0.2311 -0.1207 -0.0759
26041W        W44895  13.750  14.569  11.108 -0.0641 -0.0542  0.0112
26042W        W44896   8.693  17.677  12.697  0.2458 -0.1552  0.2062
26043W        W44897   3.382   5.015  11.197  0.0891 -0.1636 -0.1814
26044W        W44898   6.223  10.886  10.502 -0.2027 -0.1569 -0.2116
26045W        W44899   1.128  10.543  11.770 -0.1635 -0.0668  0.0210
26046W        W44900   4.099  14.782   9.586 -0.2239  0.1145  0.1002
26047W        W44901  10.520   5.411  12.111 -0.1785 -0.3969 -0.0341
26048W        W44902  11.767  12.924  12.969 -0.2809 -0.0789 -0.5009
26049W        W44903  16.258   0.810  11.315 -0.0405 -0.4438 -0.3523
26050W        W44904   7.348   0.333   0.818  0.2169 -0.0992 -0.2099
26051W        W44905   0.123   8.559  13.152 -0.0117 -0.1786  0.1995
26052W        W44906  19.148   3.792  14.454 -0.2942 -0.1910 -0.0200
26053W        W44907   6.007  16.100   3.162 -0.0660 -0.0866  0.0015
26054W        W44908   6.423  17.705  10.306  0.1437 -0.1546 -0.1494
26055W        W44909  16.212  12.988  11.740  0.0535 -0.1583  0.0259
26056W        W44910  12.762   2.428   4.094  0.0070  0.0518  0.1176
26057W        W44911  15.166  11.928  13.125 -0.0696  0.0161 -0.1667
26058W        W44912   2.030  16.155   3.883  0.0141 -0.2910  0.1745
26059W        W44913  12.114  11.202  11.278  0.1275 -0.2338 -0.0749
26060W        W44914   4.146   2.322  11.844  0.2876 -0.1742 -0.1819
26061W        W44915   1.429  10.955   4.326  0.0332 -0.0055 -0.0563
26062W        W44916  11.001   8.687  14.343 -0.4070  0.0917  0.0665
26063W        W44917   8.430   6.510  13.549  0.1733  0.0698  0.0646
26064W        W44918   5.518  18.664  12.347 -0.1178  0.2775  0.0864
26065W        W44919   3.306   8.390   3.102 -0.0869 -0.2978  0.1067
26066W        W44920   0.614   2.149  14.567  0.0215  0.3924 -0.2195
26067W        W44921  11.428   3.981  13.077 -0.2620  0.3280  0.1927
26068W        W44922   9.275   3.509  14.133 -0.0409  0.0126  0.0925
26069W        W44923  12.651  11.062   0.895 -0.0497 -0.1151  0.0776
26070W        W44924   8.187  15.870  13.612 -0.0874  0.0245  0.2983
26071W        W44925   5.742  14.989  14.388 -0.2812 -0.2412 -0.1068
26072W        W44926   0.389   9.212   0.620  0.0349  0.0346 -0.2752
26073W        W44927  14.161  14.750   0.424 -0.0865 -0.0022 -0.3235
26074W        W44928  15.820  14.749  13.694 -0.2762 -0.0833 -0.0341
26075W        W44929   8.500  16.550  12.773  0.2055  0.3228 -0.1492
26076W        W44930   1.496   2.709  11.939 -0.1742  0.3377 -0.0129
26077W        W44931  17.268   2.045   2.836  0.0658  0.0107  0.1613
26078W        W44932  15.915   0.506  13.799  0.1576 -0.1246 -0.1080
26079W        W44933  14.897   7.336  11.059  0.0660  0.1360 -0.1419
26080W        W44934  14.885  18.699   1.134  0.0129 -0.0511 -0.0214
26081W        W44935  11.693  14.356   9.625  0.4565 -0.2464 -0.1959
26082W        W44936   4.891   7.677  10.874  0.0829 -0.3368 -0.1437
26083W        W44937   5.978   1.232   3.361  0.1575  0.3205 -0.1601
26084W        W44938   5.668  13.764   4.095  0.1822 -0.1891  0.3063
26085W        W44939   1.665   1.176   2.861 -0.2367 -0.3233  0.0019
26086W        W44940  13.775  10.887  12.144 -0.1886 -0.0465 -0.3632
26087W        W44941   0.155  11.124  14.222 -0.0177  0.1172 -0.0139
26088W        W44942  17.851   4.706   2.543  0.2063 -0.0630 -0.1713
26089W        W44943   1.095   8.979  12.883 -0.1175  0.1400 -0.0813
26090W        W44944  18.530  13.521   2.056 -0.1805 -0.1662 -0.3350
26091W        W44945   3.525  15.240  10.939  0.0917 -0.0725 -0.0430
26092W        W44946  11.282   6.567   0.683 -0.3630  0.2988  0.2581
26093W        W44947  10.240  11.493   0.842 -0.0870  0.1275 -0.1126
26094W        W44948  12.560  13.065  12.381 -0.1723 -0.1510  0.2881
26095W        W44949   1.480  10.702  13.427  0.4620  0.3286  0.0921
26096W        W44950   3.840  15.168  13.198  0.0503  0.0815  0.1924
26097W        W44951   6.012   2.100  13.291  0.0896  0.1994  0.1858
26098W        W44952   9.604   3.655  11.202  0.2471 -0.3003 -0.0677
26099W        W44953   8.870   1.308  13.099 -0.0642  0.1513  0.1377
26100W        W44954   7.485   9.893   9.880  0.1154 -0.1145  0.0541
26101W        W44955   5.331  17.117  12.134 -0.0101  0.1130 -0.0248
26102W        W44956  10.316   7.016   3.212 -0.1491  0.1026  0.1689
26103W        W44957   3.028  16.116   5.137  0.2179 -0.2015 -0.0879
26104W        W44958  16.090  18.996   1.602 -0.0514  0.0045 -0.3435
26105W        W44959  13.676  11.113   4.687  0.2699 -0.2343 -0.1197
26106W        W44960   4.555   4.408  10.698 -0.0516  0.0236 -0.1217
26107W        W44961  12.671   8.196   0.140 -0.1035  0.2129 -0.1713
26108W        W44962   2.792  14.106  11.605 -0.0246 -0.2362  0.2122
26109W        W44963   3.116   5.951   0.368  0.3780  0.0991 -0.0750
26110W        W44964  17.207   0.965  10.863  0.1914  0.0019  0.2994
26111W        W44965   0.776  15.486   1.905 -0.1976  0.0520  0.2247
26112W        W44966   6.217   4.483   3.304 -0.1037  0.3416  0.0005
26113W        W44967   9.046   4.410  10.212  0.1933  0.0365  0.0780
26114W        W44968   2.052  12.213  14.394  0.1334 -0.3766  0.0634
26115W        W44969   0.942  16.976  13.685  0.0870 -0.4562 -0.0409
26116W        W44970  13.501   4.854   4.069 -0.1333 -0.0131 -0.1707
26117W        W44971   8.701  16.654   1.933 -0.1109  0.0434 -0.3071
26118W        W44972   7.901   8.690  13.068  0.1404  0.0683  0.2374
26119W        W44973   0.010  12.941   0.910  0.1480  0.2199 -0.0021
26120W        W44974  12.632  17.698  14.744 -0.3061  0.1303 -0.1911
26121W        W44975   4.988  11.529   3.847  0.0438  0.0010  0.2812
26122W        W44976   8.778  10.697  11.290 -0.0529 -0.0957  0.0203
26123W        W44977  11.308  18.822  12.762 -0.0998 -0.1320  0.2086
26124W        W44978   6.233   2.174   0.364  0.0390  0.0450  0.1871
26125W        W44979   1.635   0.524  12.906 -0.0361  0.1550  0.4768
26126W        W44980  16.586  19.091   2.835  0.3723 -0.1250  0.3383
26127W        W44981   9.927  17.646  11.124  0.1034  0.0694  0.2820
26128W        W44982  11.235   2.339   0.964 -0.4975 -0.3574  0.1968
26129W        W44983   3.401   3.509   1.347 -0.0916  0.1695  0.2002
26130W        W44984   1.166  13.179  12.093 -0.1859 -0.0646  0.2376
26131W        W44985   8.452   1.331   2.061  0.0863 -0.2366  0.0410
26132W        W44986  12.356   0.145   1.944 -0.3202 -0.3587  0.1072
26133W        W44987   1.373  15.044   4.101  0.1388 -0.1049 -0.3328
26134W        W44988  16.291  18.326   0.376  0.2173 -0.0923 -0.2722
26135W        W44989   7.880   4.991   1.034  0.0258  0.1704 -0.0488
26136W        W44990  17.804   3.754   1.818 -0.0120 -0.0784 -0.2438
26137W        W44991   3.377  12.270  12.031  0.3041 -0.0372 -0.0499
26138W        W44992   4.396   0.880  10.271  0.1497 -0.1662  0.0878
26139W        W44993   8.936   9.133   3.381  0.1478 -0.3157 -0.0372
26140W        W44994  11.042  15.734   3.411  0.1184 -0.0758 -0.2042
26141W        W44995  10.567  19.071   1.715  0.0970  0.1596 -0.0926
26142W        W44996  11.469  10.053   0.296 -0.0058 -0.0390  0.4404
26143W        W44997  11.751   2.424   3.087  0.0779  0.1225 -0.0885
26144W        W44998   0.618   7.291  11.488  0.1627  0.3388  0.0433
26145W        W44999   6.927  17.659   2.828 -0.0737  0.0368  0.2994
26146W        W45000  15.916   0.977  12.890 -0.3272  0.0057  0.1359
26147W        W45001   2.184   1.601  11.998  0.0264  0.1295 -0.1875
26148W        W45002  12.424   3.477  12.715  0.1076 -0.0232 -0.1159
26149W        W45003  18.714   4.042  10.927 -0.1023 -0.3051  0.0151
26150W        W45004  15.937  13.249  14.362  0.0322 -0.0106  0.0380
26151W        W45005   0.480  12.556   2.208 -0.0395 -0.1380  0.1241
26152W        W45006   3.022   9.696   1.932 -0.1425 -0.1900 -0.0937
26153W        W45007  11.055  11.704   9.640 -0.0150 -0.2551 -0.2399
26154W        W45008   8.473  18.645  10.803  0.0666  0.2698 -0.2375
26155W        W45009  13.479   6.261   0.524  0.2040 -0.2619 -0.1296
26156W        W45010  13.529  14.539   3.643 -0.1812 -0.1716 -0.1371
26157W        W45011   9.381   7.382  13.776 -0.2733 -0.0788  0.2807
26158W        W45012  10.348  13.667  13.395 -0.0841 -0.2297 -0.0411
26159W        W45013   4.942   0.394   4.470  0.1252 -0.0646 -0.2067
26160W        W45014   7.772   4.818  12.633 -0.3937  0.0326 -0.2679
26161W        W45015   6.425  12.058  13.810 -0.4381  0.4575  0.0753
26162W        W45016  18.454  10.744  11.630 -0.0465 -0.2357  0.0230
26163W        W45017   8.435   8.465  11.743  0.2043  0.2301 -0.0706
26164W        W45018  18.679   3.127  10.743  0.0803 -0.2555  0.0836
26165W        W45019  14.502   7.779  13.609  0.2056  0.2223 -0.1265
26166W        W45020   4.027  12.487  10.715 -0.1924  0.0591  0.0332
26167W        W45021   8.072   9.075   2.023  0.1113  0.0837 -0.0245
26168W        W45022  17.564   5.650   0.213  0.1133  0.3649 -0.1577
26169W        W45023  18.932   0.109   2.475  0.1319 -0.1047  0.0135
26170W        W45024   9.884   5.259  12.698  0.1195 -0.0957 -0.1812
26171W        W45025   4.688  12.818   2.892  0.1492 -0.4220  0.0097
26172W        W45026   4.941  10.436   0.102 -0.3666  0.1107 -0.2480
26173W        W45027   1.548  13.564   2.312  0.0006 -0.2555  0.0816
26174W        W45028  12.180   5.423   4.083 -0.0343 -0.2081  0.0700
26175W        W45029   1.899   6.367   4.732  0.4387  0.1642  0.0124
26176W        W45030   0.610   4.745   2.369 -0.1847  0.1270 -0.2502
26177W        W45031   9.715   8.910  12.698  0.0505  0.1115 -0.0943
26178W        W45032  10.492   6.804  13.580 -0.1527  0.1024 -0.0508
26179W        W45033   1.379   8.449  14.150 -0.0492  0.2544  0.0878
26180W        W45034  10.465   1.428   0.363 -0.2170 -0.0222 -0.0807
26181W        W45035   8.908   8.018   2.870  0.1788  0.1142 -0.0080
26182W        W45036   1.049   0.200  14.666 -0.2410 -0.0505 -0.0221
26183W        W45037   7.078  10.724  12.249 -0.0997 -0.0477  0.3711
26184W        W45038   4.041  14.992   1.518 -0.1757  0.0990 -0.0979
26185W        W45039   7.235  12.821   1.624 -0.3556 -0.1201  0.1989
26186W        W45040   0.815  17.100   3.995 -0.2589  0.0379  0.2570
26187W        W45041   6.903   0.697  14.212  0.5282 -0.2988  0.4204
26188W        W45042  12.738   9.907   1.964 -0.0063 -0.1872 -0.1478
26189W        W45043  11.209   8.185  12.685  0.1381 -0.0605  0.0937
26190W        W45044  18.854   2.426   2.724  0.1364 -0.4919 -0.1891
26191W        W45045   4.878  11.381  11.862 -0.4387 -0.2179 -0.4107
26192W        W45046  12.587   4.117  13.771 -0.0674 -0.1758  0.0761
26193W        W45047  16.685  10.888   0.529 -0.0921 -0.0084  0.2041
26194W        W45048  18.313   2.597  13.125 -0.1111 -0.0900 -0.0354
26195W        W45049   0.976   8.837   5.216 -0.1800  0.1001 -0.0570
26196W        W45050   5.453  16.503   9.771  0.0270  0.0574  0.2815
26197W        W45051  17.829   6.102   0.324 -0.0246 -0.0263  0.0146
26198W        W45052   7.230  11.616   4.512  0.1400 -0.1099  0.0832
26199W        W45053  11.613   6.352   5.181  0.0452  0.1881 -0.2252
26200W        W45054  17.182  11.673   3.645 -0.1478  0.1752 -0.0159
26201W        W45055   4.537   2.205   3.975 -0.1861 -0.2535  0.0975
26202W        W45056  17.259  17.445   0.373  0.0890 -0.0581  0.2144
26203W        W45057  11.353   3.732   1.877 -0.0353 -0.2013  0.1776
26204W        W45058  11.978   5.666  12.501  0.0038  0.0819 -0.2477
26205W        W45059   1.504  10.196  13.219  0.2555  0.0105 -0.0744
26206W        W45060   4.930  16.838   0.857  0.3156  0.3832  0.0100
26207W        W45061  13.755  16.041  12.345  0.1086 -0.3077  0.2881
26208W        W45062  15.140  10.031   0.288 -0.0476  0.0719 -0.4004
26209W        W45063   4.762  12.553   4.750 -0.1136 -0.0041 -0.0836
26210W        W45064   5.512  16.380  10.779 -0.1786  0.0918 -0.2599
26211W        W45065   6.439  18.555  12.375  0.0122  0.1999 -0.1614
26212W        W45066  13.141  10.987   0.253  0.2171  0.3216 -0.0496
26213W        W45067   8.241   6.131  13.818  0.0495  0.0792 -0.0979
26214W        W45068  14.925   5.120  12.204 -0.0891 -0.3692 -0.1224
26215W        W45069  14.407   6.169   3.964 -0.1070  0.2622  0.3852
26216W        W45070   5.184  13.182   4.126  0.1294 -0.1130  0.2930
26217W        W45071   8.664  17.032  12.428  0.0931  0.3343  0.0356
26218W        W45072   5.996  17.536   2.415  0.0105 -0.0609 -0.3862
26219W        W45073   5.512  16.223   0.242 -0.0876  0.0825 -0.1146
26220W        W45074   7.326   8.772  11.082  0.0491  0.2220 -0.3833
26221W        W45075  10.993  11.694   4.951  0.1271  0.0658  0.2276
26222W        W45076   7.682  10.628   2.460  0.0890 -0.2856  0.1680
26223W        W45077   3.403  19.120  11.876 -0.2922 -0.0004  0.1932
26224W        W45078   8.549  15.705   1.706  0.1173 -0.2047  0.2909
26225W        W45079  10.075   6.866  13.971 -0.0809  0.2164 -0.1156
26226W        W45080  11.812   8.002  13.561 -0.1712 -0.0746  0.1496
26227W        W45081  19.107   4.307   0.075 -0.0066 -0.1630 -0.0324
26228W        W45082   0.867   7.771   1.305 -0.0270  0.1955 -0.2077
26229W        W45083  14.795   8.768   1.979  0.1680 -0.0198  0.2332
26230W        W45084   2.925  10.348   3.862 -0.0440 -0.0914 -0.1156
26231W        W45085   9.805   5.797  14.054  0.1902 -0.1708 -0.4696
26232W        W45086  11.770   0.165   4.202 -0.3503  0.0739  0.1741
26233W        W45087  11.315   8.295   3.633 -0.4204 -0.0971 -0.1101
26234W        W45088  19.031  13.494  11.654  0.1570 -0.0715 -0.0106
26235W        W45089   7.295   3.658  14.100  0.0954  0.1133 -0.2100
26236W        W45090   5.416  12.914  14.146  0.1564  0.1362 -0.1669
26237W        W45091   9.740  15.789  12.659 -0.0905  0.3643  0.0506
26238W        W45092   2.201  15.733  11.494 -0.0814 -0.0673 -0.0038
26239W        W45093   8.633  15.343  12.142 -0.0689 -0.1840  0.0854
26240W        W45094  17.721  14.819  14.582 -0.2186 -0.0532 -0.0972
26241W        W45095   0.220   2.210  13.836  0.4135 -0.0735 -0.0721
26242W        W45096  14.187  18.910   2.902 -0.0398  0.1321 -0.0097
26243W        W45097  11.585   7.996   2.350  0.2909  0.3234 -0.3415
26244W        W45098   7.860  16.000   0.624  0.3781 -0.1210  0.1243
26245W        W45099   5.802  12.603   2.226 -0.1754 -0.3900  0.0482
26246W        W45100  17.104  18.986  12.166 -0.0320  0.0150 -0.0862
26247W        W45101   2.700  14.083   2.685 -0.1258 -0.3454 -0.1887
26248W        W45102   8.485  11.127   1.064  0.0260 -0.1778 -0.0694
26249W        W45103  18.471  11.785   3.402 -0.0335 -0.0313 -0.1188
26250W        W45104  10.838   2.288  11.551 -0.2243  0.1036  0.0227
26251W        W45105  11.575   3.704  12.507 -0.0968  0.1218  0.1618
26252W        W45106   6.474  10.540  10.898 -0.1537  0.1397  0.0678
26253W        W45107  10.586  13.632   0.953  0.0489 -0.0832  0.0898
26254W        W45108   5.303  16.972   9.855 -0.0119 -0.2156 -0.0824
26255W        W45109   3.826   9.655   1.140  0.0175  0.0012 -0.2498
26256W        W45110   5.147   0.333   0.112  0.0628  0.2186 -0.2074
26257W        W45111   6.493  12.695  13.091  0.2132 -0.1089 -0.1514
26258W        W45112  10.447   6.871  11.895  0.0028  0.2042 -0.0651
26259W        W45113   4.219   5.636   1.308  0.0538  0.0755 -0.2168
26260W        W45114  11.763  13.778   4.205 -0.0565 -0.1862 -0.1119
26261W        W45115   1.124   7.587  13.512  0.0146 -0.0631  0.0765
26262W        W45116   0.506   1.835   2.856  0.2395 -0.1338 -0.0702
26263W        W45117   2.008   0.126   3.817  0.0793 -0.1951  0.2494
26264W        W45118  18.133   9.361  13.279  0.0653  0.0001  0.0945
26265W        W45119   9.381  14.184   1.048 -0.0347  0.2035 -0.4130
26266W        W45120   1.027  14.815  13.587  0.3151  0.2513 -0.1483
26267W        W45121   7.148   6.241   0.785  0.3390  0.0616 -0.3138
26268W        W45122  16.704   5.748  14.154 -0.1112 -0.2670 -0.1629
26269W        W45123  17.596   7.129   3.317  0.0478  0.0640 -0.1710
26270W        W45124  10.183  13.028   2.061 -0.1790 -0.1212  0.0913
26271W        W45125  19.104  14.143   3.724  0.0377  0.2228  0.0405
26272W        W45126  16.954  15.283   0.850  0.1688  0.2177 -0.1520
26273W        W45127  10.971  14.835  14.447 -0.2037 -0.1781 -0.2534
26274W        W45128   0.994  16.098  12.518 -0.0936 -0.2299  0.0679
26275W        W45129  13.312  10.193   0.399  0.0204  0.2398 -0.0190
26276W        W45130  16.687   7.218   0.855  0.2476  0.0699 -0.1650
26277W        W45131  15.089  16.726  10.462  0.0161  0.1406  0.2784
26278W        W45132   8.629   5.276   0.426  0.2168  0.3988 -0.1854
26279W        W45133   4.475   2.203  11.428  0.0937 -0.1426  0.0888
26280W        W45134  10.020  13.456   4.351 -0.0542 -0.1924 -0.2203
26281W        W45135   7.623  16.337   3.771  0.0551  0.1898  0.3357
26282W        W45136  14.470   7.575   3.252 -0.0771  0.2119 -0.0697
26283W        W45137  10.979   6.945  13.210  0.1107  0.2168  0.0512
26284W        W45138   7.725   2.289   2.087  0.0642  0.2327 -0.1387
26285W        W45139   0.212  12.851   1.567  0.1419  0.0182 -0.3000
26286W        W45140   8.828   3.178  10.990 -0.0396  0.3303 -0.0024
26287W        W45141  11.057  17.205   3.590  0.4405  0.0670  0.1342
26288W        W45142   2.376   4.510  13.943 -0.0175 -0.1669  0.1572
26289W        W45143   8.569   6.289   4.283  0.0355 -0.0855  0.0104
26290W        W45144   6.159  15.158  11.577 -0.0357 -0.4653 -0.3527
26291W        W45145  17.542   7.389   2.265  0.1867  0.1980  0.0300
26292W        W45146   3.419  14.838  13.889  0.0388 -0.0707  0.1488
26293W        W45147   0.943  10.645  13.655 -0.0564 -0.1021  0.1480
26294W        W45148  18.509   0.563  12.971 -0.2088 -0.0197  0.1615
26295W        W45149  14.864   9.318   2.122  0.2059 -0.3158  0.0321
26296W        W45150   6.684   3.317  12.838 -0.0738 -0.1074  0.1582
26297W        W45151   6.272  12.888   3.118 -0.1712 -0.1693 -0.1445
26298W        W45152  14.816   7.283   1.598 -0.1210 -0.2325  0.1696
26299W        W45153   0.124   2.632   2.502  0.4917 -0.1093 -0.1341
26300W        W45154  11.753  16.373   2.668 -0.0053  0.2772  0.0803
26301W        W45155   2.605   0.097  11.397 -0.0362 -0.2592 -0.0855
26302W        W45156   4.904   4.348   1.085 -0.1882 -0.1533  0.0508
26303W        W45157   7.518   5.207  14.560 -0.2683  0.1291  0.3317
26304W        W45158   5.913  18.903  11.662  0.1790 -0.0270 -0.1357
26305W        W45159  18.791  12.238   4.894  0.1014  0.3308 -0.1326
26306W        W45160   0.584  15.569  11.860 -0.2330 -0.0332 -0.1024
26307W        W45161  14.680  13.614   3.658 -0.1996  0.0934 -0.4199
26308W        W45162   5.052  16.066   2.670 -0.0806  0.0750  0.3048
26309W        W45163  18.716   8.740   4.526  0.3355  0.0528 -0.1427
26310W        W45164   5.999  12.647   0.168  0.2330 -0.1275  0.1689
26311W        W45165  14.281  15.580   2.015 -0.0321 -0.1276 -0.2477
26312W        W45166  18.925  11.855   5.269 -0.0191  0.1533 -0.1410
26313W        W45167   7.891  19.052  11.947 -0.2773  0.3077  0.0964
26314W        W45168  17.613   4.364   3.918 -0.2560  0.0898  0.1490
26315W        W45169   9.965  18.134  12.969 -0.1776  0.1739 -0.2047
26316W        W45170  14.698   5.021  12.675 -0.0579 -0.1727  0.3046
26317W        W45171  19.154  18.724  10.705 -0.0951 -0.2148  0.3487
26318W        W45172  19.045  17.326  13.900 -0.4596 -0.1414  0.1308
26319W        W45173  13.042   6.256   4.100  0.1151 -0.0311  0.1672
26320W        W45174  11.513   6.271   0.257 -0.4219 -0.0790  0.1577
26321W        W45175   2.398  10.325   4.735  0.3776  0.0598  0.0410
26322W        W45176  14.182  13.001  12.366 -0.2223  0.0224 -0.1170
26323W        W45177   7.667  13.014  13.014  0.2275 -0.0621  0.0802
26324W        W45178  14.484  18.639  13.801 -0.4514 -0.1313 -0.1709
26325W        W45179   2.039  17.762   0.808  0.0396 -0.0619 -0.1520
26326W        W45180   0.528  12.793   3.338 -0.1263 -0.0172 -0.1489
26327W        W45181  10.302  13.308   0.734 -0.3143  0.1055  0.2160
26328W        W45182   5.033   9.050   2.759  0.1955  0.2559  0.2233
26329W        W45183   2.702   5.798  11.436  0.3027  0.0948  0.2411
26330W        W45184  13.321   9.267   3.622  0.0345 -0.2520  0.0627
26331W        W45185  11.211  11.755  11.766 -0.0471 -0.2689 -0.0245
26332W        W45186  12.741  10.758   2.796 -0.2450 -0.1212 -0.1671
26333W        W45187   6.326   6.186   0.181  0.0662  0.2637  0.1412
26334W        W45188   1.210   3.265  10.643 -0.1295  0.1743  0.1411
26335W        W45189   6.627   8.213   1.470  0.1756  0.0264  0.0060
26336W        W45190  11.535  12.908   1.894  0.1382  0.1944  0.2760
26337W        W45191  15.977  12.386  10.762  0.2984 -0.3047 -0.4652
26338W        W45192  18.437  19.071   2.520 -0.0354  0.1200  0.2284
26339W        W45193  15.393  18.101  10.515 -0.1305 -0.0435  0.0691
26340W        W45194   0.037   8.677   1.311  0.3746  0.3001  0.1602
26341W        W45195   2.393  16.754   2.795 -0.2756 -0.0304  0.2533
26342W        W45196   8.147  10.835  13.176  0.1141  0.3309 -0.5061
26343W        W45197  17.930   0.704  13.698 -0.3128  0.3519 -0.4152
26344W        W45198  14.199   3.593  11.103  0.1508 -0.1053 -0.0738
26345W        W45199  16.265  11.922  11.075  0.1951  0.0105  0.1407
26346W        W45200   7.104   6.809   0.346  0.2620  0.0603  0.1681
26347W        W45201   5.820   1.787  13.657 -0.1475  0.1699  0.0624
26348W        W45202   5.329   9.177  11.045 -0.1220 -0.1317 -0.4203
26349W        W45203  17.823  17.970   3.366  0.1549  0.0460 -0.0152
26350W        W45204  18.325  10.101  12.527 -0.1046 -0.1223 -0.2635
26351W        W45205   3.910   9.407  14.239 -0.1472  0.1514  0.2497
26352W        W45206   8.252  14.940  13.379 -0.1629 -0.5172 -0.0767
26353W        W45207   1.453   2.475  14.516 -0.1046  0.1678  0.0561
26354W        W45208  16.057   8.227   1.886  0.0081 -0.2021 -0.0702
26355W        W45209  11.803  17.012   0.498  0.1976  0.3515 -0.0876
26356W        W45210   2.855   3.195  13.125  0.2200 -0.1599  0.1048
26357W        W45211  13.995   4.783  12.893  0.1127  0.0395 -0.0168
26358W        W45212  12.095   3.502   3.150 -0.0118  0.1182  0.0421
26359W        W45213   0.430  13.856  13.855  0.0606  0.2885  0.1792
26360W        W45214   8.583  14.996   4.148 -0.1006  0.0964 -0.3441
26361W        W45215   8.220   8.888  14.072  0.2809  0.0137 -0.1112
26362W        W45216   0.494  14.921   2.926  0.1044  0.4133 -0.1127
26363W        W45217   6.994   5.992   1.800 -0.0325  0.0242  0.1677
26364W        W45218   3.819  16.801   0.773 -0.2045  0.1584 -0.3956
26365W        W45219  14.767  16.963   1.885  0.2109  0.3832  0.0827
26366W        W45220  11.387   0.633  11.743 -0.0218  0.1269  0.1702
26367W        W45221  12.039  12.189   3.533  0.0678  0.2033 -0.6016
26368W        W45222   2.102   3.227  10.464 -0.0483  0.3203 -0.2301
26369W        W45223  11.636  11.249  13.935 -0.2065  0.0315 -0.1364
26370W        W45224  15.307   0.892   2.156 -0.0457 -0.3915 -0.1438
26371W        W45225  17.298  15.350   1.168  0.3497 -0.4080 -0.1972
26372W        W45226   5.455  16.305  10.236  0.1933 -0.0502  0.0386
26373W        W45227  17.891   2.904   2.090  0.0060 -0.0943  0.2116
26374W        W45228   4.742   9.133   1.458  0.1770  0.1929  0.4226
26375W        W45229   2.667   1.820   2.645 -0.0154 -0.2015  0.1853
26376W        W45230   5.639  16.489  13.491 -0.0005  0.0250 -0.2260
26377W        W45231   9.500  17.134   0.784  0.0171 -0.0039  0.1219
26378W        W45232   8.799   0.108  11.615  0.1994  0.3810  0.1550
26379W        W45233  12.423  11.145   2.880 -0.1532  0.1919  0.2848
26380W        W45234  10.075   9.128   2.030  0.1808 -0.3586 -0.1054
26381W        W45235  15.268  16.883   0.631  0.1597  0.1838 -0.1636
26382W        W45236   2.612   3.822  12.641 -0.1188  0.0913  0.1611
26383W        W45237   1.966   3.919   1.875  0.0946  0.0115  0.1855
26384W        W45238  16.316   5.808   2.179  0.2223  0.1096 -0.4307
26385W        W45239   1.239  13.153  12.570 -0.0737  0.4187 -0.1501
26386W        W45240  18.627   0.543   2.353 -0.3348 -0.1697  0.3656
26387W        W45241   3.784   7.461  14.354  0.1443  0.1700  0.1839
26388W        W45242  16.634  15.373  14.195  0.2116 -0.0258  0.2618
26389W        W45243  10.791  17.324  13.146 -0.1837 -0.2004  0.2076
26390W        W45244  11.322  12.610  14.739  0.2521 -0.5018  0.3576
26391W        W45245   2.745   1.608   2.218 -0.0439  0.2488 -0.1201
26392W        W45246   8.823  17.798  13.609  0.0196  0.0064  0.0441
26393W        W45247  12.599   6.129   9.387 -0.1936 -0.0483  0.0376
26394W        W45248   6.074   0.630   1.372  0.2904  0.3005  0.1997
26395W        W45249   0.385  12.522  10.127 -0.1601 -0.1368  0.1503
26396W        W45250  12.858   6.098  11.764 -0.0123 -0.0895 -0.0971
26397W        W45251  13.550  18.696   2.954  0.0023  0.2527  0.0801
26398W        W45252   5.225   7.934  11.661 -0.1154  0.1515  0.0944
26399W        W45253   3.174  19.113  11.214  0.0996  0.2016 -0.0376
26400W        W45254   1.509   5.578   1.097 -0.2591  0.3315 -0.2769
26401W        W45255  18.198   2.030   4.387  0.1779 -0.0190  0.0444
26402W        W45256   0.739  10.756   2.692  0.0722 -0.0787 -0.0809
26403W        W45257   8.405  12.406   4.501 -0.2085  0.1063 -0.0928
26404W        W45258   2.942   6.080   3.729 -0.3440 -0.3102  0.0886
26405W        W45259  17.612  12.845   2.329 -0.2120 -0.5676  0.1028
26406W        W45260   3.321   0.044   0.830  0.0096 -0.1242  0.0152
26407W        W45261  15.678  10.269   1.463 -0.0416  0.1338  0.2921
26408W        W45262  18.121   9.996   0.098  0.4142 -0.2026 -0.2498
26409W        W45263   5.107  15.511  13.965  0.1662  0.0420  0.1524
26410W        W45264   7.776  17.271  11.763 -0.0209 -0.1771  0.0922
26411W        W45265   4.090   7.513   0.002 -0.2303  0.0602 -0.0590
26412W        W45266  11.148   1.106  11.824  0.1960 -0.0136  0.0924
26413W        W45267   9.123  12.369   9.075  0.2583 -0.1393 -0.1440
26414W        W45268  18.757  11.101  14.516  0.2050 -0.5163  0.2230
26415W        W45269  15.721   2.449   2.765  0.1415 -0.0498  0.0050
26416W        W45270  15.408  12.873   3.464  0.0835  0.0441 -0.0879
26417W        W45271  16.006  13.190  13.537 -0.1421 -0.0261  0.0445
26418W        W45272   5.419  11.640  14.443  0.0281 -0.0277  0.0389
26419W        W45273  17.281   5.627  12.995  0.2186  0.1224 -0.2746
26420W        W45274   3.953   6.713   2.223  0.0195 -0.0828 -0.2637
26421W        W45275   5.567  13.172  12.331 -0.0072 -0.1597 -0.0604
26422W        W45276  14.835   4.557  14.119  0.1859  0.4575  0.0166
26423W        W45277  14.127  17.492   2.617 -0.3403 -0.0150  0.0785
26424W        W45278   0.204   1.981   2.024  0.0799 -0.0918  0.0509
26425W        W45279   7.100   9.846   2.517  0.0222 -0.0880 -0.4199
26426W        W45280  12.035   5.308  14.232  0.3209  0.1685 -0.1478
26427W        W45281  17.149  15.979   0.336 -0.0353  0.1422  0.2566
26428W        W45282   1.488   4.820   3.895 -0.3837  0.0406 -0.2999
26429W        W45283   7.802   8.408  12.017 -0.0860  0.1155  0.1675
26430W        W45284   5.897   1.651  12.561 -0.0429 -0.0652 -0.0191
26431W        W45285  19.125   9.695   2.393 -0.5546  0.0928 -0.0527
26432W        W45286  17.384  12.199  12.771 -0.3675 -0.0870 -0.0051
26433W        W45287   3.876  14.097   3.774  0.0035 -0.1987  0.0122
26434W        W45288   0.071  17.945  14.171 -0.0196 -0.0547  0.1095
26435W        W45289  12.863   8.544   0.651  0.0608 -0.1833  0.1455
26436W        W45290  14.894   6.421   9.700 -0.0181  0.4364  0.2471
26437W        W45291  13.438   2.465   2.951  0.0750  0.1698  0.0246
26438W        W45292   7.570   6.350  13.942  0.2737 -0.0839  0.0886
26439W        W45293   7.259   0.220  10.710  0.2814  0.0543 -0.0550
26440W        W45294   2.839  13.034   4.280 -0.2467 -0.1533 -0.1433
26441W        W45295  11.639   9.470   2.208 -0.1883 -0.0237  0.2058
26442W        W45296  15.743  10.631  11.175 -0.1863  0.0375 -0.1774
26443W        W45297  16.527  18.036  13.770 -0.1518 -0.1859 -0.0658
26444W        W45298  11.852   8.644  13.025 -0.0604 -0.0182 -0.1743
26445W        W45299   9.799   4.200   3.837  0.2612 -0.0428 -0.0860
26446W        W45300   5.298   0.403  11.805  0.2268 -0.0114  0.2262
26447W        W45301  10.046   7.918   2.699 -0.0467  0.1655 -0.0992
26448W        W45302   5.793   4.550   0.081 -0.3670  0.0233  0.0829
26449W        W45303  18.568  15.999  13.834  0.0932 -0.2111 -0.0869
26450W        W45304   4.599  13.334   2.975 -0.1686  0.1229 -0.2695
26451W        W45305  15.521   3.331   3.922  0.0962 -0.1326  0.1881
26452W        W45306   0.298   5.937   3.596  0.1498 -0.1845  0.1027
26453W        W45307   1.998  15.929  13.720 -0.2769  0.0726 -0.1781
26454W        W45308  10.839   2.564   2.823 -0.0569 -0.1582 -0.2242
26455W        W45309   8.389  17.162   0.114 -0.0148 -0.1860 -0.1889
26456W        W45310   3.153   7.574   3.584 -0.1905  0.2289 -0.0927
26457W        W45311  16.353  14.843   3.730  0.0110 -0.3908  0.2639
26458W        W45312  11.999   9.953  12.134  0.1626  0.1372  0.0567
26459W        W45313   3.307  13.843   0.850 -0.4152 -0.4367  0.1131
26460W        W45314  10.745  19.022  14.103 -0.1854 -0.1533 -0.2409
26461W        W45315   2.875  17.110  13.652  0.1660  0.0546 -0.2219
26462W        W45316   2.835  15.582   4.535  0.1822 -0.0494 -0.0134
26463W        W45317  16.423  17.613  12.204  0.2336  0.0700  0.1944
26464W        W45318   4.076  13.083  11.617  0.0198  0.1479 -0.0421
26465W        W45319  10.333   9.561   1.854 -0.0107  0.2161 -0.0684
26466W        W45320   7.912  14.268  11.660  0.1540 -0.1014 -0.1979
26467W        W45321   9.170  13.834  10.446  0.0299  0.2221  0.0975
26468W        W45322  16.913   3.547  10.700 -0.2114  0.0991  0.2286
26469W        W45323   9.814  13.109  10.556  0.1615 -0.1600  0.1460
26470W        W45324  17.059   9.248   4.209  0.0099 -0.0245  0.0190
26471W        W45325  18.845  14.065  13.316  0.3426  0.1543  0.2410
26472W        W45326  14.661  16.695   2.827 -0.1838 -0.0001  0.1956
26473W        W45327   6.280   8.674  13.037  0.0258  0.0640  0.1446
26474W        W45328  10.329  14.482   3.582  0.2572 -0.0528 -0.2025
26475W        W45329   3.271   0.469   0.494 -0.2039  0.1184  0.0087
26476W        W45330  18.346  18.536   2.766  0.2073 -0.0612  0.0376
26477W        W45331   2.415   2.935  10.869  0.2266  0.0054  0.0687
26478W        W45332  15.406   7.192   3.174 -0.3102 -0.2070  0.1189
26479W        W45333  17.488   6.829  13.560 -0.2008  0.0295 -0.2098
26480W        W45334  13.916  10.794   2.350 -0.0947 -0.1106 -0.3788
26481W        W45335   2.522   2.563  11.691 -0.3266 -0.0579  0.3150
26482W        W45336   2.456  11.380   4.142 -0.3108  0.2178 -0.1303
26483W        W45337  11.601   7.266  10.627 -0.0194 -0.0069  0.0676
26484W        W45338  12.774  13.107   2.762  0.0980  0.0403 -0.0216
26485W        W45339  17.515   3.307   1.919  0.0158 -0.0575 -0.2892
26486W        W45340   2.830   5.531   2.507  0.1648  0.1813  0.1583
26487W        W45341  18.806   9.042  14.377 -0.3126  0.1146  0.0383
26488W        W45342   7.529  18.389  10.877 -0.3120  0.0846 -0.2219
26489W        W45343  12.045   4.849  14.591  0.1541  0.1942  0.1507
26490W        W45344   8.342  10.268  13.733  0.0838 -0.1590 -0.1485
26491W        W45345  14.900  17.509   0.319 -0.1093 -0.2776  0.1944
26492W        W45346   2.442  18.221   3.911 -0.2049 -0.0180  0.1506
26493W        W45347   1.130   9.892   0.939 -0.4401  0.4308  0.1153
26494W        W45348   0.668  15.571   0.076  0.3202  0.2097 -0.2006
26495W        W45349  17.224  17.316  13.386 -0.0437 -0.2040 -0.2201
26496W        W45350   4.517  16.356   3.354  0.2865 -0.0494  0.0460
26497W        W45351  17.881   4.532  13.421  0.0435  0.2235 -0.0321
26498W        W45352   8.522  14.229   0.540  0.1227  0.4273  0.0397
26499W        W45353  14.876   2.359   0.095  0.0441 -0.1878  0.2006
26500W        W45354   1.481  11.153  14.284  0.0293 -0.0693 -0.0480
26501W        W45355   1.779   1.270   1.030  0.1396 -0.1671 -0.0089
26502W        W45356   6.469  11.511   1.706 -0.1472 -0.1931  0.0853
26503W        W45357   5.639   8.059   4.216  0.0803 -0.2004 -0.3726
26504W        W45358   5.288  17.194  11.478 -0.1900  0.4830  0.0592
26505W        W45359   6.790   7.812  12.810  0.1935  0.0362 -0.1099
26506W        W45360   8.051   7.451   3.899  0.0284 -0.0702 -0.0605
26507W        W45361  11.141  13.095  11.452  0.3008  0.0262  0.0423
26508W        W45362   6.158   9.555  12.226 -0.1915 -0.2609  0.1103
26509W        W45363   2.082  12.572  10.907 -0.0099  0.0889 -0.3115
26510W        W45364   2.829  14.500   0.048  0.1879  0.3693 -0.2180
26511W        W45365  11.941   2.929   3.870  0.0831 -0.2164 -0.0746
26512W        W45366   7.409   9.340   2.689  0.0773  0.3187 -0.2054
26513W        W45367  11.322   4.040  10.800 -0.0571 -0.0294  0.0893
26514W        W45368  13.757  17.574  10.345  0.0902  0.0241 -0.0691
26515W        W45369   3.374   8.042  12.381 -0.1057 -0.4484 -0.1659
26516W        W45370  11.868  15.318  13.729  0.0372  0.3712  0.3247
26517W        W45371   9.691   6.705  12.722  0.2947  0.0039 -0.2790
26518W        W45372   8.292  10.641  12.752  0.0088 -0.0275 -0.0478
26519W        W45373  12.119   4.232  11.164 -0.0838  0.1246  0.1858
26520W        W45374  13.395  15.025   1.347 -0.4765 -0.1679 -0.0385
26521W        W45375   4.532  10.464  14.126  0.0179 -0.0182  0.0024
26522W        W45376  11.964  17.201   2.091  0.2315  0.1173 -0.0763
26523W        W45377   9.998   8.545   4.250  0.3006  0.3275 -0.0347
26524W        W45378   0.677  15.326  11.414  0.0699  0.0497  0.1338
26525W        W45379  10.361   8.948   3.403  0.0236 -0.0303  0.1035
26526W        W45380  10.204   8.057   4.486 -0.0213  0.0808 -0.2828
26527W        W45381  14.104  11.755   4.190 -0.0953 -0.0924 -0.0162
26528W        W45382  13.404   2.299  10.175  0.1341 -0.1267  0.0364
26529W        W45383   0.470  16.056  13.791  0.0322 -0.0201  0.2718
26530W        W45384  12.640   9.599   0.429 -0.2725 -0.1612  0.0791
26531W        W45385   3.611   4.831   4.100 -0.0636 -0.0993 -0.2639
26532W        W45386   2.433   8.044  14.772  0.0195 -0.0218  0.2784
26533W        W45387  18.049   0.805  14.635  0.1164  0.1206 -0.3216
26534W        W45388   0.983   8.066  12.887  0.0597  0.2616 -0.1476
26535W        W45389  17.745   7.615  13.346 -0.2642  0.0208 -0.0802
26536W        W45390  16.398   7.103  11.901 -0.1245 -0.1225  0.0447
26537W        W45391  17.764   1.710   3.059 -0.3195 -0.3037 -0.0549
26538W        W45392  11.789  16.088  13.010 -0.2519 -0.0790 -0.1832
26539W        W45393   7.381   1.272  12.502 -0.2028 -0.0480  0.1328
26540W        W45394  13.804  16.715  12.244 -0.0586 -0.0245 -0.1643
26541W        W45395  17.489   2.846   0.581  0.1069  0.3575  0.0414
26542W        W45396   1.097  10.845   3.036 -0.3624  0.4580 -0.0692
26543W        W45397   1.998   0.358   0.695 -0.1790  0.1148 -0.1126
26544W        W45398   3.071   5.358   1.652  0.1984 -0.0027 -0.1738
26545W        W45399   8.710   6.765  11.455  0.0859  0.2112 -0.0596
26546W        W45400   8.239  13.296  11.384 -0.1388 -0.3446 -0.1472
26547W        W45401   9.285  15.134  10.808  0.1208  0.0364 -0.2751
26548W        W45402   4.958  10.578  13.114 -0.0269  0.4774 -0.0964
26549W        W45403  12.086   1.048  13.016  0.0102  0.1370  0.3334
26550W        W45404   9.800   6.695  11.308  0.2817  0.2891 -0.0617
26551W        W45405  10.676  14.624  12.284  0.1849  0.4041 -0.0733
26552W        W45406   9.482  13.865   1.696 -0.2897  0.0839 -0.3036
26553W        W45407   2.979   7.921   3.066 -0.0220  0.2825 -0.0662
26554W        W45408   6.867  11.620   5.316 -0.2681  0.0199  0.1982
26555W        W45409   6.649  15.250  13.727  0.1568  0.1183 -0.1120
26556W        W45410  18.407  17.988  12.271 -0.4475 -0.2150 -0.1442
26557W        W45411   2.155   8.544  13.627  0.0455 -0.0678 -0.0962
26558W        W45412   5.203   3.441  11.114 -0.0683  0.1460  0.3491
26559W        W45413  17.436  14.312  12.025  0.0064 -0.2050  0.2915
26560W        W45414  11.214  10.339  11.729 -0.1728  0.0775  0.1188
26561W        W45415   6.967  15.811   3.768 -0.0360  0.0228 -0.0457
26562W        W45416  15.641   1.367   3.204  0.1427  0.1074 -0.2431
26563W        W45417  17.698  10.648  13.684  0.1794  0.1116 -0.2495
26564W        W45418   9.307   5.889  11.398  0.2362  0.0850  0.0774
26565W        W45419  11.327  12.485   2.867  0.2086  0.1937  0.1507
26566W        W45420  11.788  13.107   1.437 -0.1007  0.0689 -0.2659
26567W        W45421   9.155   8.965   2.681  0.1407  0.2224 -0.1135
26568W        W45422  15.847   6.286  13.404  0.1855 -0.1612  0.1343
26569W        W45423  14.406   5.386  10.888 -0.1810  0.0752 -0.1062
26570W        W45424   6.200  12.497  13.543  0.0859 -0.2232  0.1611
26571W        W45425  13.945  17.169  10.602  0.0890  0.1720  0.0905
26572W        W45426  16.413  11.230   1.747  0.0460  0.0632  0.2961
26573W        W45427   7.243  10.712  14.637  0.1993  0.0063 -0.0183
26574W        W45428  13.555   3.868  13.600 -0.3831 -0.1579 -0.1922
26575W        W45429  11.311   9.352   0.455 -0.0905  0.0652 -0.0571
26576W        W45430   1.145   8.521   0.400  0.4997  0.4564  0.3869
26577W        W45431  14.900  18.380   0.054  0.3528 -0.0573  0.1148
26578W        W45432   7.395   5.277  11.538  0.2071 -0.1022  0.3081
26579W        W45433  11.437   5.020  13.259  0.1334 -0.3051  0.2602
26580W        W45434   3.197  10.438  11.511  0.0398  0.1770  0.2725
26581W        W45435   2.013  17.618   4.562 -0.0040 -0.1683  0.0145
26582W        W45436  16.129  11.700   1.800 -0.2310  0.2933 -0.0143
26583W        W45437  10.600  12.749   1.425  0.0104 -0.2155 -0.3293
26584W        W45438  17.379  15.143  10.740 -0.2333 -0.1681  0.1002
26585W        W45439  10.703  17.761  12.803  0.3089  0.1811 -0.0775
26586W        W45440   8.503   3.917  11.103 -0.0512 -0.0062  0.2031
26587W        W45441  12.880  12.357   1.581  0.3139  0.1421  0.1384
26588W        W45442  17.389  15.642  11.520 -0.0628  0.0919 -0.1702
26589W        W45443   5.490   0.651  13.189 -0.1475  0.1359 -0.0516
26590W        W45444   6.041  10.141   1.872 -0.1542 -0.0276 -0.0846
26591W        W45445   7.213   2.581  11.885  0.2369  0.1612 -0.2917
26592W        W45446  16.951  15.017  12.322 -0.4334 -0.1488  0.2806
26593W        W45447  12.741  16.241   1.706  0.1436 -0.3155  0.0733
26594W        W45448   1.743  14.354  12.441  0.4680 -0.1167 -0.0010
26595W        W45449   2.554   5.652   3.711 -0.1789 -0.0141 -0.1578
26596W        W45450   9.443   1.298   3.951 -0.1944  0.0178 -0.4197
26597W        W45451  10.589   8.674  12.637  0.0036 -0.1114 -0.3358
26598W        W45452  12.047  10.666  13.383  0.1280 -0.1214  0.1089
26599W        W45453  18.716   8.885   3.558 -0.0352  0.0692 -0.1053
26600W        W45454  10.134   8.073  10.102  0.1822 -0.2070 -0.0190
26601W        W45455   5.752   0.374  12.892 -0.0621  0.2177  0.1444
26602W        W45456  18.824  12.969   2.864 -0.2192  0.1237  0.2435
26603W        W45457  16.798   6.492   9.843 -0.0644 -0.2060 -0.1523
26604W        W45458  15.122   6.793   3.300 -0.0968  0.0958 -0.0081
26605W        W45459   6.207   3.865  11.350  0.0594  0.0034  0.0588
26606W        W45460   6.867  14.792  13.096 -0.0183  0.0125  0.1761
26607W        W45461   2.819  10.478   0.616  0.1347  0.0047  0.1831
26608W        W45462   9.382   6.016   4.221  0.4574  0.0643  0.0546
26609W        W45463  15.995  12.715  14.457  0.1232  0.3540  0.0061
26610W        W45464   4.622   4.960  11.351 -0.0077  0.1344 -0.1625
26611W        W45465   4.559   2.361   2.453  0.0882 -0.3599 -0.0115
26612W        W45466   9.577  14.209   0.567 -0.2193  0.0706 -0.2771
26613W        W45467   3.437   1.914  13.776 -0.2333 -0.2742 -0.0243
26614W        W45468   9.706   8.988  14.284 -0.1020 -0.0626 -0.0650
26615W        W45469   0.693  10.622  12.486  0.0851  0.0986  0.0299
26616W        W45470   6.910  19.083   2.763 -0.1505 -0.0089 -0.0089
26617W        W45471  17.378  11.521  13.592  0.0408 -0.0504  0.2968
26618W        W45472  16.079  10.062   0.796  0.2011  0.3106  0.0857
26619W        W45473   6.985   3.757   3.634  0.2746  0.0566 -0.0305
26620W        W45474   0.099  11.401   0.470 -0.0531  0.2360 -0.3454
26621W        W45475   9.058   6.137  13.110  0.1464  0.2241 -0.1668
26622W        W45476  10.384  11.822   4.120 -0.1105  0.0776  0.0332
26623W        W45477   2.118  18.130   4.335 -0.0799  0.0937  0.2927
26624W        W45478   5.279   7.471   2.513  0.0775 -0.0556  0.0372
26625W        W45479   7.701   2.421   4.133  0.0522 -0.0131  0.1501
26626W        W45480  18.544   3.039   2.157 -0.1475 -0.2071  0.2269
26627W        W45481   4.789   4.233   3.232 -0.0798 -0.5527  0.0747
26628W        W45482   2.954  16.892  12.987 -0.1348  0.1828 -0.0360
26629W        W45483   0.943   5.089   2.071  0.0028 -0.0732 -0.0378
26630W        W45484  16.324   0.264  13.683  0.1312 -0.0843 -0.1945
26631W        W45485  14.910   4.444   5.296  0.0798 -0.4267  0.0882
26632W        W45486  15.160   4.892   1.177  0.3143  0.0297 -0.2394
26633W        W45487  16.739  17.208   3.555  0.0837  0.0492  0.2262
26634W        W45488   4.559  13.094  14.549 -0.3558 -0.0114  0.2252
26635W        W45489   4.117   4.405   2.423 -0.1403 -0.0016  0.3072
26636W        W45490   8.841  18.770  14.449  0.0577 -0.1106 -0.0489
26637W        W45491   4.105   3.777   3.901  0.0639  0.1620 -0.3224
26638W        W45492   4.968  12.117  13.130 -0.1790  0.2510 -0.1646
26639W        W45493   3.181   8.176  10.949 -0.2004  0.3033 -0.1398
26640W        W45494   4.736  15.253  13.704 -0.1008  0.3648  0.2589
26641W        W45495  17.963  13.527  14.330 -0.1528 -0.2160 -0.1473
26642W        W45496   0.727   7.429   0.376  0.0474 -0.0632  0.1089
26643W        W45497   1.815  15.141   1.022  0.2322 -0.5001  0.1572
26644W        W45498   5.107  19.022  14.702  0.2710 -0.2354 -0.0673
26645W        W45499  15.306  10.820   2.428 -0.0307  0.1419  0.0947
26646W        W45500  13.574   3.835   3.296 -0.1278 -0.2267  0.0438
26647W        W45501   3.479   8.583  12.677  0.1702 -0.3735 -0.0844
26648W        W45502  15.124   9.055  14.065  0.0619  0.0481  0.2197
26649W        W45503   4.956   0.508   3.632  0.0181 -0.0244 -0.2058
26650W        W45504   2.753  16.410   3.545  0.0167 -0.4914  0.2622
26651W        W45505   1.459  11.079   5.156 -0.2119  0.0103 -0.1286
26652W        W45506  16.416   5.560  10.364 -0.1917  0.1472 -0.1321
26653W        W45507   5.307   7.575   0.105 -0.0338  0.1041  0.0173
26654W        W45508  17.974  16.371  14.104 -0.0743  0.1566 -0.1835
26655W        W45509   9.208   6.699  11.422  0.1133  0.0932 -0.0270
26656W        W45510  13.280  11.897  10.428 -0.1530  0.2865 -0.1581
26657W        W45511  14.191  13.017   0.160  0.2979 -0.3478 -0.2337
26658W        W45512   2.285  14.839   0.897 -0.1091 -0.2233  0.1565
26659W        W45513  16.540   0.839   0.083  0.0620  0.3760  0.2415
26660W        W45514  13.289   5.310  11.799 -0.1539 -0.1290 -0.0685
26661W        W45515   9.367   2.724  11.540  0.0784 -0.0584 -0.1975
26662W        W45516   4.781  16.388  11.017  0.2802  0.0014  0.1335
26663W        W45517  12.280   9.929   0.529 -0.4631 -0.0358 -0.1310
26664W        W45518  16.873  15.590  13.802  0.0542 -0.2087  0.0238
26665W        W45519   2.369   1.198  12.486 -0.2799  0.0721  0.0427
26666W        W45520  14.749  11.186  10.117  0.0963 -0.1460 -0.0547
26667W        W45521  16.691   3.425   2.423  0.0276  0.0346  0.1643
26668W        W45522  11.328  17.432  14.172  0.2462  0.3999 -0.0102
26669W        W45523  13.347  12.175   2.671  0.1496  0.3283 -0.4004
26670W        W45524   4.665   1.710  11.434  0.0582  0.2394  0.0343
26671W        W45525   6.962   1.965   2.476  0.0358 -0.0142  0.3161
26672W        W45526  11.914  11.213   2.712  0.3776 -0.1698  0.0186
26673W        W45527   9.864  12.613   2.249  0.3450 -0.1636  0.0639
26674W        W45528   3.045   1.231  11.099 -0.0357 -0.2401  0.5208
26675W        W45529  18.355  15.712   1.965  0.1627 -0.5048  0.1463
26676W        W45530  13.200   2.299  14.068 -0.2496  0.0417  0.1028
26677W        W45531   6.886   5.708  13.848 -0.1205 -0.0268  0.0345
26678W        W45532   3.383  15.056  13.405 -0.0938 -0.1747 -0.4710
26679W        W45533  15.992  16.728   4.265  0.3172  0.0052  0.2593
26680W        W45534  15.080   9.762   0.742 -0.1159 -0.2759  0.1271
26681W        W45535   2.563  12.319  12.666  0.1168 -0.2349  0.1313
26682W        W45536  11.981  17.829   3.361 -0.0328 -0.1346 -0.5014
26683W        W45537  15.158  15.186  12.158  0.0728  0.2151  0.0247
26684W        W45538   1.219   6.313  13.404 -0.3448  0.2187  0.1715
26685W        W45539   5.077   0.650  12.180 -0.1616  0.0706 -0.0676
26686W        W45540  13.585  14.471  12.908  0.0867 -0.5422  0.2110
26687W        W45541   9.136   8.082   0.433 -0.1391  0.1111 -0.1072
26688W        W45542   4.333  12.078   4.265 -0.0670  0.0596 -0.0316
26689W        W45543  15.481  17.869  14.570 -0.1452 -0.0444 -0.0497
26690W        W45544  10.191   5.498   2.180  0.2282 -0.3027  0.1483
26691W        W45545  15.521   0.140   1.266 -0.0290 -0.2783  0.1109
26692W        W45546  13.111   6.227   3.588  0.1111  0.2125 -0.0433
26693W        W45547  18.164   0.919  13.321 -0.1283 -0.1097 -0.3422
26694W        W45548   9.504  16.633   0.513 -0.2001 -0.0509  0.1460
26695W        W45549  17.630   6.079   3.983 -0.0774  0.0852  0.1120
26696W        W45550  11.203  10.427  14.124 -0.1124  0.1181 -0.3510
26697W        W45551   7.063   2.040   3.817 -0.1473  0.0070 -0.1323
26698W        W45552  16.253  17.562  11.317 -0.0156  0.0545 -0.1636
26699W        W45553  17.884   5.615  10.409 -0.2062 -0.2025 -0.1462
26700W        W45554  18.188  18.507  11.069  0.0309 -0.0380  0.0490
26701W        W45555  14.722  11.742   2.236  0.2803  0.0175 -0.0066
26702W        W45556   3.260  16.324  11.345  0.2143  0.0553 -0.1496
26703W        W45557  17.641  13.606   1.558  0.2010  0.0448 -0.3970
26704W        W45558   9.528  14.806   2.612  0.2620 -0.2304  0.0244
26705W        W45559  17.651   8.980   2.918 -0.0718 -0.1555  0.1633
26706W        W45560   6.284  11.529  13.739 -0.1569  0.0984 -0.1932
26707W        W45561   4.734  14.725   2.925  0.1536 -0.0020  0.0405
26708W        W45562  12.002  11.628   0.000 -0.0524  0.0101  0.0299
26709W        W45563   2.636   8.839   2.609  0.0054 -0.0783 -0.0755
26710W        W45564  10.694   7.631  10.946  0.4236  0.0571 -0.4545
26711W        W45565   7.304   5.206  13.158  0.3906 -0.0021 -0.2725
26712W        W45566  15.670  13.770  14.478 -0.1075  0.1331  0.3603
26713W        W45567   2.268   3.513   4.039  0.0489 -0.4035  0.0709
26714W        W45568   6.835  17.656  10.719  0.1359 -0.1838  0.0104
26715W        W45569   9.768   9.051  14.780 -0.0929 -0.0227 -0.2111
26716W        W45570  16.521   3.223   0.605 -0.0077 -0.0702 -0.1624
26717W        W45571   7.364  16.113   2.578 -0.0136 -0.1591 -0.2858
26718W        W45572  16.909  10.021   0.768  0.2388  0.1946  0.1077
26719W        W45573   0.094  11.710  11.426 -0.0656 -0.0039  0.1202
26720W        W45574   1.280   6.868   5.079 -0.0885 -0.0352  0.1093
26721W        W45575  16.779   9.129  13.763  0.1983  0.0276  0.0277
26722W        W45576  11.518   9.053  11.067  0.1269  0.3041 -0.1111
26723W        W45577   5.148   6.257   2.020  0.2969  0.1068 -0.0046
26724W        W45578  17.037   4.591  14.782  0.0213  0.0012 -0.2631
26725W        W45579  13.440   0.411   3.110 -0.1811 -0.1884  0.0714
26726W        W45580  15.525  11.120   2.732 -0.1513 -0.2544 -0.2083
26727W        W45581  10.831   0.651  10.106 -0.3413  0.1214  0.0759
26728W        W45582  14.260   7.503   3.971  0.1010  0.0740 -0.1768
26729W        W45583  15.627   8.499  11.108  0.1112  0.0875 -0.1928
26730W        W45584  11.505   0.176   1.755  0.1052 -0.2364 -0.1341
26731W        W45585   8.135  10.393   3.506 -0.2690  0.0544  0.0853
26732W        W45586   9.719  18.705   2.744  0.0184 -0.1278  0.0158
26733W        W45587  16.229   1.281  11.522  0.2377  0.0375  0.2686
26734W        W45588   2.773  18.092  14.132 -0.4306  0.2788  0.0174
26735W        W45589   6.276   1.300   0.679  0.3148  0.2146  0.5408
26736W        W45590   4.308   3.368  14.448 -0.1025 -0.0076  0.0992
26737W        W45591   7.892  10.841  10.812 -0.1666 -0.0151 -0.0122
26738W        W45592   6.197  13.574   0.249 -0.2460  0.1162  0.1185
26739W        W45593   7.429  11.418  10.963  0.2433  0.1605  0.0672
26740W        W45594   6.496   7.227   5.110 -0.1901  0.1076  0.0468
26741W        W45595  15.806   5.152   2.400  0.2504 -0.1431 -0.0440
26742W        W45596  10.955  16.613   0.583 -0.0790 -0.0284 -0.1029
26743W        W45597   7.777   3.271  11.657  0.1207 -0.0006  0.3152
26744W        W45598   4.186  14.286   9.390 -0.1345  0.2536  0.1116
26745W        W45599   9.949   4.885   3.016 -0.0923  0.1312 -0.0787
26746W        W45600   7.819  14.064   4.001 -0.0962 -0.1475 -0.1440
26747W        W45601   1.606  15.990   4.289 -0.1223  0.1645  0.1732
26748W        W45602   8.550  13.985   9.814 -0.1255 -0.1243 -0.2456
26749W        W45603   3.526   3.079   1.487 -0.3705 -0.0309 -0.0728
26750W        W45604   5.927  14.800   1.224  0.1488 -0.2011 -0.1558
26751W        W45605  12.482  13.459  11.834  0.0209 -0.0176  0.1327
26752W        W45606   7.574   1.264   1.055  0.0229  0.1629  0.4331
26753W        W45607  13.221  16.361  11.721  0.0018  0.0768  0.2253
26754W        W45608   6.037   3.726   4.026 -0.2998  0.0240  0.0876
26755W        W45609  19.154   8.990  13.948 -0.1941  0.1669  0.0728
26756W        W45610   2.148   0.369  12.970  0.1437  0.0849  0.0508
26757W        W45611  13.488  12.436  13.384  0.1838  0.1862  0.1059
26758W        W45612  15.774   8.403  13.045  0.1180 -0.0875  0.1459
26759W        W45613  15.685  17.939   3.465  0.2530 -0.1816  0.1440
26760W        W45614  17.861   3.182   0.700  0.0343 -0.0602  0.1919
26761W        W45615   8.317   0.839   2.077  0.4239  0.0267  0.0911
26762W        W45616  11.328  18.127   1.039  0.2968  0.0781  0.0833
26763W        W45617   1.604  12.587  13.578  0.2533  0.0128 -0.1158
26764W        W45618   7.581   1.921  10.548  0.0314 -0.1668  0.2163
26765W        W45619   2.170   6.862   1.441 -0.0972  0.1843  0.0388
26766W        W45620  17.539  18.359   1.833  0.2849  0.0521  0.1194
26767W        W45621   1.745   3.586   1.594  0.0973  0.0740 -0.0361
26768W        W45622   9.273  11.836   2.230 -0.0521 -0.0832  0.1077
26769W        W45623   6.449  10.357  11.397  0.0190 -0.1674  0.4177
26770W        W45624   0.555   2.602   0.171 -0.0367  0.2617 -0.1506
26771W        W45625  18.290  16.285  11.304 -0.0310 -0.0982  0.1335
26772W        W45626   8.080  12.995  12.748 -0.0627  0.1907 -0.0013
26773W        W45627  13.132  16.346   3.723  0.1808  0.0853 -0.1436
26774W        W45628   7.288   7.873  12.178 -0.1809 -0.0711 -0.1971
26775W        W45629  12.302   0.051  13.428 -0.0321  0.3669 -0.1552
26776W        W45630  12.104   8.714   0.367  0.1587  0.2325  0.0018
26777W        W45631  13.126  15.907   1.918  0.1749 -0.0226  0.1429
26778W        W45632   0.095   4.936   0.480  0.0992 -0.2482 -0.0046
26779W        W45633   8.541   7.073   0.446 -0.0111  0.0197 -0.1098
26780W        W45634  18.545   8.522   3.972 -0.3712 -0.1226  0.0314
26781W        W45635   6.967   3.765   3.102  0.1095  0.3619  0.1170
26782W        W45636  18.301  10.163   4.123  0.1263  0.4028  0.2014
26783W        W45637   8.782  16.846   4.027  0.3845  0.1580 -0.5556
26784W        W45638  18.828  12.633  12.401  0.2804  0.1555  0.0515
26785W        W45639  11.416  11.218   2.697 -0.0765 -0.1156 -0.3854
26786W        W45640   7.398   1.748   4.070 -0.4082 -0.0913  0.2566
26787W        W45641  10.224  13.392   9.102 -0.0078 -0.0295 -0.2697
26788W        W45642   7.613   9.681  10.745 -0.0296  0.0570 -0.1241
26789W        W45643   6.458   6.441  10.927  0.0131 -0.0521 -0.2846
26790W        W45644   6.557   0.572   0.337 -0.5071 -0.0565  0.1754
26791W        W45645  18.083  18.322  11.693 -0.1185 -0.1082  0.0343
26792W        W45646   4.267   9.959   4.244  0.0541 -0.0219  0.3014
26793W        W45647  14.838  12.053   1.801 -0.1515 -0.1995  0.0832
26794W        W45648  18.475   4.971   3.786  0.1753 -0.1299  0.3193
26795W        W45649   5.499  17.714  13.262  0.2455  0.3544 -0.2392
26796W        W45650   5.321   6.552   3.085  0.1639  0.0746 -0.0526
26797W        W45651  18.799  12.825  12.854  0.0278  0.1361  0.1261
26798W        W45652   2.575  17.750  13.756 -0.3994 -0.2146  0.1736
26799W        W45653   4.503  10.574   3.495 -0.3363  0.1234 -0.0716
26800W        W45654  18.293   9.087  12.746  0.0671 -0.3922  0.1687
26801W        W45655  13.035  16.674   2.852 -0.1005 -0.1372  0.0312
26802W        W45656  18.127  18.958   2.057  0.2596  0.0467  0.3733
26803W        W45657   5.379   6.841   2.663 -0.0877 -0.0864 -0.0397
26804W        W45658   1.254  18.916   0.308 -0.0113 -0.2844 -0.4238
26805W        W45659   9.388   1.495  12.479 -0.0013 -0.0593  0.0838
26806W        W45660   5.220  15.449   3.049 -0.1458  0.1253 -0.1379
26807W        W45661  19.069   1.966   4.026 -0.1625 -0.0789  0.0202
26808W        W45662   3.670  10.785  13.941  0.2111 -0.1429 -0.3038
26809W        W45663  15.059   4.573  12.862  0.0182 -0.1937  0.7688
26810W        W45664  16.913   0.081   2.397  0.0517  0.1314  0.2596
26811W        W45665  14.657   6.001   0.253 -0.3881  0.0074 -0.0796
26812W        W45666   6.225   9.710   1.714  0.1100  0.0227 -0.0707
26813W        W45667  15.509  17.869  13.177 -0.0874  0.0178 -0.1094
26814W        W45668   6.461  16.597  12.341  0.0718 -0.0851  0.0542
26815W        W45669  13.396  11.064   3.769  0.1025 -0.1771  0.1781
26816W        W45670   2.604   9.609   4.738 -0.1933  0.4645  0.0816
26817W        W45671   6.682   1.702   1.964  0.2065  0.1750 -0.3835
26818W        W45672  10.094  16.999  12.545 -0.3956  0.0738 -0.1948
26819W        W45673  11.158  12.526   4.604 -0.4048 -0.0021  0.1100
26820W        W45674   4.934  17.735   0.607 -0.3003 -0.0518  0.1385
26821W        W45675   3.837  12.401   1.882 -0.0785 -0.0772 -0.1440
26822W        W45676   0.847  12.727  13.652 -0.2353 -0.0378 -0.1699
26823W        W45677   7.204  10.299  12.580  0.1848  0.0911 -0.0181
26824W        W45678  13.087   5.505   3.335  0.1648  0.0701  0.0744
26825W        W45679  14.031  15.164  10.335 -0.0198 -0.0988  0.0459
26826W        W45680  12.394   7.636   2.506 -0.1193  0.1571  0.1200
26827W        W45681  11.221  17.883   0.666 -0.1678 -0.1375  0.5073
26828W        W45682  13.469   4.794   0.773  0.3652  0.1001 -0.1556
26829W        W45683  16.594  17.902   3.047  0.0405  0.3223 -0.1085
26830W        W45684   4.905  12.891   3.359  0.1481 -0.2581  0.0170
26831W        W45685   0.073   0.404  14.050  0.1189  0.0707  0.1217
26832W        W45686   5.647   5.963  14.346  0.0412 -0.1387  0.0238
26833W        W45687  12.592   6.607   4.774  0.2160  0.1137 -0.0989
26834W        W45688  11.547   8.538  12.654 -0.1909  0.2844 -0.0976
26835W        W45689   7.372  18.362  14.650  0.0876  0.1918 -0.2122
26836W        W45690   8.748   7.582   0.519  0.2311 -0.1640 -0.2137
26837W        W45691   1.002   6.312   5.132  0.0448 -0.0498  0.0252
26838W        W45692  17.582   1.785   1.643  0.0026 -0.0286 -0.1966
26839W        W45693   7.525  13.099  12.000 -0.0199 -0.1097  0.1589
26840W        W45694  13.792   7.639  12.207  0.3398  0.0488 -0.3343
26841W        W45695  11.731   1.972   2.782 -0.0153  0.1377 -0.0394
26842W        W45696  11.090  11.742  14.192  0.0417 -0.0429  0.2418
26843W        W45697   0.427  18.308  12.836  0.1008 -0.1460  0.0608
26844W        W45698  13.874   0.402   2.711 -0.2894 -0.1449 -0.0368
26845W        W45699  13.329   0.991   1.376 -0.0335  0.3132  0.0577
26846W        W45700   0.569  10.438  14.095 -0.2510  0.4614 -0.1260
26847W        W45701  12.229  18.236   1.288  0.1473  0.2341  0.1331
26848W        W45702   9.763   3.339   3.604  0.2299 -0.2665  0.1857
26849W        W45703  17.699   5.022   2.077  0.2888  0.2681 -0.4677
26850W        W45704  17.143   0.309  10.546 -0.1318 -0.0949 -0.0765
26851W        W45705   5.944   4.033  10.505  0.0780 -0.0636 -0.1446
26852W        W45706   2.537   7.406  11.808  0.2559  0.0270 -0.3047
26853W        W45707  15.842  12.847  11.394 -0.1764 -0.0440  0.1975
26854W        W45708  12.087   6.391   1.662  0.0671  0.0379 -0.1653
26855W        W45709  10.012   8.264   0.110  0.1081  0.2357  0.1111
26856W        W45710   3.154   9.853  13.517 -0.1550 -0.0439 -0.0393
26857W        W45711  11.773   5.526  11.593 -0.2891 -0.0159 -0.0106
26858W        W45712   7.319   2.089   1.616 -0.0679 -0.1643 -0.0393
26859W        W45713   5.410  14.717   4.129 -0.1290 -0.0363 -0.0544
26860W        W45714   3.032   3.626  13.602  0.4010 -0.3353  0.1029
26861W        W45715  13.483  10.096   3.558  0.0948 -0.1244 -0.0656
26862W        W45716  17.712   3.080   0.130  0.2654  0.2732 -0.3505
26863W        W45717   6.105  14.315   1.520  0.3007 -0.0013  0.1993
26864W        W45718   4.644  18.987   1.701  0.0544 -0.1567 -0.1101
26865W        W45719  10.311  10.608  14.793  0.1688  0.2470 -0.2665
26866W        W45720   8.773   9.688   9.831  0.0413 -0.3555  0.0018
26867W        W45721   0.674   6.731  11.381 -0.2214  0.1366  0.0023
26868W        W45722   9.429  17.081  13.544 -0.5447 -0.0120  0.0341
26869W        W45723  13.620   4.210   3.676 -0.1801 -0.2183 -0.1168
26870W        W45724   3.460  15.145   2.749 -0.4260 -0.0460 -0.1831
26871W        W45725  12.256  10.702   0.687  0.0632 -0.2249  0.0885
26872W        W45726  16.294  16.019   1.011 -0.0129 -0.1149  0.1272
26873W        W45727  17.465   3.194   3.747  0.0182  0.0212 -0.1344
26874W        W45728  12.465   6.427   0.089  0.0200 -0.0268  0.0296
26875W        W45729   3.693   6.252  12.364  0.1552  0.0237 -0.0351
26876W        W45730   8.861  14.447  11.666 -0.2730  0.0153 -0.0490
26877W        W45731  16.746  18.646   1.196 -0.4028  0.1351  0.1003
26878W        W45732   9.129  18.547  14.031 -0.0192 -0.3013 -0.1451
26879W        W45733  14.251  16.593  11.730  0.1087  0.0197 -0.1109
26880W        W45734   0.668   1.352   1.972 -0.0834 -0.0753  0.1018
26881W        W45735   0.969  10.326  12.703  0.0723  0.2807 -0.0860
26882W        W45736   6.699   2.341  13.850 -0.2378 -0.2388 -0.2225
26883W        W45737  16.262  12.730   3.260  0.2120  0.1146  0.0482
26884W        W45738   4.809   1.863   0.777 -0.1060  0.1268  0.1139
26885W        W45739   0.369   4.221  14.565 -0.0255 -0.0097  0.3530
26886W        W45740  13.135  13.753  11.125 -0.0136 -0.1492 -0.2271
26887W        W45741   9.800   4.276   0.848 -0.0398 -0.0022 -0.1405
26888W        W45742  14.144  12.800  13.901 -0.0817 -0.0515 -0.0070
26889W        W45743  10.342   8.593   3.752 -0.3076  0.0972 -0.2027
26890W        W45744  18.704  11.849  11.276  0.1046  0.1072  0.1055
26891W        W45745   8.394  15.148   0.809 -0.1380  0.0421 -0.0907
26892W        W45746   7.112  18.139  12.704 -0.1834  0.0638 -0.1129
26893W        W45747  14.301  16.992  12.158  0.0851  0.0164  0.0368
26894W        W45748   0.723  17.361  11.128 -0.1814 -0.4661  0.1768
26895W        W45749  17.405  18.139  13.943  0.1942  0.1908  0.0873
26896W        W45750   1.636  10.538   4.094  0.3169  0.5388 -0.1697
26897W        W45751   2.148   6.590   3.931 -0.2084  0.1141 -0.0311
26898W        W45752  15.703  15.025   2.089  0.3113  0.1099  0.1274
26899W        W45753  17.047  15.602   2.912 -0.1474  0.0988 -0.0920
26900W        W45754  16.639   3.050   2.005 -0.1773 -0.1317  0.2233
26901W        W45755  12.413  17.324   3.884 -0.4338  0.2896 -0.1401
26902W        W45756   9.430  16.063   3.959  0.1659 -0.2776 -0.0762
26903W        W45757   7.178   5.876   0.427 -0.0792  0.1860  0.1646
26904W        W45758  15.061  16.020   4.325 -0.0163  0.0753  0.1424
26905W        W45759  17.585   1.985   4.257  0.1974  0.1712 -0.0818
26906W        W45760  11.274  16.354  11.014 -0.1460 -0.3312  0.0731
26907W        W45761  13.384   7.256   2.952  0.2103  0.1305 -0.1503
26908W        W45762  18.557  18.143   1.668  0.0083  0.0470 -0.2021
26909W        W45763   1.261   9.379   1.571 -0.0637  0.1234 -0.2354
26910W        W45764   8.425   4.270   3.101 -0.2511 -0.2251 -0.2090
26911W        W45765   1.737  13.938   4.818 -0.0661  0.1464 -0.0974
26912W        W45766   5.003  18.404  14.206 -0.1533  0.3436  0.1627
26913W        W45767  18.176  16.611   0.862  0.1111 -0.2746 -0.1209
26914W        W45768  14.837   1.779   1.814  0.1969 -0.0592  0.2001
26915W        W45769  13.810   0.969  14.070  0.4728  0.0639  0.2043
26916W        W45770  15.554   4.888   3.847  0.1549  0.0498  0.0903
26917W        W45771   5.354  15.988   0.755 -0.1020 -0.2135  0.1132
26918W        W45772   2.116  17.507   1.260  0.2952 -0.1249 -0.0519
26919W        W45773  17.870  18.922  11.420 -0.2338  0.1228  0.4007
26920W        W45774   6.999   5.160   1.740  0.2730  0.1321 -0.2449
26921W        W45775  17.356   2.286   1.364 -0.1042 -0.1767 -0.0010
26922W        W45776  13.751   3.831  14.373  0.0536  0.1421 -0.0496
26923W        W45777  14.021  12.012  14.540 -0.2660 -0.1059  0.4503
26924W        W45778  16.186   6.492  11.352 -0.1741  0.2754 -0.0081
26925W        W45779  14.533   0.334  10.910  0.1398  0.0258  0.1067
26926W        W45780   9.814   2.759  13.059 -0.4268 -0.2301 -0.2252
26927W        W45781  17.495   3.288   2.446  0.0828 -0.1188 -0.0369
26928W        W45782  10.419  15.368   2.191 -0.1118  0.1945 -0.2724
26929W        W45783   9.231   2.060  13.642  0.1317  0.0640  0.2324
26930W        W45784   4.511   4.861   1.553  0.1099 -0.4705 -0.1718
26931W        W45785  17.504  15.274  12.246  0.2875  0.0870  0.0727
26932W        W45786   2.933   8.533  10.652 -0.0506  0.1299 -0.2629
26933W        W45787  16.061   1.621  11.851  0.0572 -0.0601  0.1706
26934W        W45788  18.725   2.076   3.568  0.0609  0.0679 -0.0500
26935W        W45789  14.128  18.117  13.065 -0.2928  0.5416  0.0959
26936W        W45790   7.055  13.566   2.818  0.0315  0.0016 -0.2817
26937W        W45791  15.471   2.110  14.333  0.0243  0.1049 -0.2179
26938W        W45792   2.850  12.347  12.030  0.0093 -0.0239 -0.3689
26939W        W45793  12.493   6.302  13.308  0.2364  0.0042  0.1843
26940W        W45794   0.443   7.360   2.436 -0.2649 -0.0353 -0.2176
26941W        W45795  11.654  11.933  11.456 -0.0975 -0.0976  0.0671
26942W        W45796   8.877  11.445   4.338  0.0434  0.0897  0.0500
26943W        W45797  12.425  12.242  13.895 -0.1259 -0.0355  0.2972
26944W        W45798   9.355   0.070  11.806 -0.2491  0.1626  0.1193
26945W        W45799  18.438   5.713   1.320 -0.1780  0.2459 -0.1397
26946W        W45800   3.365  12.818  14.426 -0.2668  0.0285  0.1384
26947W        W45801  18.434   4.421   2.471 -0.2155  0.1532  0.1216
26948W        W45802  19.106  13.337  10.815  0.1048  0.1834 -0.1779
26949W        W45803  18.711  15.462   1.094 -0.1327  0.1380  0.1052
26950W        W45804   8.073  11.293  13.063  0.1843 -0.0751 -0.1312
26951W        W45805  13.070   9.331  11.718  0.0924 -0.0609 -0.0530
26952W        W45806  12.558  13.871   1.772 -0.0671 -0.4924  0.0296
26953W        W45807   7.238  11.216  12.285  0.0070 -0.3492  0.0038
26954W        W45808  16.258  13.902  11.863  0.0285 -0.0591 -0.1008
26955W        W45809   9.091   5.073  11.622 -0.1185 -0.0524  0.0644
26956W        W45810   5.120  15.028   0.341  0.2017 -0.1387  0.0803
26957W        W45811  11.445   4.609   3.230 -0.1731 -0.0691  0.0524
26958W        W45812  13.204  15.437  11.580  0.1656 -0.1655  0.0070
26959W        W45813  14.057   1.320   2.638  0.2504 -0.0722  0.2651
26960W        W45814   3.912  16.173   1.412  0.0558  0.2952  0.1023
26961W        W45815   2.044   8.355   0.117 -0.3422  0.1708 -0.0473
26962W        W45816   6.820  11.499   1.324  0.1845  0.3305  0.0084
26963W        W45817   2.174  12.858   0.374 -0.2419 -0.0190  0.0444
26964W        W45818   9.916   6.829   0.467 -0.1507  0.2160 -0.1472
26965W        W45819   9.479   9.374  14.459 -0.0257 -0.0701  0.1182
26966W        W45820   9.718   1.491   2.620  0.2034 -0.1980 -0.2201
26967W        W45821   1.625  15.969   0.222 -0.0540  0.0208 -0.1039
26968W        W45822   8.058  16.164  12.225 -0.0784 -0.0661 -0.1867
26969W        W45823   3.763   9.681  11.624 -0.0313 -0.1298  0.0993
26970W        W45824   9.029  11.948  10.885 -0.0678 -0.1074 -0.0020
26971W        W45825  11.444  11.719  11.043  0.0041 -0.0245 -0.1032
26972W        W45826   7.676  12.907   1.474  0.0792  0.1370  0.0613
26973W        W45827   8.833   7.040   2.582  0.2245  0.2696 -0.0574
26974W        W45828  13.010   0.106  11.058  0.1177  0.2245  0.0461
26975W        W45829   8.065   7.005   0.423  0.1835  0.1402 -0.1964
26976W        W45830   6.811  11.905  10.341  0.0884 -0.0373  0.0993
26977W        W45831   5.609   9.601  13.241  0.2122 -0.3554 -0.0777
26978W        W45832  12.739  11.556   1.021 -0.1231 -0.4032 -0.1613
26979W        W45833   5.561   6.771  12.173  0.0554  0.0448 -0.3587
26980W        W45834  11.695  12.706   3.232 -0.0645 -0.0153  0.0518
26981W        W45835   6.283  19.153   1.178 -0.1233  0.3567  0.1232
26982W        W45836  12.447   3.188   3.423 -0.0057  0.3281 -0.0470
26983W        W45837   7.008   8.631  11.461 -0.0940 -0.0126  0.0958
26984W        W45838   5.297   6.612  11.090 -0.0879 -0.0437  0.2484
26985W        W45839  17.165  15.948  12.854  0.0292  0.0394 -0.2120
26986W        W45840  16.642   9.659  10.855  0.2955 -0.1791  0.0499
26987W        W45841  10.212  18.964  14.157  0.0465 -0.2367 -0.0096
26988W        W45842   5.234   9.248  11.526 -0.2116 -0.1741 -0.2706
26989W        W45843   1.946  14.647   0.151 -0.1427 -0.2809 -0.4860
26990W        W45844  16.484  17.232  13.327 -0.1215  0.2540 -0.0247
26991W        W45845  16.944   7.669  12.105 -0.1069 -0.1902 -0.0880
26992W        W45846   3.555   5.835   3.085 -0.1741 -0.1960 -0.2272
26993W        W45847   6.829  17.371   0.360 -0.1959 -0.1152 -0.0349
26994W        W45848   8.724   4.082   1.560 -0.0911 -0.0700  0.1153
26995W        W45849   5.980   0.595  10.439 -0.2616  0.2240  0.1475
26996W        W45850  19.128  16.308  10.527 -0.0346  0.0522 -0.0534
26997W        W45851  16.851   4.911   3.425 -0.3609  0.0876 -0.2543
26998W        W45852  12.475   3.130  14.013 -0.0252  0.0171 -0.0379
26999W        W45853  10.951  18.918   2.049 -0.0638 -0.0067  0.0657
27000W        W45854  11.637   5.509   3.970 -0.3462  0.2832  0.1264
27001W        W45855  14.222   5.822  13.267  0.0597 -0.2989 -0.0956
27002W        W45856   5.293   9.882  10.837 -0.0201 -0.0398  0.3899
27003W        W45857   1.477   9.838   0.334 -0.1851 -0.0222  0.3013
27004W        W45858   4.488   5.400   1.735 -0.0916 -0.1094 -0.3173
27005W        W45859  11.475   8.060  11.346  0.3240 -0.1375 -0.0605
27006W        W45860  17.615   5.237  10.940  0.1369 -0.0673  0.0808
27007W        W45861   1.220  18.494   3.564  0.0643 -0.3776  0.3700
27008W        W45862   2.928  14.814  12.660 -0.0036  0.0130  0.1201
27009W        W45863   7.998   9.522  13.910  0.0066 -0.0237  0.3174
27010W        W45864   8.751  16.087   3.936  0.1163  0.2085 -0.2199
27011W        W45865   1.019   3.360  11.715  0.2247 -0.0287 -0.4938
27012W        W45866   5.165   0.068   2.231 -0.1406 -0.0600  0.0433
27013W        W45867  11.614  10.815   4.046  0.1162 -0.1081 -0.1302
27014W        W45868   9.650  11.433  10.581  0.0479  0.2412 -0.3479
27015W        W45869  12.410  13.853  12.636  0.1154  0.0177  0.0377
27016W        W45870  11.416  15.234   2.582  0.0572 -0.1955  0.1006
27017W        W45871   5.517   1.655   2.367  0.2869  0.0296  0.1068
27018W        W45872  18.530   1.014   1.813  0.5218 -0.1938 -0.0561
27019W        W45873  13.454   7.949   4.203 -0.2132 -0.1967 -0.2774
27020W        W45874  15.535   3.905   9.561  0.2145 -0.3423 -0.0209
27021W        W45875   1.366  15.805  12.437 -0.0877  0.0089 -0.0146
27022W        W45876   7.566   6.657  11.349 -0.2162 -0.1943  0.0880
27023W        W45877   7.571  17.375   0.850 -0.0103  0.3113 -0.2583
27024W        W45878  13.615  17.770  10.730 -0.0075 -0.2383  0.0201
27025W        W45879   6.081   8.182  13.401  0.4662  0.0977  0.0086
27026W        W45880   2.567  12.652  13.429 -0.4668  0.1486  0.1826
27027W        W45881   9.721  17.703   2.564  0.1911  0.1348 -0.1828
27028W        W45882   3.229   5.890  12.804  0.0439 -0.0820 -0.4034
27029W        W45883  15.896  11.985   0.495  0.0377  0.0691 -0.2633
27030W        W45884   1.830  14.585  13.864 -0.3687  0.1427 -0.0996
27031W        W45885  11.577  10.881  12.357  0.1152 -0.0237 -0.2060
27032W        W45886   2.717  14.744   1.545  0.0733  0.2971 -0.1311
27033W        W45887   2.927   0.128   1.753  0.3960 -0.0155 -0.5084
27034W        W45888   7.982  12.492   1.255  0.3621 -0.3298 -0.4022
27035W        W45889   5.828  13.947   2.910 -0.1587 -0.1166  0.1185
27036W        W45890   5.519  14.693   3.310  0.2865  0.2333  0.0515
27037W        W45891   7.479   3.599   1.962 -0.0722  0.1260  0.0518
27038W        W45892   7.887  14.896  13.748 -0.1673  0.0327  0.1833
27039W        W45893   3.816   6.966  13.922  0.1237 -0.1142 -0.0274
27040W        W45894  17.384  13.920   0.999  0.1872  0.1798 -0.0485
27041W        W45895   1.715   3.481   4.029  0.1313 -0.2246  0.1081
27042W        W45896  11.066  18.275  10.552 -0.2135  0.0476 -0.0715
27043W        W45897  18.915   7.010  12.821 -0.1500  0.3016 -0.0778
27044W        W45898  12.422  16.005   1.410 -0.0195  0.1941 -0.3926
27045W        W45899   5.952  18.522   0.162  0.3080  0.2583 -0.3032
27046W        W45900   4.103  18.114  11.803  0.1113 -0.1437  0.1440
27047W        W45901   9.327  10.624   0.065  0.2199 -0.0806  0.0023
27048W        W45902   3.499  10.430  12.010  0.1732 -0.3086 -0.1434
27049W        W45903   4.829   6.253  13.216  0.3845  0.1111 -0.4647
27050W        W45904   4.315   5.274   2.803 -0.0311  0.0262 -0.1892
27051W        W45905  10.059  11.590  11.800 -0.0336 -0.1674  0.0018
27052W        W45906  15.823   0.408   0.927 -0.0403  0.0238  0.0910
27053W        W45907  18.827   2.654   2.184  0.3478  0.3646 -0.2806
27054W        W45908   6.116   2.363   4.138 -0.1627  0.0298  0.1522
27055W        W45909  15.344   0.449   0.221 -0.1228 -0.4760 -0.2251
27056W        W45910  18.284  16.319  14.786 -0.0645 -0.0196  0.0120
27057W        W45911  17.992   4.814  12.198  0.1997  0.1939 -0.2881
27058W        W45912   2.148   8.539  12.342 -0.2158 -0.1422 -0.0821
27059W        W45913  11.373   5.931   3.877 -0.2055  0.2252  0.1365
27060W        W45914   9.419   3.688  10.707  0.0201 -0.3266 -0.0902
27061W        W45915  17.059   9.437   0.142 -0.0848 -0.3110  0.2653
27062W        W45916  14.403  11.326  11.462  0.1387 -0.1141 -0.2304
27063W        W45917  13.260   5.478  12.617 -0.3113  0.1497  0.2079
27064W        W45918   8.803  15.070   1.139  0.0780  0.3857  0.1995
27065W        W45919  13.646  10.120  11.665 -0.0738  0.1108  0.2822
27066W        W45920  18.292  10.052   2.735  0.0425 -0.3140  0.0973
27067W        W45921   7.311   2.416   9.841  0.2187  0.0460  0.1123
27068W        W45922   4.209  18.141   0.834  0.1367  0.1558  0.0382
27069W        W45923  17.934   2.307  13.851  0.2354 -0.2824 -0.3208
27070W        W45924   8.693   8.602   9.771 -0.0013 -0.0031 -0.1080
27071W        W45925  17.311   3.872  10.852  0.0055  0.5875  0.0972
27072W        W45926  13.512   9.404  12.217 -0.0994  0.1636 -0.1090
27073W        W45927  17.129   1.598   9.984  0.0848 -0.2177  0.0026
27074W        W45928  14.481   6.457   4.546 -0.2037  0.2718  0.0657
27075W        W45929  10.659  15.817   3.895 -0.2776 -0.0546 -0.1155
27076W        W45930   8.471   7.595  11.062 -0.0561  0.0902  0.4677
27077W        W45931   8.418  19.005  14.720  0.1946 -0.0660  0.1423
27078W        W45932  10.569  18.602  13.852 -0.0138 -0.1512  0.1302
27079W        W45933   9.308  17.378   2.616  0.0059  0.0919  0.1248
27080W        W45934   5.935  10.088  12.185  0.1462 -0.0717  0.1283
27081W        W45935   4.063   5.551  12.984 -0.2186 -0.1501 -0.3420
27082W        W45936  15.778  16.978   3.709 -0.1113  0.1494 -0.1389
27083W        W45937   1.906   9.445   3.052 -0.3426 -0.3372  0.0173
27084W        W45938   7.807  17.769  11.555 -0.0724 -0.2693 -0.0779
27085W        W45939  11.706  14.173  14.503 -0.2800 -0.0342  0.0127
27086W        W45940  11.573  15.097  10.456  0.1236  0.0402 -0.0005
27087W        W45941   3.699  13.987  11.694  0.1941 -0.0271 -0.0746
27088W        W45942  14.804  11.862   3.747 -0.0985  0.1174  0.0734
27089W        W45943   7.261   9.932   3.173  0.0204 -0.3959  0.1840
27090W        W45944   0.005  12.310  13.677 -0.0206 -0.0841 -0.2177
27091W        W45945  15.858   4.425  11.861 -0.1155 -0.2689 -0.0547
27092W        W45946   7.786  18.148  12.419  0.0101  0.0514 -0.0461
27093W        W45947   9.652   1.781   1.149  0.4148  0.0630  0.2064
27094W        W45948   8.574   3.511  13.319  0.2482 -0.0120 -0.1773
27095W        W45949   6.266   8.179   1.159 -0.0600 -0.2500  0.0559
27096W        W45950  17.403  17.381  12.880  0.3395 -0.1053 -0.0794
27097W        W45951  13.073   4.988   3.486 -0.0767 -0.2702 -0.2272
27098W        W45952  18.771  10.721   2.987  0.1217 -0.0696 -0.1423
27099W        W45953  15.519   3.167  11.548  0.0958 -0.0522 -0.1060
27100W        W45954  11.567  15.759   1.798  0.1090 -0.2075  0.1370
27101W        W45955   2.047   9.034  10.940 -0.0079  0.1599 -0.0739
27102W        W45956  17.197  16.754   2.225  0.1979 -0.0672 -0.1580
27103W        W45957   4.516  14.541   4.514 -0.1248  0.1442 -0.0236
27104W        W45958   1.042  15.242   3.720 -0.0485 -0.2727 -0.1199
27105W        W45959   3.325   2.027   4.226  0.1233  0.1024  0.3821
27106W        W45960   6.588   3.484  10.683  0.1402 -0.1050 -0.0658
27107W        W45961  13.316   2.384   1.194 -0.0805  0.1737  0.1847
27108W        W45962   1.419   1.436  12.694  0.0456  0.0988 -0.0219
27109W        W45963  16.848   4.048  10.797 -0.1352  0.1217  0.2121
27110W        W45964   6.085  10.938  11.051  0.1416  0.0015  0.2992
27111W        W45965  13.713  15.481  12.300  0.0795  0.0292 -0.1467
27112W        W45966   5.666  13.323  14.746 -0.2430 -0.2966  0.2251
27113W        W45967  18.387   3.594  12.197  0.0750  0.2545 -0.1747
27114W        W45968  17.745   5.020   1.305  0.0070 -0.1101  0.0758
27115W        W45969   1.184  15.780  14.122 -0.3495  0.3132  0.1063
27116W        W45970  15.463  10.063  12.155 -0.1006 -0.1971  0.2841
27117W        W45971   8.509   5.235  13.682 -0.1435  0.1828 -0.1379
27118W        W45972  17.972   1.895  11.664  0.1070  0.2932 -0.2558
27119W        W45973  18.295   8.715   2.434 -0.1552 -0.0502  0.2088
27120W        W45974   9.301   0.466   4.036  0.2685  0.0247 -0.1366
27121W        W45975   5.823   1.285  13.890  0.1009  0.2685  0.2956
27122W        W45976   2.271  19.052  14.102 -0.3043  0.1248 -0.0720
27123W        W45977   7.867  13.653   0.424 -0.0541  0.0222  0.0065
27124W        W45978   6.523   1.325   1.454  0.0218 -0.1169 -0.0720
27125W        W45979  17.243   3.104  11.847 -0.0630  0.0902  0.1722
27126W        W45980   4.020   4.097   0.081  0.3234  0.2417 -0.2849
27127W        W45981  10.041   4.830   3.877  0.2635 -0.0555  0.0908
27128W        W45982  17.936   1.106   0.214  0.0803  0.1141 -0.1984
27129W        W45983  14.677   5.228  13.805 -0.2038  0.1881  0.1437
27130W        W45984   1.389   7.077   1.628 -0.2701 -0.0986  0.1558
27131W        W45985   4.724   6.618   4.346  0.1804 -0.3244 -0.3596
27132W        W45986  12.436   1.052  13.930 -0.0123 -0.2699  0.1145
27133W        W45987   3.728  17.846   2.418  0.2189  0.1774  0.0446
27134W        W45988  10.312   9.903  13.877 -0.1333  0.2256  0.1201
27135W        W45989  15.907  12.617   9.690 -0.0877 -0.1367  0.3434
27136W        W45990  16.807   5.167  11.477  0.0974  0.0783 -0.0833
27137W        W45991   1.905  10.544  13.755  0.2926 -0.0102  0.2997
27138W        W45992   8.822  10.370  13.634  0.0912  0.1960  0.0250
27139W        W45993  17.393  18.461  12.920  0.2036  0.3636  0.1886
27140W        W45994   6.362  17.389   0.700  0.3331 -0.0470  0.0437
27141W        W45995  13.044  13.194  13.792  0.0553  0.1756  0.0937
27142W        W45996  18.994  16.548  11.250 -0.0031 -0.1220 -0.0477
27143W        W45997  15.507  13.484  12.975  0.0504  0.3635 -0.0225
27144W        W45998   0.607  13.435  14.288  0.0150 -0.2636 -0.0205
27145W        W45999  18.966   2.886   0.447  0.3564 -0.0475 -0.2256
27146W        W46000  18.354  12.089  14.770 -0.0687  0.0300  0.3139
27147W        W46001   1.360  16.478  13.778 -0.2100 -0.0275  0.5602
27148W        W46002  18.456  18.151  11.373  0.2382  0.0852  0.3129
27149W        W46003   2.681  12.294   1.915  0.0336  0.0078 -0.1726
27150W        W46004   2.618  14.734  12.199 -0.0327 -0.3098 -0.0039
27151W        W46005   4.437   5.133   5.307 -0.0637  0.2435  0.0525
27152W        W46006   9.939   9.611  12.492  0.3865 -0.1308 -0.2450
27153W        W46007  10.047   4.798  14.753 -0.2229 -0.0550 -0.1922
27154W        W46008   2.328   2.316  14.616  0.0039  0.2079  0.0128
27155W        W46009  18.213   7.786  13.086  0.1705  0.2384  0.2014
27156W        W46010  16.092  17.821   1.010  0.0198 -0.4509 -0.0290
27157W        W46011  11.025   1.019   0.833 -0.1021 -0.0439  0.1755
27158W        W46012   6.801  17.511   0.874 -0.1667  0.0861  0.1405
27159W        W46013   3.466   4.058  12.480  0.3256 -0.1180  0.1390
27160W        W46014   5.106   0.009   1.737 -0.1713 -0.0339 -0.0399
27161W        W46015  11.424   5.519   0.918 -0.0907 -0.1613  0.0208
27162W        W46016  10.319   8.461   3.295  0.2834  0.0000  0.2384
27163W        W46017   5.183  15.167  11.495 -0.1346 -0.3693  0.1116
27164W        W46018   1.113   3.885   3.806  0.2461 -0.1911 -0.1727
27165W        W46019   1.486  15.577  14.788 -0.2309  0.1117 -0.0851
27166W        W46020  12.647  18.894   2.900 -0.0385  0.0519  0.0802
27167W        W46021   2.912   6.455   2.090 -0.2209  0.1706 -0.0362
27168W        W46022   7.972   6.994   3.048 -0.1861 -0.0550 -0.1980
27169W        W46023  11.108   1.360  14.233 -0.0376  0.0390 -0.2451
27170W        W46024   5.926   9.441   3.287 -0.0667  0.3413  0.0004
27171W        W46025  11.055  13.096  10.864  0.4476  0.1300 -0.0558
27172W        W46026  14.073   9.192   1.104  0.0495 -0.0563 -0.3121
27173W        W46027   9.494  18.653  11.196 -0.1113 -0.1645  0.0720
27174W        W46028  18.740  11.790   0.129 -0.1310 -0.2203  0.2334
27175W        W46029   2.165   3.370  11.083 -0.2532 -0.0991  0.7198
27176W        W46030   2.355  16.436   0.077  0.0877  0.2430 -0.1482
27177W        W46031  12.389   8.531  14.229 -0.0179 -0.1888  0.2146
27178W        W46032  15.642   7.545   2.961 -0.2438  0.0597 -0.1064
27179W        W46033  13.192   7.287   2.447  0.1257 -0.0814  0.0868
27180W        W46034  18.960   4.793  14.735  0.2269 -0.1387 -0.1831
27181W        W46035  11.088  15.044  13.255  0.1480  0.2282  0.2445
27182W        W46036  10.649  10.440  10.725  0.2342 -0.1283  0.3419
27183W        W46037  13.628   6.201   2.802 -0.0057  0.1440 -0.2628
27184W        W46038  14.270   4.689   3.282 -0.2414 -0.0525  0.0135
27185W        W46039   8.894  17.596   2.836 -0.0272 -0.1019  0.0769
27186W        W46040  13.213  17.496   2.577 -0.1205 -0.3642 -0.1130
27187W        W46041   8.598  15.583   0.777 -0.0264 -0.3539 -0.2493
27188W        W46042  12.258   8.588  11.578  0.2754 -0.0549  0.3678
27189W        W46043  18.695   6.780  10.969  0.0797  0.1513  0.0413
27190W        W46044  12.530   7.967   1.912  0.0709 -0.2082  0.3343
27191W        W46045  17.331   4.504  14.253 -0.2915 -0.0720  0.0680
27192W        W46046  12.104  15.530   3.827 -0.1907  0.1795  0.1473
27193W        W46047   9.037  17.532  11.096 -0.1506 -0.1776 -0.2409
27194W        W46048   3.079   7.610  11.429 -0.2811 -0.1565 -0.4008
27195W        W46049  13.590  11.416   4.299  0.1050  0.0958 -0.1716
27196W        W46050  10.584  15.925   0.919  0.0773 -0.1434 -0.0165
27197W        W46051  15.782  17.485   3.107  0.0302 -0.1201  0.0149
27198W        W46052   8.913   6.679   0.596  0.2159  0.2579 -0.1144
27199W        W46053   3.360  19.122  13.647  0.1549 -0.3637 -0.0520
27200W        W46054  17.069   3.518   2.165 -0.1344  0.0172  0.0712
27201W        W46055   1.901  16.150  11.328  0.1671 -0.1684  0.2070
27202W        W46056   9.261   6.721   2.586  0.2606  0.0712 -0.2320
27203W        W46057  10.764  18.014   2.521 -0.3151  0.0029 -0.3301
27204W        W46058   7.591   6.110  13.107 -0.2113 -0.1277 -0.0244
27205W        W46059   1.051  13.595   9.721 -0.1174  0.3544 -0.0481
27206W        W46060  15.273   6.237  11.338 -0.0622 -0.0885  0.0803
27207W        W46061   4.148   3.701  13.028  0.2446  0.0252 -0.1803
27208W        W46062   4.301   6.900   4.063  0.1636 -0.1700 -0.1249
27209W        W46063   7.900  15.326   0.012  0.2200 -0.0722  0.1454
27210W        W46064  12.220   1.668   1.416  0.3325 -0.0327  0.2520
27211W        W46065   2.953  18.408  13.644  0.2614  0.1382  0.2715
27212W        W46066   9.696   1.059  11.039  0.1103 -0.0801 -0.0316
27213W        W46067  11.191   7.915  13.136  0.2594  0.1069  0.5071
27214W        W46068  15.155   9.741  13.292  0.0982 -0.2283  0.0351
27215W        W46069   8.192   2.578   2.401 -0.0486 -0.0883  0.0048
27216W        W46070  17.999  14.275   1.676  0.1048  0.1991  0.2350
27217W        W46071   7.423   0.876   1.408 -0.1063  0.1706 -0.1464
27218W        W46072  11.850   5.976   3.917 -0.2175 -0.1845  0.1990
27219W        W46073  10.044  11.021  11.012 -0.1337 -0.1016 -0.0826
27220W        W46074  18.581  12.072  10.824 -0.2095  0.0303 -0.2135
27221W        W46075  13.598  17.981   3.657 -0.2141 -0.4150  0.2840
27222W        W46076   7.094   0.645  10.624  0.2035 -0.2318 -0.3683
27223W        W46077  10.678   7.649   4.482 -0.1252  0.2513  0.3150
27224W        W46078  13.957   7.203  11.927  0.1164  0.1001 -0.2107
27225W        W46079   0.593   6.469   1.752  0.1976  0.2567 -0.2272
27226W        W46080  10.890   6.628  10.609  0.2018  0.2922 -0.3300
27227W        W46081   0.318   6.901  12.663  0.1131 -0.0365 -0.1135
27228W        W46082  17.420  14.846   1.433 -0.1938  0.2002 -0.1367
27229W        W46083   6.422   9.657   1.219  0.3082 -0.4176 -0.0304
27230W        W46084   6.973   4.974  12.713 -0.1399 -0.2101 -0.2883
27231W        W46085   5.687  10.951   1.288  0.0587 -0.0691  0.0992
27232W        W46086  11.202   0.805   3.459 -0.0830  0.1188  0.2080
27233W        W46087   4.127   5.068   9.533 -0.1053  0.1362 -0.1160
27234W        W46088   1.984   6.152   3.686  0.2558  0.1463  0.0812
27235W        W46089   8.426   7.319   2.772  0.2037 -0.1042 -0.0709
27236W        W46090   7.406  18.683  11.290 -0.3846 -0.3703 -0.1702
27237W        W46091   2.564  11.053   2.309 -0.1910 -0.1252 -0.0298
27238W        W46092   5.758   6.201  13.294 -0.1440  0.2753  0.1471
27239W        W46093   6.203   2.559   2.301 -0.1767 -0.0093  0.0886
27240W        W46094   5.228   2.323  12.898 -0.0716  0.5410 -0.4341
27241W        W46095  11.868  16.203   0.095 -0.2125  0.0649  0.2073
27242W        W46096   0.024  18.671   2.244  0.2722  0.0703 -0.0131
27243W        W46097   0.004  11.581   3.326  0.0483 -0.0940  0.0246
27244W        W46098   7.684   8.110  12.546  0.0856 -0.1900 -0.2393
27245W        W46099   1.228  10.892   2.383 -0.2139  0.0215  0.0620
27246W        W46100   5.045  10.700   1.933  0.2022  0.1328 -0.0122
27247W        W46101  16.731   7.830   4.940  0.0338  0.2639 -0.2264
27248W        W46102   6.387   2.179   3.281 -0.0160  0.1743 -0.1211
27249W        W46103   8.288   9.238  11.988 -0.3615  0.1617 -0.5176
27250W        W46104  17.295  11.644  12.175 -0.0779  0.1392  0.3284
27251W        W46105   6.572  19.151   2.224  0.0517  0.0473  0.0607
27252W        W46106   7.699   4.616  11.081  0.1058  0.1440  0.2286
27253W        W46107  15.646   9.705  13.113 -0.2079 -0.0822  0.1706
27254W        W46108  16.919   4.451  12.519  0.0912  0.0631  0.0841
27255W        W46109  15.554   4.313   2.544 -0.0545 -0.3186  0.0031
27256W        W46110   7.091   2.735  13.849 -0.0353  0.0796  0.1613
27257W        W46111  15.133   7.029   0.708 -0.0165 -0.1054  0.2295
27258W        W46112   2.066   9.334   4.416 -0.1136  0.0574 -0.1344
27259W        W46113   1.124  13.667  14.361 -0.0332 -0.2431  0.0798
27260W        W46114  13.596   9.270   2.264 -0.0727 -0.2221 -0.0089
27261W        W46115  11.915   2.825   0.180  0.1452  0.3081  0.0160
27262W        W46116   8.873   8.413   2.019  0.1406  0.0508  0.0649
27263W        W46117   4.495   2.675   0.070 -0.2600 -0.1995  0.1934
27264W        W46118   5.093   4.903   2.203  0.0031  0.0287  0.2015
27265W        W46119   9.276  12.532   0.732  0.0261  0.3482  0.2495
27266W        W46120   0.463  13.640   0.560 -0.0414  0.1561 -0.0574
27267W        W46121   2.987  13.178   1.287 -0.0552 -0.1183  0.3768
27268W        W46122   9.361  17.390   3.680  0.1771 -0.1943  0.2238
27269W        W46123   7.024   6.197   2.653  0.0302  0.0755  0.0588
27270W        W46124   9.927   8.140   0.583 -0.1033 -0.2278  0.0915
27271W        W46125   2.652  15.017  14.400  0.1919  0.5569  0.1650
27272W        W46126  13.871   9.373  11.348  0.2844  0.0436  0.0153
27273W        W46127   9.105  18.746   0.808 -0.0043 -0.0704  0.1934
27274W        W46128   7.799  16.027   1.156  0.0839  0.3557 -0.1073
27275W        W46129   8.517   1.603   3.847  0.0691 -0.1388  0.1334
27276W        W46130  10.564  12.194  11.337  0.2107 -0.0894  0.0614
27277W        W46131  16.244   0.146   0.685  0.1390 -0.0570  0.1045
27278W        W46132  11.639   1.099  10.080 -0.2312 -0.1814  0.1044
27279W        W46133  10.620   0.256  14.484 -0.0510 -0.2028  0.0748
27280W        W46134  15.951  18.756  10.017 -0.1545 -0.0148  0.2388
27281W        W46135  12.942  16.126  11.187  0.4180 -0.4594 -0.0950
27282W        W46136  13.947  14.165   2.897  0.1028  0.2195 -0.0269
27283W        W46137   0.169   0.014  10.010  0.0531  0.2757  0.1224
27284W        W46138   4.162   8.678   3.682  0.3574  0.3367  0.1395
27285W        W46139   6.522   1.738   0.510 -0.1937 -0.1787  0.1008
27286W        W46140   4.821   5.066   3.050  0.0995  0.2876  0.0815
27287W        W46141  18.062   8.293  13.003 -0.0168 -0.0881  0.1345
27288W        W46142   5.019   8.474   1.096  0.1481  0.0594 -0.1995
27289W        W46143   8.039  17.721  12.104 -0.0529  0.0709 -0.0211
27290W        W46144  13.408   5.001  12.776 -0.2313  0.1595 -0.1679
27291W        W46145   0.933   7.218   3.055 -0.1213 -0.1800  0.1444
27292W        W46146   4.653  18.336   3.481 -0.0979 -0.0116 -0.0696
27293W        W46147   6.546  16.473   2.466  0.1747 -0.2408 -0.1243
27294W        W46148   9.642  14.562   3.025  0.2086 -0.2421 -0.0898
27295W        W46149   7.445  12.504   0.643  0.1465 -0.1571  0.1157
27296W        W46150   0.091   3.553   0.235 -0.4155 -0.0404 -0.2851
27297W        W46151  18.251   4.594   3.375  0.1998 -0.3408 -0.0913
27298W        W46152  13.710   7.040  13.476  0.0276 -0.0132  0.1074
27299W        W46153   5.357  12.581   4.107  0.1432 -0.1920  0.1129
27300W        W46154   4.374   5.874  13.793 -0.2772  0.1281  0.7027
27301W        W46155  10.185   3.179  10.457 -0.2066  0.0142  0.2219
27302W        W46156  16.502   6.864  12.572 -0.1620 -0.0401 -0.0197
27303W        W46157   1.171   3.862  11.990  0.1021  0.3178 -0.2091
27304W        W46158  17.975  18.826   3.854  0.1622 -0.1938  0.0185
27305W        W46159   0.054   1.569  10.700  0.0176  0.2735  0.1500
27306W        W46160   9.682   0.407  14.462 -0.0017 -0.1520  0.0571
27307W        W46161  12.894  14.655  13.125 -0.0575  0.4123  0.2129
27308W        W46162   6.347   4.540   0.169 -0.0757 -0.0966 -0.2464
27309W        W46163  10.702  13.441  12.066  0.1298 -0.1333 -0.0272
27310W        W46164   5.278  10.820  11.882  0.0539  0.0138  0.0253
27311W        W46165   2.171   2.288  10.069 -0.0517 -0.2019  0.3617
27312W        W46166   0.008   7.920   4.205 -0.0553  0.2316  0.1176
27313W        W46167  12.676   6.530   2.771 -0.0154  0.1337 -0.1412
27314W        W46168   8.686  13.415   0.835  0.0243  0.0725 -0.0598
27315W        W46169   1.855  19.088   0.849  0.1624 -0.1580  0.1707
27316W        W46170   4.024  11.120  12.981  0.1516  0.0056 -0.1752
27317W        W46171  17.214   0.918   1.396 -0.2144  0.2744  0.0769
27318W        W46172   9.025   7.905  13.235  0.1911  0.1474  0.0489
27319W        W46173  13.358   2.955  12.774 -0.2152 -0.0080 -0.1167
27320W        W46174  12.319   5.378   2.159  0.1091 -0.1671 -0.6359
27321W        W46175  13.621   7.891  13.861  0.1722  0.1401  0.1387
27322W        W46176  12.819   9.842   4.150  0.0548  0.2022 -0.1261
27323W        W46177  11.791   0.409  11.414 -0.1873 -0.0406  0.0476
27324W        W46178  14.690   2.867  11.977  0.3337 -0.0904  0.1203
27325W        W46179  17.235  16.708   0.735 -0.1244 -0.1100 -0.2235
27326W        W46180   4.645   5.490  12.235  0.3019 -0.1840 -0.0212
27327W        W46181   9.008   1.800   1.394  0.1204  0.1146 -0.4045
27328W        W46182   6.107   5.737  12.943 -0.2275  0.2294  0.0285
27329W        W46183   5.789  11.645   0.936 -0.4988  0.0970  0.0432
27330W        W46184  17.193   7.303   4.013  0.2313  0.1986 -0.0015
27331W        W46185  14.481   3.122   2.946 -0.0397  0.3287  0.1515
27332W        W46186  12.741   3.818  11.193 -0.6728  0.0608 -0.0590
27333W        W46187  11.402  11.790  14.657  0.0356  0.4579  0.0477
27334W        W46188   5.806   3.900   0.481 -0.0221  0.2297 -0.0621
27335W        W46189  16.543  12.523  13.107 -0.2194 -0.0047 -0.2051
27336W        W46190   7.489   3.565   0.628  0.1289  0.0369 -0.4204
27337W        W46191   9.120  12.919   4.793 -0.0051 -0.1273 -0.2156
27338W        W46192   1.005  10.266  13.997 -0.0571 -0.2530  0.3114
27339W        W46193   9.770   9.261  10.823  0.1944  0.1343  0.0953
27340W        W46194  12.193   4.375   3.900  0.0709  0.2086 -0.0614
27341W        W46195  11.781  13.777   2.196 -0.1794  0.1591 -0.0297
27342W        W46196   8.827  17.984  12.367 -0.2611 -0.2424 -0.1476
27343W        W46197   0.644   2.677  12.728 -0.2325  0.1319 -0.1873
27344W        W46198   7.952  11.161  13.524  0.0307 -0.0674  0.1370
27345W        W46199   9.260  15.004  14.307  0.0398 -0.0982 -0.0681
27346W        W46200   3.684   8.959   2.470 -0.1853  0.2875  0.0462
27347W        W46201   2.126   4.184  14.240  0.1049  0.1976 -0.1759
27348W        W46202   2.182   3.881   2.305  0.2114 -0.1771  0.3422
27349W        W46203   6.131   1.338   1.183  0.0626  0.2855  0.0778
27350W        W46204   4.077   7.429  13.906  0.1333  0.0663  0.1841
27351W        W46205   8.093  17.946   2.304 -0.0514 -0.3362  0.2246
27352W        W46206   6.730   5.967   1.296 -0.1397  0.3112 -0.0279
27353W        W46207  15.248   7.135  12.551 -0.1516 -0.0856  0.5988
27354W        W46208   9.331  10.471  12.623 -0.2499  0.0428  0.0287
27355W        W46209  14.498  15.568  14.185  0.0364 -0.1655 -0.0662
27356W        W46210  13.082  10.522  14.313 -0.0037  0.1793 -0.1338
27357W        W46211   5.165   0.813  11.452  0.0245  0.3910  0.3689
27358W        W46212  18.027  18.747   0.979 -0.0548  0.1093  0.2098
27359W        W46213  12.696  12.238   2.098 -0.0730 -0.3646 -0.1638
27360W        W46214  17.228  12.674   0.814  0.0077 -0.1573 -0.2637
27361W        W46215   0.776   4.034  10.905 -0.0243 -0.2670  0.0048
27362W        W46216   4.776   0.658  14.787  0.0566 -0.0228  0.0365
27363W        W46217  12.223  13.480   2.080 -0.2511  0.1090 -0.3306
27364W        W46218   1.932   0.396  12.017 -0.1931 -0.2136 -0.1938
27365W        W46219  11.499  14.764   2.638  0.1896  0.0285  0.2105
27366W        W46220   1.518  12.924  14.009  0.3129 -0.3639 -0.1825
27367W        W46221   6.678   1.381  11.986 -0.2207  0.2812 -0.0527
27368W        W46222   0.373   9.702  13.435 -0.1314 -0.0168  0.1525
27369W        W46223  11.567   4.911  11.200  0.1684 -0.0520  0.3977
27370W        W46224  15.194  10.394  10.591  0.0293  0.1091 -0.0769
27371W        W46225   9.887   2.269   2.984 -0.1181 -0.1312 -0.0065
27372W        W46226   9.937   8.070   1.130  0.2160 -0.0215 -0.4672
27373W        W46227  10.121   1.261   2.105 -0.0144 -0.0029 -0.3020
27374W        W46228  10.693   1.917  13.604  0.1179  0.1582 -0.0455
27375W        W46229  12.063   7.087   1.812  0.2237 -0.1678  0.1103
27376W        W46230   4.507   0.842   2.341  0.0448  0.2399  0.0495
27377W        W46231   6.489  16.961   1.653  0.0511  0.0708  0.1444
27378W        W46232  10.143   9.718   3.289 -0.2021  0.1425  0.0374
27379W        W46233  12.772   0.434  12.034  0.0965 -0.1034 -0.0876
27380W        W46234  16.656   9.974  12.097  0.1338  0.1719 -0.0244
27381W        W46235  18.935   0.401  12.664 -0.0818 -0.0177  0.0984
27382W        W46236  17.666  11.394   0.370  0.1921  0.2135 -0.0555
27383W        W46237   5.745  13.139   4.073 -0.3066  0.2240 -0.0297
27384W        W46238   2.897  11.525   0.783  0.3250 -0.0614 -0.2447
27385W        W46239   0.843  17.908  11.879  0.1588 -0.4211  0.2003
27386W        W46240  12.544   6.542   4.272 -0.0730  0.1707  0.2057
27387W        W46241   8.457  12.534  12.776  0.3349 -0.0715  0.0327
27388W        W46242  14.749  13.412  12.747  0.1068  0.1360  0.0108
27389W        W46243  17.190   0.655  13.408 -0.1639  0.0491 -0.3328
27390W        W46244  14.635   5.001   1.192 -0.0802  0.0740  0.1100
27391W        W46245   3.336   8.500  11.698 -0.1383  0.1244 -0.1303
27392W        W46246   3.164  14.803   2.978 -0.1666 -0.1028  0.3753
27393W        W46247  19.125   7.865   0.882  0.0796 -0.0785 -0.3622
27394W        W46248  18.209  12.785   1.605  0.0732  0.3190  0.2232
27395W        W46249  12.197  16.906   0.793 -0.0709 -0.2892  0.0649
27396W        W46250   4.792   8.068   0.907  0.4465  0.0236  0.1428
27397W        W46251   5.297  17.900  14.620  0.0637  0.1939 -0.0708
27398W        W46252   7.145   2.873   0.975 -0.1019 -0.4859  0.1407
27399W        W46253  18.485   8.750   1.505 -0.0311 -0.2109 -0.2729
27400W        W46254   6.996   0.271   3.125  0.0876 -0.0957  0.1405
27401W        W46255   4.026  11.713   3.664  0.0644 -0.1186  0.1956
27402W        W46256   8.483  11.247  13.395  0.0548  0.0660  0.1775
27403W        W46257  17.545   1.031  12.064 -0.0849  0.1577  0.1226
27404W        W46258   9.642   4.566  11.726 -0.1753  0.3310  0.2617
27405W        W46259  14.857   2.820   1.964 -0.2093  0.1792 -0.0823
27406W        W46260  11.190  12.011   0.672 -0.0251 -0.2035  0.0328
27407W        W46261   5.280   5.737   1.295 -0.0205 -0.2461  0.1356
27408W        W46262  18.192   3.639  11.268 -0.0477  0.1395  0.2085
27409W        W46263  12.051   7.337  11.588 -0.1909  0.2030 -0.0004
27410W        W46264   0.755  16.245   1.176 -0.0415 -0.2827  0.0894
27411W        W46265   3.133   0.579   3.600  0.2827  0.2774 -0.0016
27412W        W46266  13.992   5.031  10.567  0.2295  0.0675 -0.1424
27413W        W46267   3.773  14.762   3.017  0.0377 -0.0500  0.1124
27414W        W46268   7.847   5.275  12.398 -0.2073 -0.1444 -0.0594
27415W        W46269  18.703   5.843  10.588  0.0084 -0.0906  0.0369
27416W        W46270   5.509   2.101   2.655  0.1498  0.0027  0.0990
27417W        W46271  15.982  18.178   2.637 -0.0518 -0.2498  0.0619
27418W        W46272   8.512   3.300  13.796 -0.2971 -0.1631 -0.1818
27419W        W46273   4.973  11.553  12.934 -0.3134  0.2685  0.0215
27420W        W46274   2.431   7.323  10.853 -0.0732 -0.0158  0.2298
27421W        W46275   2.148  15.148  12.711  0.3142 -0.1104 -0.2088
27422W        W46276  15.452   6.404   2.147  0.1363 -0.1462 -0.2043
27423W        W46277   7.655  18.028   3.216  0.1770 -0.0216  0.0715
27424W        W46278  11.278   1.179   4.165 -0.0234 -0.0476 -0.0414
27425W        W46279   7.574  14.504   3.943  0.2101 -0.2047  0.0034
27426W        W46280   6.187   5.931  14.547 -0.1038 -0.2414  0.0377
27427W        W46281   3.375   1.141   2.452 -0.2363  0.0714  0.0848
27428W        W46282   4.920  17.941  14.148  0.1835  0.1261 -0.1051
27429W        W46283   5.580   1.980  12.997  0.0385 -0.1188 -0.0985
27430W        W46284   9.779  16.267  12.735 -0.0842 -0.1858  0.0097
27431W        W46285  12.265   5.918  10.411 -0.3426 -0.0801  0.3171
27432W        W46286  11.311  15.219   3.529  0.1945  0.0559  0.0914
27433W        W46287  16.111   6.400   2.347 -0.1344  0.2238 -0.2802
27434W        W46288  16.799   0.324   0.629  0.0086 -0.0920 -0.2054
27435W        W46289   2.519  13.145  10.445 -0.0465 -0.1229  0.1161
27436W        W46290  11.386   5.363  11.923 -0.3118  0.0289  0.0143
27437W        W46291   2.009  12.707  14.364 -0.1610 -0.0723  0.1404
27438W        W46292   9.421  10.530   3.316  0.2223  0.1641  0.0355
27439W        W46293  11.395   9.931  11.363  0.0801  0.2757  0.1235
27440W        W46294   6.812  10.588   0.622 -0.1630  0.2148 -0.1679
27441W        W46295   1.017   1.162  12.731 -0.0833 -0.1072  0.2578
27442W        W46296   5.689   4.167  12.957  0.2566 -0.0467  0.2511
27443W        W46297   5.313   9.526   1.593  0.0290 -0.0982  0.2440
27444W        W46298   6.508   4.386   1.884  0.1570  0.0370 -0.0733
27445W        W46299   5.705  13.877  10.749  0.1149  0.1892  0.1644
27446W        W46300  18.881   0.670   0.199 -0.0403 -0.1088 -0.1572
27447W        W46301  10.815   9.893  12.655  0.0043 -0.0804 -0.0726
27448W        W46302   5.300  16.108  13.703 -0.0675  0.2702  0.2558
27449W        W46303   5.497   7.313  14.416 -0.0125 -0.0261  0.0943
27450W        W46304   7.972  12.687   3.625  0.1097  0.0729  0.2412
27451W        W46305  12.365   5.998  13.739  0.0484 -0.1658  0.1409
27452W        W46306   8.336  15.079  14.050 -0.0308 -0.1259  0.3419
27453W        W46307   2.409   0.628  14.648 -0.0835 -0.1231 -0.3786
27454W        W46308  12.625  17.435   4.328 -0.0326 -0.1349 -0.1055
27455W        W46309   2.110   3.117   2.833 -0.2182 -0.0191 -0.0740
27456W        W46310   6.227  14.051   1.043 -0.1674  0.1826 -0.0024
27457W        W46311  17.032   2.304  11.971 -0.0271  0.1736  0.2364
27458W        W46312  10.226   0.524  10.499  0.0414  0.2071  0.1646
27459W        W46313  13.591  11.483  11.573 -0.0855 -0.0304 -0.0442
27460W        W46314   0.674   6.050  12.972 -0.1393  0.2451  0.1106
27461W        W46315  10.881  10.051  11.446  0.0008  0.1828 -0.2148
27462W        W46316  16.754   2.473   3.637  0.1751 -0.1327 -0.2973
27463W        W46317  13.235  10.788   0.775 -0.0007  0.0080 -0.3697
27464W        W46318   9.628  14.834  13.471  0.0043 -0.0528 -0.0402
27465W        W46319  14.786  12.641   2.526 -0.1848 -0.1315 -0.1769
27466W        W46320   1.991   2.263  12.993  0.2292  0.0661  0.0619
27467W        W46321  12.054   4.129  11.694  0.2819 -0.0376  0.0119
27468W        W46322   4.074   2.110  14.446 -0.4492  0.0511  0.2253
27469W        W46323   1.508   1.357   1.873  0.1547 -0.1731 -0.1946
27470W        W46324   6.475   5.959   2.426  0.1956  0.0465 -0.0157
27471W        W46325  11.572  10.545   0.255 -0.1551  0.0633  0.1390
27472W        W46326   2.762  18.780   1.674 -0.1628  0.1108  0.3295
27473W        W46327   9.790   9.148   0.690 -0.2433  0.1280  0.2068
27474W        W46328   0.222   9.048  13.366  0.0487 -0.1245  0.2119
27475W        W46329   5.041  16.873  11.704  0.2469  0.0095  0.0174
27476W        W46330   9.444   1.355  10.820  0.5355  0.1558  0.0636
27477W        W46331   2.243   1.115  11.079 -0.1779 -0.1197  0.1389
27478W        W46332   6.664   7.617  13.884  0.0935  0.5699 -0.1051
27479W        W46333   1.005   4.946   0.636 -0.0837  0.2703  0.0622
27480W        W46334   8.963   4.544  14.677 -0.0777 -0.1752  0.3135
27481W        W46335  17.385  17.690  10.337  0.1667 -0.1078 -0.2311
27482W        W46336  12.274  12.542   4.056  0.2314  0.0330  0.0720
27483W        W46337   5.098  14.952   2.186  0.1554 -0.0404 -0.0039
27484W        W46338  17.637  10.862  12.658  0.2173  0.1297 -0.1042
27485W        W46339  14.261  19.133  14.669 -0.0565  0.0991 -0.2317
27486W        W46340  15.910  13.403   2.802 -0.0135  0.0359 -0.1313
27487W        W46341   6.333  16.406   1.172 -0.1254 -0.1323 -0.2133
27488W        W46342   9.866   5.344   4.524  0.2047  0.3210  0.2683
27489W        W46343   7.598  18.232  12.914  0.3590 -0.1242 -0.2106
27490W        W46344  15.766   1.011  13.795 -0.0844 -0.1605  0.0355
27491W        W46345  13.530  16.792   1.182 -0.1179 -0.0158 -0.2032
27492W        W46346   3.885   9.888  14.518  0.0205 -0.1988 -0.2297
27493W        W46347  13.639   6.243  14.073 -0.0868  0.1254  0.4405
27494W        W46348  11.093   8.716  12.622 -0.3800 -0.0998  0.1745
27495W        W46349   5.857   6.313  14.658  0.2041  0.0004  0.3277
27496W        W46350   4.686   0.278   0.719 -0.1142  0.0859  0.4703
27497W        W46351   7.037   1.041   3.971  0.2926 -0.0259 -0.0363
27498W        W46352   2.207   9.778  10.447 -0.1206 -0.2987  0.2160
27499W        W46353  15.666  14.845  14.174 -0.1220 -0.2316  0.1276
27500W        W46354  15.956  14.314  11.974  0.2903  0.1161 -0.1342
27501W        W46355  16.307  12.722   0.228  0.0835  0.3128 -0.1580
27502W        W46356  16.835   4.260   9.650  0.2526  0.2238 -0.2248
27503W        W46357   8.926  16.709  12.177 -0.2110  0.0638 -0.0092
27504W        W46358   1.845   6.342  14.126 -0.0510 -0.3198  0.2538
27505W        W46359  13.717   0.844   1.026 -0.2831 -0.0941  0.0843
27506W        W46360  13.928   1.628  12.246  0.3870 -0.2392 -0.3339
27507W        W46361   5.484  10.644   3.008  0.1127  0.1738 -0.1524
27508W        W46362   5.345   8.453   2.905  0.3708  0.0109 -0.3711
27509W        W46363   5.741  13.032  11.852  0.1570  0.0590  0.3364
27510W        W46364  14.116   1.512  13.090  0.1034 -0.1895  0.0744
27511W        W46365  17.654   9.600   1.583 -0.1628  0.1053 -0.0640
27512W        W46366   7.284  17.315  12.672 -0.3867 -0.1324  0.2194
27513W        W46367   3.213   4.123  12.994  0.3178 -0.0036  0.2541
27514W        W46368   7.485  10.846  11.885  0.3198  0.1814  0.2200
27515W        W46369   1.005   6.061   2.111  0.3030 -0.1024  0.2441
27516W        W46370   9.902  15.318   1.293 -0.0116 -0.1905  0.3320
27517W        W46371  11.319   4.620   2.695  0.0664  0.1739 -0.0703
27518W        W46372   1.764  15.887  13.198  0.0419  0.0042  0.1966
27519W        W46373   1.818  16.848   9.782  0.3022 -0.0541  0.0830
27520W        W46374   2.271  17.554   3.517 -0.1213 -0.0825 -0.0324
27521W        W46375   3.054  12.011   4.013  0.3125  0.2174  0.0510
27522W        W46376  11.629   2.928   4.546  0.0746  0.0997 -0.0359
27523W        W46377   5.995  18.493  13.210  0.0041  0.0090 -0.1383
27524W        W46378   7.645   9.296   1.363  0.0327 -0.2201 -0.0887
27525W        W46379   3.589  12.368  13.474  0.0475 -0.0218 -0.0617
27526W        W46380   5.375  16.073   4.325 -0.2554  0.0274  0.0386
27527W        W46381   5.893  18.300  11.451  0.2689  0.0588  0.0708
27528W        W46382  11.055   5.561   3.097 -0.1032 -0.0090  0.1204
27529W        W46383  14.914   4.233   2.611  0.3604 -0.0341 -0.2277
27530W        W46384  14.343   5.715   3.717  0.2620 -0.1162 -0.1277
27531W        W46385   5.685   1.010   1.277  0.3009  0.0063 -0.1189
27532W        W46386  17.691   9.671  13.360 -0.1608 -0.0275 -0.0194
27533W        W46387   6.239   8.402  10.851  0.2459  0.0469 -0.1915
27534W        W46388   2.673  17.608   1.808  0.2044 -0.1049 -0.0866
27535W        W46389   6.610  12.957   4.231  0.1178  0.1286  0.1380
27536W        W46390   1.403  10.189   0.641  0.0969 -0.1144  0.2782
27537W        W46391   5.477   2.515  13.306 -0.2252  0.0015 -0.1597
27538W        W46392  17.534  11.288   0.880  0.0955 -0.2284 -0.0843
27539W        W46393  10.611   3.760   1.985 -0.3308 -0.1837  0.2057
27540W        W46394  15.749  10.197  12.970 -0.0951 -0.0809  0.2554
27541W        W46395   6.408  18.797   3.079 -0.0407  0.0267 -0.1073
27542W        W46396   7.097   0.474  13.788 -0.3247 -0.1129  0.1702
27543W        W46397   3.782  14.234   0.177  0.6342 -0.2815 -0.0781
27544W        W46398  10.212  10.734   3.498 -0.1998  0.2946 -0.0961
27545W        W46399   8.146  17.024   0.976 -0.2378  0.1284 -0.4110
27546W        W46400   3.134   2.505  12.539 -0.1257 -0.0736  0.0798
27547W        W46401  15.308   7.968  11.509  0.2673  0.1628  0.1946
27548W        W46402  13.109  11.583  11.092 -0.0050  0.0194  0.0439
27549W        W46403   7.345  12.613   0.072  0.3661  0.1406  0.2422
27550W        W46404  15.189  11.393   0.623 -0.1659 -0.2076  0.0990
27551W        W46405   3.523   5.770  12.284  0.2509 -0.1821 -0.0007
27552W        W46406  15.108  14.137   9.627 -0.2588 -0.1720  0.0740
27553W        W46407  16.574   6.225   2.230 -0.4062 -0.4132 -0.0097
27554W        W46408   5.493  13.887  12.986 -0.2473 -0.1351 -0.0645
27555W        W46409   9.608  10.346   9.914  0.3128  0.2523  0.1552
27556W        W46410  13.249  12.341  11.402  0.1639 -0.2256  0.0352
27557W        W46411   3.646   5.203  13.991 -0.0934 -0.3982  0.0665
27558W        W46412  10.519   9.341  11.464  0.0234  0.3076 -0.2040
27559W        W46413   1.714   7.268   9.819  0.0104 -0.3460 -0.0103
27560W        W46414  15.863  10.809   0.137  0.2303  0.0275 -0.0397
27561W        W46415  16.097  10.996   2.777 -0.0739  0.2017 -0.3030
27562W        W46416  16.773   6.716  12.140 -0.1396 -0.1156 -0.0610
27563W        W46417  13.067   6.927   3.606  0.4015  0.0384  0.2375
27564W        W46418   4.517   3.563  13.362 -0.2379 -0.1402 -0.0859
27565W        W46419   9.738  10.702  13.450 -0.0774 -0.1707 -0.0264
27566W        W46420   5.295  14.798  11.086 -0.0678 -0.0257  0.0202
27567W        W46421   1.167   9.356  13.205  0.3085 -0.5841 -0.1463
27568W        W46422  13.600  11.644  11.051  0.2143 -0.3241  0.0020
27569W        W46423  15.597  15.139  11.766 -0.1569 -0.0770 -0.2140
27570W        W46424   9.671   9.400   3.986  0.1207  0.1286  0.0183
27571W        W46425  13.001   1.022  10.593  0.0873 -0.1276  0.1944
27572W        W46426   8.543   4.569   1.001  0.0759 -0.0477  0.3189
27573W        W46427  18.400   0.392  12.036 -0.0262 -0.0393  0.2159
27574W        W46428   9.972   4.789  12.613 -0.1448  0.4284  0.4136
27575W        W46429  17.463   7.790   2.588 -0.1734 -0.1763 -0.2113
27576W        W46430   9.212   0.770   2.883 -0.1577 -0.1460  0.2198
27577W        W46431   9.036  17.965   9.595  0.2214  0.0842  0.0802
27578W        W46432   9.430  15.609  13.019 -0.0004  0.2364 -0.0729
27579W        W46433   4.324  14.711  10.034  0.0696  0.3140  0.2876
27580W        W46434   2.248  18.483   1.640 -0.1112  0.1820 -0.1531
27581W        W46435   9.556  13.215  10.949  0.3111  0.1256  0.6418
27582W        W46436  14.431   1.042  11.737  0.1408 -0.0744  0.1656
27583W        W46437   9.794   0.071   2.703  0.1100 -0.1459  0.2609
27584W        W46438  16.194  10.757  10.804 -0.0492  0.2197  0.1454
27585W        W46439  10.283  12.126  14.018  0.0187 -0.0069 -0.2183
27586W        W46440  17.956  10.533  12.494 -0.3207 -0.0020 -0.0108
27587W        W46441   0.195   9.145  10.910 -0.0863  0.1020 -0.0027
27588W        W46442   1.579  11.831   4.484  0.0911  0.1911  0.1775
27589W        W46443   0.007   6.676  14.071  0.2882  0.1839  0.0825
27590W        W46444   5.870  13.323  13.798 -0.3919 -0.2721  0.2558
27591W        W46445  13.714  12.561  11.236  0.0519 -0.4715 -0.1002
27592W        W46446   0.426   9.643  12.369  0.3652 -0.0492 -0.0911
27593W        W46447   4.192  16.293  11.760 -0.0139  0.1245  0.0163
27594W        W46448   0.141   6.234   5.681  0.0085 -0.0071 -0.0541
27595W        W46449   4.154  17.186   3.819  0.1837  0.1869 -0.0330
27596W        W46450  13.030  14.861  12.068  0.2158 -0.0859  0.2003
27597W        W46451  17.540  17.993  12.910 -0.2141  0.4859 -0.0699
27598W        W46452   0.498   2.728   2.905 -0.4351 -0.1317 -0.1221
27599W        W46453  16.756   8.154  10.855 -0.2186 -0.2260 -0.1208
27600W        W46454   5.114  12.534   0.301 -0.3017  0.3024  0.0725
27601W        W46455  16.659   4.700  11.248 -0.0319  0.1369 -0.2863
27602W        W46456   5.352   8.720  13.720 -0.3490  0.1784  0.1051
27603W        W46457   8.718   7.895   2.192 -0.1275  0.3059 -0.1410
27604W        W46458   5.141   8.288  14.510  0.0544 -0.2363  0.2081
27605W        W46459   9.022   3.728  12.585 -0.2743  0.2433 -0.1498
27606W        W46460   4.517  14.266   3.238 -0.3092 -0.1395  0.0577
27607W        W46461   6.954   4.843   3.058 -0.1911  0.0136 -0.2623
27608W        W46462  14.869   9.557  10.728 -0.0069  0.0940 -0.0401
27609W        W46463  16.143  11.954   3.916 -0.0633 -0.1584  0.1242
27610W        W46464  15.921  11.303   4.485 -0.2111  0.3147  0.0592
27611W        W46465   2.395   2.750   1.952 -0.0557 -0.2323  0.4118
27612W        W46466  10.474  16.876   2.827  0.3562 -0.2132  0.1981
27613W        W46467   4.416  13.714  12.697  0.0381 -0.1793 -0.1692
27614W        W46468  17.284  10.688   1.910 -0.3647  0.0767 -0.0997
27615W        W46469   2.670   9.935   0.648  0.0987 -0.1819  0.0594
27616W        W46470   7.363  10.783  12.666 -0.2963 -0.1340  0.1130
27617W        W46471   9.885  10.481  11.816 -0.0061 -0.1299 -0.1835
27618W        W46472  18.527   7.939   2.018 -0.0048  0.0580 -0.2286
27619W        W46473   1.422   2.603   1.964 -0.1686  0.0298  0.0467
27620W        W46474   6.359  13.899   1.746 -0.0869  0.1803 -0.0240
27621W        W46475   4.500  16.682  11.985  0.2315  0.1217  0.0772
27622W        W46476  15.937  14.521   0.148  0.0970  0.0935 -0.2452
27623W        W46477  17.696   4.203  10.955  0.0280  0.0012 -0.2101
27624W        W46478   5.280  13.232  10.979  0.0155 -0.0458 -0.0890
27625W        W46479   1.147   9.791  14.073 -0.0049  0.1219 -0.1412
27626W        W46480  15.068   5.407   1.277 -0.0076  0.0485 -0.2716
27627W        W46481  12.074  13.408  12.741  0.1561 -0.2481  0.0956
27628W        W46482  12.562   8.500  12.036  0.2509 -0.2226 -0.0038
27629W        W46483   5.927  16.136  12.069 -0.4500 -0.0633 -0.1062
27630W        W46484   6.681  18.844   0.790 -0.1352 -0.1490 -0.0573
27631W        W46485  11.383  17.802   1.404  0.0380 -0.2376 -0.3409
27632W        W46486  16.918   6.039  11.080  0.2175  0.5042 -0.1519
27633W        W46487  14.801   5.474  12.924 -0.1073  0.1180  0.1308
27634W        W46488   0.097   9.946  12.501 -0.1268 -0.2538 -0.0931
27635W        W46489  18.189  11.711  13.202 -0.0237  0.2934  0.1796
27636W        W46490   3.988  10.749  12.653 -0.2202 -0.2540  0.3319
27637W        W46491   1.088  17.920  12.329 -0.2747  0.2057 -0.1105
27638W        W46492  15.553   9.422   1.010 -0.3134  0.1512 -0.0228
27639W        W46493  10.832   1.863  10.690  0.3147 -0.0420  0.1612
27640W        W46494  15.582  16.980   1.390  0.0935 -0.2331  0.0176
27641W        W46495   3.861   9.876   2.504 -0.3136  0.1919 -0.2083
27642W        W46496  17.776   2.469   9.595  0.2553 -0.2325 -0.0683
27643W        W46497  17.314  10.322   0.874 -0.2698  0.3571  0.0366
27644W        W46498  11.876   0.769  14.406 -0.2280 -0.2271 -0.0888
27645W        W46499  12.195   1.141  14.356 -0.0522 -0.2907 -0.0120
27646W        W46500  10.729  10.419   4.363  0.2082  0.3148 -0.0130
27647W        W46501  14.558  12.921  12.780 -0.0811 -0.0694  0.2253
27648W        W46502  17.022   8.816  12.517 -0.1474 -0.1702 -0.0625
27649W        W46503  17.639   0.715  11.648  0.1803  0.2369  0.0686
27650W        W46504   2.892  19.082   4.824  0.0979  0.0626  0.1301
27651W        W46505   0.735   9.566   4.184 -0.0369  0.0254  0.2433
27652W        W46506   0.857  14.965  14.076 -0.0125 -0.0572  0.1079
27653W        W46507   2.559  14.980  11.784  0.0069  0.2539 -0.0072
27654W        W46508   6.133  13.551   0.784 -0.0063 -0.1321 -0.2855
27655W        W46509   1.950   2.931   3.277 -0.3707  0.2652 -0.1436
27656W        W46510   3.419  12.373   4.791 -0.0841 -0.3726 -0.1457
27657W        W46511  15.909  16.190   3.735  0.1942  0.0453 -0.1631
27658W        W46512  10.748   9.581  14.630 -0.1021  0.0372  0.0158
27659W        W46513  15.847   3.348  14.462 -0.0966  0.1353 -0.2219
27660W        W46514   7.622   1.853   4.488 -0.0142 -0.0799 -0.0582
27661W        W46515  15.080  10.101  13.623 -0.2018  0.1477  0.2513
27662W        W46516   0.496  13.918   2.488  0.0326 -0.0173 -0.0835
27663W        W46517   5.530   8.205  11.973  0.0318  0.2096  0.0923
27664W        W46518  17.277   3.602  11.515  0.0409  0.0421  0.0462
27665W        W46519   5.592  14.033  11.623  0.1402  0.0360  0.0735
27666W        W46520  18.106   4.240   1.744 -0.0266  0.1389 -0.2338
27667W        W46521   1.362   6.912   3.500 -0.3338  0.0747 -0.0566
27668W        W46522   3.491   7.493  11.819 -0.0699 -0.1811  0.0236
27669W        W46523  10.634   0.284  12.418  0.1287 -0.0802  0.1634
27670W        W46524   2.813  18.634   1.151 -0.1024  0.1141  0.0125
27671W        W46525   3.924   0.450  11.511  0.0495  0.2233  0.0271
27672W        W46526  15.578   2.230   0.472 -0.2328 -0.2879  0.3253
27673W        W46527  15.676  15.594   3.158  0.0596  0.0128  0.0379
27674W        W46528  14.981   6.918   2.813 -0.0851  0.0056 -0.1407
27675W        W46529   6.543   4.873  11.299  0.2026  0.1944  0.1093
27676W        W46530   3.754   6.771   4.340 -0.0370 -0.3282  0.2372
27677W        W46531   7.832   5.251  12.959  0.0504 -0.1377 -0.1517
27678W        W46532   0.496   9.487  14.247  0.3609  0.3167  0.0737
27679W        W46533  13.620  12.921  12.576 -0.0652  0.0657  0.2322
27680W        W46534  15.948   1.386   1.695 -0.1445  0.0700  0.1384
27681W        W46535  18.437   6.952  13.380 -0.0882 -0.0658 -0.0284
27682W        W46536  15.702   3.583   0.077  0.1557 -0.1557  0.3254
27683W        W46537  16.402   2.508   1.986  0.2921 -0.2103 -0.0513
27684W        W46538   4.892   5.031  10.860 -0.0036  0.2532 -0.1156
27685W        W46539  16.010  12.432   2.901 -0.1305 -0.1438 -0.1764
27686W        W46540  11.532  18.300   3.009  0.1124  0.1466  0.0733
27687W        W46541   9.199  15.105   2.909  0.0878  0.3073  0.0261
27688W        W46542   4.315  19.143  10.786  0.2429  0.2166  0.0885
27689W        W46543  10.640   0.918   1.457 -0.0360  0.0164 -0.2429
27690W        W46544  10.211  13.212   3.096  0.1120 -0.0711 -0.2330
27691W        W46545  18.805  14.137   0.495 -0.0127  0.0020  0.6025
27692W        W46546   0.106   2.962   3.794  0.2189  0.2731  0.3307
27693W        W46547  10.629   3.841  12.496 -0.2290  0.1461 -0.0689
27694W        W46548  19.055  18.201  14.638  0.0502 -0.2266 -0.0951
27695W        W46549  14.355  17.076   1.225 -0.0314  0.0151 -0.2400
27696W        W46550   4.240  17.636   2.438 -0.2069 -0.1908  0.0891
27697W        W46551   1.559  17.761   0.622  0.0096 -0.1420 -0.1885
27698W        W46552   3.776   7.854   0.334  0.2319 -0.0532  0.0125
27699W        W46553  13.005  15.113  11.187 -0.4216 -0.0747  0.1824
27700W        W46554  17.773   1.533   2.259 -0.2693  0.0402 -0.0318
27701W        W46555   2.819  11.621  14.581  0.2599 -0.2085 -0.0784
27702W        W46556   5.033  18.455  10.617 -0.3446  0.0837 -0.2516
27703W        W46557  18.761   3.724   0.851  0.0248  0.1141  0.1576
27704W        W46558   0.539  17.798  12.649 -0.2096  0.0267  0.2508
27705W        W46559  18.209  15.601   2.488 -0.2578 -0.0866  0.1915
27706W        W46560   3.184   6.842   4.159  0.0764  0.1013  0.2181
27707W        W46561   0.466  10.127  12.176  0.2993  0.1781 -0.0716
27708W        W46562   6.135   4.314   1.259  0.0188 -0.1723 -0.1027
27709W        W46563   5.832  16.588   1.300 -0.3098  0.2865  0.0431
27710W        W46564  17.570  16.673  12.388 -0.1970 -0.0689 -0.2436
27711W        W46565   4.066   3.658   3.347 -0.1786  0.0900 -0.0529
27712W        W46566   7.785  17.847  10.523 -0.1778  0.2303  0.1689
27713W        W46567  11.798  12.067   1.790  0.4329  0.0835  0.3719
27714W        W46568   7.840  17.702  12.897 -0.0208  0.4500  0.2490
27715W        W46569   4.086   8.805   2.721 -0.1720 -0.3059  0.3371
27716W        W46570   6.837   9.316  10.948  0.0547 -0.0549  0.0609
27717W        W46571   1.193   0.493  12.003 -0.3334  0.1067  0.2046
27718W        W46572   4.144   1.798  10.714 -0.1731 -0.1034  0.3919
27719W        W46573   1.010  13.936   2.400 -0.0612 -0.0140  0.2682
27720W        W46574   4.986  18.077  11.071  0.0141 -0.0332 -0.1667
27721W        W46575   9.060   0.018  11.058  0.2065  0.2348  0.0111
27722W        W46576  15.271  18.502  10.845  0.0706  0.1865 -0.0926
27723W        W46577   1.076   4.564   2.170  0.0284 -0.1049 -0.2819
27724W        W46578  16.703  13.966  10.712 -0.0376  0.0631 -0.3197
27725W        W46579  13.183   0.142  14.294 -0.3577 -0.0761 -0.0626
27726W        W46580  12.630  15.296   0.834  0.1287  0.2201 -0.1230
27727W        W46581   8.963   7.110  11.577  0.3445 -0.1647  0.2206
27728W        W46582   1.835  11.452   3.025 -0.0458  0.0537 -0.2214
27729W        W46583   5.507   0.882  14.150 -0.1112 -0.1654  0.2027
27730W        W46584  19.019   4.674   4.861 -0.0337  0.0494  0.0072
27731W        W46585   0.931   2.649   1.949 -0.3373 -0.0709  0.0232
27732W        W46586   5.893   5.383   0.863  0.1861 -0.2613 -0.0338
27733W        W46587   6.497   3.546   1.519 -0.0051  0.1024 -0.0442
27734W        W46588  13.622   4.532  11.554  0.0996 -0.3251  0.1135
27735W        W46589   6.159   4.246   0.687  0.1859 -0.2235 -0.0191
27736W        W46590  15.091   7.469   3.888  0.2137  0.1540 -0.2203
27737W        W46591  14.422  13.176  10.822  0.2692 -0.3568  0.0615
27738W        W46592  15.343   9.453  11.798  0.0607 -0.0031  0.2290
27739W        W46593   3.951   6.098  11.001  0.1238  0.0961 -0.0861
27740W        W46594  10.652  13.766  13.778 -0.0072 -0.1847  0.0523
27741W        W46595   2.089  15.789   3.445 -0.1688 -0.1349 -0.0339
27742W        W46596   9.603   5.532   3.894  0.0028 -0.1139 -0.2824
27743W        W46597   5.125  16.597  12.442  0.0278  0.3132  0.0348
27744W        W46598  13.224   6.318  13.087 -0.0235 -0.0619 -0.1711
27745W        W46599   4.273  11.479   3.133  0.0608 -0.2660  0.0376
27746W        W46600  14.191   9.975   1.690  0.1089 -0.0983 -0.0718
27747W        W46601  15.787  18.567   0.118  0.1717  0.3050  0.2725
27748W        W46602   9.030   9.915  13.824  0.2191  0.2422 -0.1843
27749W        W46603  10.977  18.830  13.656 -0.3851 -0.1638  0.0635
27750W        W46604   4.035  14.728   0.467  0.0931 -0.2356  0.1148
27751W        W46605  10.021   3.349  10.983  0.0808 -0.1709 -0.3869
27752W        W46606  17.569  15.327   1.773  0.1684 -0.3589  0.0829
27753W        W46607  15.024  18.817   1.998 -0.0447  0.1389 -0.0020
27754W        W46608   3.186   6.521  14.364  0.1188 -0.0441 -0.1414
27755W        W46609  16.186  11.886   9.878  0.2000 -0.1224  0.0465
27756W        W46610  10.436   8.543  10.902 -0.2140 -0.0597 -0.1186
27757W        W46611  17.314   2.672  13.121 -0.0057 -0.0653  0.1485
27758W        W46612   7.520   9.704   2.275 -0.0949 -0.0824 -0.2574
27759W        W46613   3.377  18.651  13.888  0.1218 -0.2757  0.0733
27760W        W46614   4.135   0.034   3.960  0.1706 -0.2322  0.0843
27761W        W46615   4.335   7.618  13.038 -0.0344  0.1382  0.2483
27762W        W46616   3.994   3.988   2.968 -0.0790 -0.0164 -0.0610
27763W        W46617  13.639  10.571  14.534  0.4096 -0.2800 -0.1934
27764W        W46618  16.018  15.798   4.052  0.1277  0.1049  0.2692
27765W        W46619   8.058  18.301  11.404  0.0476 -0.0599 -0.0822
27766W        W46620   0.430   2.037   0.572  0.1060 -0.0379 -0.0322
27767W        W46621  18.206   8.208   2.293 -0.0556 -0.3266  0.3732
27768W        W46622  17.943  11.083   0.123  0.0576 -0.1363  0.4373
27769W        W46623   9.886   3.017  14.753 -0.0207  0.1315 -0.0785
27770W        W46624  12.910  13.536   3.784  0.3309  0.1343 -0.2056
27771W        W46625   2.854   0.496   1.340  0.3284 -0.1609 -0.1971
27772W        W46626   9.333   4.294   3.483 -0.1385  0.2931 -0.2110
27773W        W46627   4.468   2.573   3.615  0.0390 -0.2874 -0.1081
27774W        W46628   8.213  17.476   2.304 -0.0013 -0.1751  0.0945
27775W        W46629   0.372  14.951  11.201 -0.0853  0.0283 -0.0352
27776W        W46630  12.178  17.401   0.367  0.4183 -0.1026  0.2964
27777W        W46631  18.000  12.812  10.456  0.1531  0.1842 -0.1886
27778W        W46632  17.548  17.530  14.598 -0.2102 -0.1072 -0.1207
27779W        W46633   0.795   8.196   1.808  0.1882 -0.0546 -0.1912
27780W        W46634   0.638  12.852   4.202  0.1105  0.0608 -0.0068
27781W        W46635   7.624  12.291  14.078 -0.3985 -0.2028 -0.3037
27782W        W46636   4.156  17.711   3.574 -0.0663  0.0068  0.0392
27783W        W46637   3.486   9.591   4.048 -0.2237  0.0850 -0.1615
27784W        W46638  13.526   7.596  11.042 -0.1649 -0.1402 -0.2301
27785W        W46639   2.301   5.663  11.253  0.0917 -0.2678  0.1223
27786W        W46640   0.534   6.785  14.014  0.1341  0.0771  0.0436
27787W        W46641  18.410   6.525   3.537 -0.0423 -0.0725  0.1123
27788W        W46642  18.876   2.489   0.747  0.0272 -0.0527 -0.0917
27789W        W46643   0.850   4.701  11.562  0.1856 -0.0246  0.1120
27790W        W46644  13.395   6.145   1.009  0.0787  0.0146  0.2792
27791W        W46645   8.744   9.382   1.637 -0.0606 -0.0141  0.0650
27792W        W46646  11.924   0.537  13.574  0.3359 -0.4386  0.1844
27793W        W46647   1.144  16.634  11.133 -0.1599  0.0556  0.1753
27794W        W46648  15.285   9.090  14.607  0.0078 -0.0637 -0.0713
27795W        W46649   9.193   2.165   3.805  0.2249 -0.0549 -0.0210
27796W        W46650   5.460  10.006  12.333 -0.0768  0.1323  0.0273
27797W        W46651   5.058  17.447   2.076 -0.2341  0.3799  0.0065
27798W        W46652  14.635   1.808  10.840 -0.0462  0.2523 -0.0878
27799W        W46653  18.287   3.746  14.094  0.0357 -0.0854 -0.0703
27800W        W46654   5.430   5.895   3.940 -0.1374 -0.0366 -0.1132
27801W        W46655  11.587   5.850   2.246  0.0240  0.3788  0.2539
27802W        W46656   4.319   1.355  10.477 -0.0699  0.1206 -0.0433
27803W        W46657   7.808   4.041   0.729 -0.1020 -0.1076  0.0835
27804W        W46658  10.950   9.978  13.952  0.1929 -0.0480 -0.2109
27805W        W46659   8.503  11.791  12.189 -0.0878  0.3022  0.1031
27806W        W46660  17.179   3.637  14.115 -0.0714  0.1253 -0.1811
27807W        W46661  11.420   8.151  14.664  0.1795  0.4008  0.0621
27808W        W46662  13.074   5.875   1.909 -0.1598  0.0464 -0.0992
27809W        W46663   2.365   0.159   1.181 -0.0164  0.1213 -0.3499
27810W        W46664   9.497  14.017   9.981 -0.2279  0.1721 -0.2692
27811W        W46665  10.483   1.696   9.888 -0.1531  0.1757 -0.0459
27812W        W46666  12.105   5.778   2.196  0.1348  0.0607  0.0782
27813W        W46667  10.506   8.326   2.231  0.1957 -0.3575 -0.0004
27814W        W46668   3.293  17.908   0.618  0.1005  0.0589  0.2681
27815W        W46669   7.607  12.765   2.093  0.0052  0.2111  0.5124
27816W        W46670  11.291   1.290   2.036 -0.1251 -0.0291 -0.2781
27817W        W46671   9.839   9.079   2.500  0.2698  0.3394 -0.0016
27818W        W46672  14.723  10.961   1.640 -0.0940  0.0663 -0.0726
27819W        W46673  10.699  11.946  14.481  0.0363 -0.2108  0.1839
27820W        W46674  17.782  15.200   1.314 -0.1717 -0.0057 -0.0591
27821W        W46675   4.167   9.096   2.263 -0.3024  0.2034  0.1917
27822W        W46676  10.375   0.962  10.755  0.3627  0.1461  0.1069
27823W        W46677  17.314   6.502   2.191  0.0152  0.1233 -0.2208
27824W        W46678   3.914  14.449   2.555  0.2376 -0.2353  0.0668
27825W        W46679  12.163   7.619   0.916  0.1240 -0.1370  0.2287
27826W        W46680   7.573   2.507  14.002  0.0734 -0.2855  0.1769
27827W        W46681   7.558  11.396  13.356 -0.0816 -0.1198 -0.3387
27828W        W46682   5.504  18.503  13.327  0.1624 -0.3512 -0.0184
27829W        W46683   9.345  15.788   0.659 -0.0592  0.0616  0.1010
27830W        W46684   0.830   6.058   3.617 -0.1147  0.1386 -0.0258
27831W        W46685  17.840  10.366   2.912  0.1493  0.0105 -0.1207
27832W        W46686  15.666   3.572  13.075 -0.1548 -0.1634  0.1880
27833W        W46687   9.374  11.134   3.024 -0.4331 -0.1733  0.4902
27834W        W46688  12.793  13.271  13.334 -0.1292 -0.0050  0.2766
27835W        W46689   0.825  15.441   0.542 -0.2094  0.2456 -0.1105
27836W        W46690  14.591   9.142   1.076 -0.2029  0.0438 -0.0472
27837W        W46691   3.739   1.637  11.027  0.1649 -0.1720 -0.1335
27838W        W46692  17.090   8.444   2.215 -0.3580 -0.0862  0.0825
27839W        W46693   2.949   5.088  10.851  0.1743 -0.0347 -0.3226
27840W        W46694   0.900  11.165   0.549 -0.3681 -0.0026  0.0270
27841W        W46695   4.478   4.361   0.045 -0.1119  0.2828  0.0338
27842W        W46696  12.950   8.044   0.513  0.1362  0.1528  0.3869
27843W        W46697  18.480   3.841  11.766 -0.1728 -0.1743 -0.1137
27844W        W46698   0.562  14.598   3.845 -0.0694  0.0559  0.3027
27845W        W46699  13.071  11.277   4.163  0.0817 -0.1040  0.1140
27846W        W46700   6.853  16.523  11.520 -0.0487 -0.1177 -0.2851
27847W        W46701  13.232  12.937  12.259 -0.1002 -0.0246  0.1925
27848W        W46702   0.593  14.933  13.077  0.1466 -0.3331  0.0991
27849W        W46703  16.567  19.106  11.538 -0.3194 -0.0080 -0.1991
27850W        W46704   2.098   7.564   4.769  0.0975  0.1725  0.1707
27851W        W46705   4.573  12.070  10.981  0.1009  0.0858  0.2134
27852W        W46706   4.770   6.734  10.931 -0.2857 -0.3597 -0.5135
27853W        W46707  12.304  15.039  13.844  0.2771 -0.2774  0.2664
27854W        W46708  18.272   6.539  14.007 -0.0004  0.3001 -0.2625
27855W        W46709  17.769   2.578  13.434 -0.0713 -0.3621 -0.0730
27856W        W46710   6.573   2.251  12.886 -0.1737 -0.0596 -0.1443
27857W        W46711  10.955   4.099  13.910  0.0394  0.2060 -0.1055
27858W        W46712   4.145  15.053   3.299 -0.1020  0.0203  0.0530
27859W        W46713   8.004  13.162  14.388  0.2825 -0.2567 -0.1986
27860W        W46714   4.164  11.031  11.973  0.1974 -0.1127 -0.1667
27861W        W46715  11.144   1.332  12.929 -0.2802 -0.3340 -0.1218
27862W        W46716   1.266  18.413  12.316 -0.1161 -0.2551  0.1785
27863W        W46717   9.330  16.968  10.811  0.1822  0.2947 -0.2566
27864W        W46718  17.524   8.227   2.178  0.1534  0.0967 -0.2504
27865W        W46719   1.388  13.346   0.125  0.2484 -0.2990  0.0497
27866W        W46720   1.132  11.885   4.280  0.2017  0.2354  0.0604
27867W        W46721   6.765   0.823  13.206 -0.0749  0.0520  0.2662
27868W        W46722  15.108  13.637   3.423  0.0979 -0.0075 -0.1290
27869W        W46723   4.562  17.438   4.019 -0.0323  0.2167  0.0616
27870W        W46724   9.594  12.163   2.122  0.1211 -0.3381  0.1602
27871W        W46725   5.184   6.653   3.606  0.2169  0.0843 -0.3241
27872W        W46726   5.630   9.998   3.806  0.0347  0.0284  0.2502
27873W        W46727  18.429   8.843  12.345 -0.0160 -0.2055  0.2205
27874W        W46728   8.059   6.261   2.937 -0.1752 -0.0501 -0.0745
27875W        W46729   9.539   7.119  11.442  0.2733  0.1897 -0.2774
27876W        W46730   7.874  16.928   2.289  0.0897 -0.0197  0.1744
27877W        W46731  11.757   5.018  11.652 -0.1529 -0.0473 -0.0467
27878W        W46732  14.483  12.640   0.220  0.2342  0.1716 -0.1670
27879W        W46733   1.031  17.307  13.275  0.1769  0.2982  0.2272
27880W        W46734  13.027  10.483   0.031 -0.1721  0.3419 -0.1177
27881W        W46735   6.774   6.480  12.958  0.0044  0.0184 -0.1034
27882W        W46736   9.202  16.629  13.515 -0.1074 -0.0423  0.0256
27883W        W46737  10.578  14.326  10.936 -0.1884  0.0502 -0.0311
27884W        W46738   8.191  14.663   0.694  0.0085  0.1266  0.0074
27885W        W46739  18.882   6.227   9.885  0.0220  0.0971  0.3625
27886W        W46740   9.740  17.185   3.371  0.0003  0.1819 -0.0815
27887W        W46741  11.556  15.635  11.128 -0.0017  0.1688 -0.0223
27888W        W46742  15.715  11.373   0.662 -0.2239  0.0515 -0.2582
27889W        W46743  15.025  18.061   1.815  0.0457  0.1570 -0.2525
27890W        W46744   5.905   5.036   3.229  0.0669 -0.1350  0.1195
27891W        W46745   7.001  18.018   0.258 -0.1006  0.1894 -0.1117
27892W        W46746  11.344  16.982   4.789 -0.1786 -0.0171 -0.0547
27893W        W46747   4.103   5.738  11.365  0.0269 -0.1368 -0.1605
27894W        W46748  16.916  12.900  13.526 -0.1248  0.1380 -0.0833
27895W        W46749   5.785   4.314  12.260  0.0585  0.1576 -0.0131
27896W        W46750   7.761   2.378   9.619 -0.0377 -0.0401 -0.1063
27897W        W46751   3.802   5.256  12.677  0.3673 -0.0426  0.0474
27898W        W46752   9.684   9.742   3.066  0.0163 -0.1618  0.0773
27899W        W46753  14.659   2.473  12.359 -0.3322 -0.0383 -0.0027
27900W        W46754  15.881  16.836  12.600 -0.1821 -0.0243  0.1419
27901W        W46755   1.640   8.977   2.969  0.1156 -0.0885  0.2630
27902W        W46756  17.115  18.593  14.506  0.1107 -0.0222 -0.0402
27903W        W46757   7.782  18.350   4.260  0.1481  0.0505 -0.4456
27904W        W46758  17.627  14.521  11.027 -0.0988 -0.3715  0.1767
27905W        W46759  10.636   6.815   1.792  0.0344  0.0940  0.2122
27906W        W46760  17.765   4.573   9.950 -0.0626  0.2323 -0.2213
27907W        W46761   6.989   2.853   3.142  0.1021  0.5398  0.0323
27908W        W46762   5.455   1.119  13.542  0.0637 -0.1727  0.0057
27909W        W46763   3.012   0.313  11.686  0.3596  0.2888 -0.0084
27910W        W46764   0.128   3.230  13.833  0.1462  0.2824 -0.0746
27911W        W46765  18.584   7.002  12.361 -0.2194 -0.0225  0.0012
27912W        W46766   0.220   4.986   2.646  0.0823  0.1264  0.0631
27913W        W46767   0.696   9.916   2.204  0.0410  0.2183 -0.0943
27914W        W46768   0.468   7.660  13.252  0.1451 -0.1507  0.0816
27915W        W46769  10.672   9.939   4.490 -0.2912  0.2136  0.1404
27916W        W46770   7.287   9.257   4.841 -0.0678 -0.0248 -0.2778
27917W        W46771  15.466  16.040   0.667  0.2064  0.0713 -0.1807
27918W        W46772   8.786   3.809   2.012 -0.0964 -0.3109 -0.1738
27919W        W46773  18.901   6.142  12.769  0.1572  0.0544  0.1974
27920W        W46774  15.662   1.336   0.156  0.2998 -0.1271  0.1621
27921W        W46775   2.248  12.425   4.548 -0.1294 -0.0084  0.0108
27922W        W46776  15.129   8.247   1.592  0.0968  0.1764 -0.2022
27923W        W46777   8.111  14.387   0.145 -0.0463 -0.4448 -0.2944
27924W        W46778  15.826   6.509   1.864 -0.0055  0.1705 -0.1616
27925W        W46779  12.229   7.875  10.925  0.1829  0.0134  0.0353
27926W        W46780   4.860  17.810   3.342  0.1478 -0.0294 -0.0565
27927W        W46781   7.516   3.467   1.437 -0.0437 -0.1926 -0.3124
27928W        W46782   8.501   1.510   2.887  0.0975  0.1431  0.0631
27929W        W46783   7.058   1.057  11.004 -0.0443 -0.2418 -0.0399
27930W        W46784   2.168   5.723   3.402  0.1889  0.3065  0.0391
27931W        W46785   3.497   1.628  14.256  0.2474 -0.5545  0.0952
27932W        W46786   6.054   5.735   0.569  0.0739 -0.1497 -0.3068
27933W        W46787   6.709  11.538  13.413  0.2535  0.0269  0.2410
27934W        W46788  16.807   8.032   4.459  0.3424 -0.0035 -0.0496
27935W        W46789  12.633   4.890   2.102  0.2927 -0.0777  0.1904
27936W        W46790   0.383   4.420   3.293  0.0548 -0.4246  0.0749
27937W        W46791  14.227   4.388  13.270 -0.3400  0.0279 -0.2540
27938W        W46792  13.919   8.296  12.701  0.4074 -0.1734  0.2018
27939W        W46793  13.828   0.325  11.539  0.2747  0.1096 -0.1524
27940W        W46794   2.353   2.840  12.928  0.0092  0.0387 -0.1987
27941W        W46795   6.425  13.960  10.205  0.1105 -0.0494  0.2428
27942W        W46796  13.636   5.841  12.552  0.0015  0.2634  0.2822
27943W        W46797   2.285   9.718   1.563 -0.0652  0.1373 -0.2113
27944W        W46798  16.611   1.342   0.007  0.2373 -0.1776 -0.1726
27945W        W46799  10.406  13.292  14.588 -0.1608  0.2669 -0.0682
27946W        W46800   7.998   7.201   2.532  0.0709 -0.0910 -0.2079
27947W        W46801  10.639  16.039   3.399 -0.1148 -0.1265  0.0802
27948W        W46802  17.270   0.782   2.677  0.0671 -0.1599 -0.2054
27949W        W46803   8.037  13.939  11.136  0.2075  0.0377  0.4692
27950W        W46804  17.927  14.044  14.177 -0.1058 -0.0842  0.1817
27951W        W46805  13.931   5.200  11.043 -0.1682 -0.1841 -0.0253
27952W        W46806  10.380   7.499   2.528 -0.0480 -0.3612 -0.0994
27953W        W46807   4.726   7.233  11.091  0.1964 -0.0510 -0.0311
27954W        W46808  12.053   8.626  13.777 -0.1101 -0.3993  0.2138
27955W        W46809  12.839  12.729  10.461 -0.1412 -0.1883 -0.1372
27956W        W46810  14.504  17.764  13.832 -0.0036 -0.0147  0.0272
27957W        W46811  12.053   4.393  13.765 -0.1383 -0.2045  0.2082
27958W        W46812   1.377   7.636  13.971 -0.0125  0.1116  0.4501
27959W        W46813   7.654   1.256   3.392 -0.1401  0.2332 -0.0631
27960W        W46814   3.293   0.594   1.020  0.1920 -0.0395  0.0655
27961W        W46815   6.803   8.255  12.110 -0.0590  0.2165 -0.0369
27962W        W46816  15.159   0.872   0.042 -0.1419 -0.1303  0.0047
27963W        W46817   8.768  17.947   0.243 -0.1805 -0.4720 -0.0907
27964W        W46818  14.288   2.732   0.448  0.0162 -0.0646 -0.1685
27965W        W46819  11.871  18.409  12.160  0.4950 -0.2610 -0.0748
27966W        W46820  17.657  13.975   1.893  0.1425  0.0696  0.1385
27967W        W46821  17.023   7.555   3.457 -0.0798 -0.2422  0.1241
27968W        W46822  18.855  11.894   2.381  0.2961 -0.2179  0.0607
27969W        W46823  18.940   6.358  10.962 -0.1595 -0.1632  0.0364
27970W        W46824  14.356  15.656  11.337  0.0294 -0.2795 -0.1237
27971W        W46825   7.312  11.068  10.588 -0.0766  0.3922  0.4258
27972W        W46826   6.554   4.180  12.088  0.1624  0.1042  0.4081
27973W        W46827  17.078  15.474   3.417 -0.3600  0.5316 -0.0323
27974W        W46828  19.066  14.523   0.225  0.3226 -0.0379 -0.1471
27975W        W46829  10.869   5.931   1.909  0.0267 -0.0496 -0.1204
27976W        W46830   7.461   5.155   3.931  0.0689  0.0921  0.1510
27977W        W46831  11.710  18.169   0.633  0.1851  0.1381 -0.0749
27978W        W46832   7.047  10.393  14.305 -0.0630 -0.0770  0.2076
27979W        W46833  10.320   8.290  14.431  0.3399  0.1231 -0.3185
27980W        W46834   8.004   3.198   0.810  0.1162 -0.1107 -0.7663
27981W        W46835  12.641  16.956   0.574 -0.1163 -0.1884  0.0616
27982W        W46836  14.322  15.229   9.659  0.4203  0.0923  0.2162
27983W        W46837  16.208  15.122  14.225  0.2669 -0.0287 -0.0526
27984W        W46838  15.960   2.159   4.201  0.1130  0.3841  0.2339
27985W        W46839   0.690   2.471   0.678  0.0635  0.0629 -0.1046
27986W        W46840   7.916   9.985   3.241  0.1418  0.2801 -0.1781
27987W        W46841  16.098  15.415   3.249  0.1433  0.0217 -0.0799
27988W        W46842   9.776  13.276  12.014  0.0385 -0.0824  0.0072
27989W        W46843  15.818   1.843   0.236  0.1182 -0.0284 -0.1191
27990W        W46844   6.361   1.940  12.366  0.2523 -0.2658 -0.1362
27991W        W46845  13.946   6.373  13.567 -0.0067  0.0533  0.1475
27992W        W46846  18.756   0.892   3.873  0.1828  0.0692 -0.1947
27993W        W46847  19.132  13.963  10.801 -0.1546 -0.1400  0.1348
27994W        W46848   6.548   3.965  13.506  0.1362 -0.0478 -0.2305
27995W        W46849   6.158  14.625   2.650  0.1014  0.0573 -0.2194
27996W        W46850   2.555   3.676   0.229 -0.0914  0.0752 -0.1572
27997W        W46851   9.495  14.435   1.608 -0.1268  0.2598  0.3206
27998W        W46852  14.159   6.894   0.288  0.0456  0.1225 -0.0359
27999W        W46853   8.813   2.627   1.186 -0.0465  0.6251 -0.0813
28000W        W46854  11.849  14.136   2.672  0.0481  0.2342  0.0808
28001W        W46855   5.415  12.399   1.062  0.0421 -0.1727  0.1465
28002W        W46856   1.984   1.927  11.036  0.3427 -0.1170  0.0112
28003W        W46857  17.181  17.398   0.882  0.1383 -0.1045 -0.2947
28004W        W46858  13.297  17.047   2.663  0.0958  0.1715  0.1532
28005W        W46859  10.388   3.213   9.238 -0.1600 -0.0656  0.1365
28006W        W46860  12.899   7.417  13.471 -0.0682 -0.0224  0.0859
28007W        W46861  13.080  11.790   3.015  0.1393 -0.0003  0.3043
28008W        W46862   2.598  16.908  13.339  0.1344 -0.0593 -0.0603
28009W        W46863   2.911   5.388  12.880  0.0662  0.4426  0.0758
28010W        W46864   6.024   4.032  12.493 -0.3883 -0.2023  0.0470
28011W        W46865  14.246   9.672  13.453 -0.0048 -0.1274 -0.1262
28012W        W46866  17.360   0.318  14.624 -0.1351  0.0560  0.4578
28013W        W46867  16.147   9.880   3.437  0.0999  0.1768 -0.3186
28014W        W46868  11.929  14.606   2.761  0.0013  0.0283 -0.1350
28015W        W46869   2.202  12.253   2.021 -0.2157  0.0191  0.2707
28016W        W46870   8.496   0.362   0.784 -0.0901  0.2002 -0.0935
28017W        W46871   0.896  18.393  13.108 -0.1822  0.2106  0.0316
28018W        W46872  15.224   0.029   0.869 -0.0478  0.0044 -0.2030
28019W        W46873   0.294  11.430  13.824 -0.0369  0.2537  0.0612
28020W        W46874  17.448  13.774   3.346 -0.1094 -0.3082  0.0103
28021W        W46875   5.778   5.756   0.083 -0.1234  0.0324 -0.1063
28022W        W46876  17.628   0.854  13.279  0.0894  0.4245 -0.1654
28023W        W46877   1.251  16.449   1.567 -0.0358 -0.1609 -0.0768
28024W        W46878   3.440  17.494   1.527  0.1561 -0.0031  0.0236
28025W        W46879   9.090  16.492   2.720  0.0519 -0.2032 -0.1316
28026W        W46880   0.768   0.565   3.416 -0.0431  0.1944 -0.0375
28027W        W46881  12.924   8.838   1.031 -0.3427 -0.2693  0.4328
28028W        W46882  10.058   9.407   0.321 -0.0073  0.0728  0.1058
28029W        W46883   4.244  13.050   4.054 -0.2132 -0.2332 -0.2542
28030W        W46884  14.176  15.805  12.417  0.5062  0.0588  0.1879
28031W        W46885   4.795   3.952  14.227 -0.0951  0.1160 -0.1737
28032W        W46886   4.149  14.023   1.057 -0.0975  0.2998  0.1287
28033W        W46887  16.311  10.408  11.211  0.2825  0.0518 -0.2322
28034W        W46888   6.749   9.122   3.118 -0.0561  0.0370  0.0843
28035W        W46889   9.443   6.212   0.802  0.2337  0.1626  0.4249
28036W        W46890  15.430  11.683  10.966 -0.0868  0.0005  0.4136
28037W        W46891  11.922  16.813  10.528  0.1459  0.0741 -0.1125
28038W        W46892   8.249   9.612  10.584  0.0553 -0.1066 -0.0702
28039W        W46893   2.838   3.073  11.126  0.3114 -0.1305 -0.3342
28040W        W46894   7.968   0.912  10.562  0.0261  0.0520  0.1532
28041W        W46895  12.428   9.179   3.533  0.1083  0.1599 -0.1271
28042W        W46896   5.725   5.924  11.460  0.0370  0.1733  0.1622
28043W        W46897  14.889   5.299   4.152  0.2713 -0.2797 -0.2399
28044W        W46898  15.047  15.342  11.687  0.0832  0.1815  0.2837
28045W        W46899  14.773   4.808   3.295 -0.1454  0.1927 -0.0797
28046W        W46900   3.829   6.266   2.076  0.0283 -0.0194 -0.2033
28047W        W46901  15.130   3.793  11.750 -0.3513  0.2379  0.3578
28048W        W46902   7.818  14.770   1.674 -0.2556 -0.2386 -0.1850
28049W        W46903   3.703   4.943  11.660  0.0453  0.0467  0.0661
28050W        W46904  11.816  16.894   1.160  0.0130  0.2068  0.2020
28051W        W46905   3.509  13.774   2.964  0.1764  0.1086  0.1066
28052W        W46906   7.058   7.888   0.820 -0.1299  0.0745 -0.0877
28053W        W46907   3.568  14.251  12.304  0.1978 -0.2586 -0.0652
28054W        W46908   6.229   6.091  11.476  0.0293 -0.4601  0.2275
28055W        W46909   7.701  12.105   2.672 -0.4434  0.0011 -0.0567
28056W        W46910  18.601   4.380   0.186 -0.0846 -0.2415 -0.0078
28057W        W46911   3.866  12.366  12.143  0.1188  0.0913 -0.0466
28058W        W46912   0.122  18.322  11.400 -0.1692  0.4198  0.1760
28059W        W46913  16.703   8.568   1.906 -0.2254  0.1165  0.2165
28060W        W46914  11.254   5.789  11.695  0.1096 -0.0141  0.2267
28061W        W46915  16.287  15.254   2.665 -0.1376 -0.1551  0.3368
28062W        W46916   7.311   5.485   2.123 -0.1625  0.1448  0.0158
28063W        W46917  16.017   8.874  14.224 -0.3792  0.2821  0.1225
28064W        W46918   1.111   2.645  13.746  0.2025 -0.3653  0.1854
28065W        W46919   0.393   3.715  10.693 -0.2839 -0.0555  0.1586
28066W        W46920   5.697   1.161  14.558  0.3044  0.0057  0.1792
28067W        W46921  14.038  17.220   2.134 -0.1976  0.2021 -0.2523
28068W        W46922   4.982   7.003   0.768  0.1732 -0.0100 -0.0493
28069W        W46923  18.742  10.645  13.522 -0.1058 -0.1286 -0.1520
28070W        W46924   8.225   3.903   2.818 -0.2180  0.2521  0.0122
28071W        W46925   9.829   0.432  13.130  0.0737  0.2664 -0.0300
28072W        W46926   7.785  11.088  12.253  0.0706 -0.0431  0.0191
28073W        W46927  10.291  13.489   1.884 -0.3826  0.3422  0.1262
28074W        W46928  17.564   3.918  11.823  0.1298 -0.1622 -0.1765
28075W        W46929   2.074  15.480   3.805 -0.1586 -0.0430 -0.1738
28076W        W46930   7.848  14.037   2.338 -0.1513 -0.3257 -0.3083
28077W        W46931   8.291   0.241  11.437  0.0743 -0.0686  0.1386
28078W        W46932   1.088  19.045  12.426 -0.0299  0.0871  0.0641
28079W        W46933  14.110   9.244  12.807 -0.0632  0.1964  0.0141
28080W        W46934   6.338   1.911   9.968 -0.1326 -0.0366  0.4583
28081W        W46935  18.914  12.260   0.239 -0.0700 -0.0688  0.3181
28082W        W46936  12.009  16.661  13.285 -0.1940 -0.1166  0.0853
28083W        W46937  17.763  17.408   1.531  0.0968 -0.1490  0.1898
28084W        W46938   0.384   8.402   0.958 -0.1091  0.1906 -0.0053
28085W        W46939   4.889  14.729  10.788  0.2637  0.1431 -0.3187
28086W        W46940   4.295  18.631   2.098 -0.1265  0.2661 -0.1174
28087W        W46941   9.979   7.940   4.923  0.2381 -0.0215 -0.0442
28088W        W46942   2.496  10.403   4.235 -0.0128 -0.2224 -0.1226
28089W        W46943  16.293  13.283   1.202  0.2297 -0.1387 -0.2554
28090W        W46944   3.881  16.647  11.994  0.0699 -0.0817  0.1042
28091W        W46945  15.879   3.141  13.316 -0.3198 -0.0853 -0.2445
28092W        W46946   1.954   3.217   1.941  0.0342 -0.1852 -0.0066
28093W        W46947   6.094   4.851  13.644 -0.0617  0.0392  0.2180
28094W        W46948   0.485   1.734  12.255  0.1555 -0.0868  0.3481
28095W        W46949  14.772  14.490   3.940 -0.0260 -0.2644 -0.3440
28096W        W46950   1.579   2.148   3.713 -0.1241 -0.1163 -0.2841
28097W        W46951  13.913   7.727   2.980 -0.3757  0.0281  0.0727
28098W        W46952   3.881   6.967   1.324 -0.0063 -0.0807 -0.0155
28099W        W46953  11.182  15.394   1.899 -0.0037  0.2978 -0.0184
28100W        W46954   6.520  12.033   3.513 -0.1986 -0.1429 -0.4196
28101W        W46955   9.033   3.900   1.162  0.2220 -0.0605 -0.0732
28102W        W46956   1.427   7.360  12.304  0.0505 -0.0274  0.4149
28103W        W46957   0.505   8.230  14.001 -0.2251 -0.2394  0.2990
28104W        W46958  10.771  14.148  12.548 -0.0713 -0.0068  0.2619
28105W        W46959  11.688  18.726  11.828  0.2177 -0.1089  0.0192
28106W        W46960  12.586  18.745   1.936  0.2396 -0.1031  0.3051
28107W        W46961   4.599   5.243  13.741 -0.2816  0.0501  0.0142
28108W        W46962   5.421   9.852   2.567  0.1648  0.1377 -0.2693
28109W        W46963   5.491   4.425   1.085 -0.3064 -0.2306 -0.2264
28110W        W46964  17.459   7.534  12.897  0.2914 -0.2021  0.2921
28111W        W46965  18.668  14.828   2.444  0.1527  0.2983  0.0038
28112W        W46966  13.523  16.735   0.111 -0.0286 -0.0226  0.2095
28113W        W46967  15.446   7.340   1.641  0.1428 -0.1329  0.1667
28114W        W46968  11.172  15.566   1.473 -0.3656 -0.1351  0.0522
28115W        W46969   6.772  18.297   1.286  0.1891 -0.2324 -0.0765
28116W        W46970   8.486   5.319   1.323  0.1495  0.0535  0.0100
28117W        W46971  13.492  18.046   2.542  0.0236 -0.3173 -0.0559
28118W        W46972   8.882   0.053  14.010  0.1343 -0.0841 -0.0553
28119W        W46973   1.287   8.976   0.338 -0.1346  0.1834  0.2517
28120W        W46974   1.365   0.498   0.062  0.0626 -0.1454 -0.0075
28121W        W46975   6.482  15.434  10.869  0.1607  0.1501 -0.3203
28122W        W46976   6.903  12.751   4.569  0.1677  0.3398  0.2897
28123W        W46977   8.309  12.817  13.660  0.1721  0.0761 -0.1810
28124W        W46978   6.609   1.199  11.171 -0.0286  0.0032 -0.1471
28125W        W46979   7.687   0.024  10.392  0.4686 -0.1228 -0.3875
28126W        W46980  15.849  14.352   0.601 -0.0622 -0.1247 -0.1193
28127W        W46981   0.294   3.138   2.625 -0.2136  0.0569  0.1154
28128W        W46982   5.758  17.303  13.335  0.0592 -0.0271  0.0339
28129W        W46983  17.682   2.352   2.840 -0.0109  0.0135 -0.0994
28130W        W46984  11.096   2.669  13.234  0.1715  0.0280  0.0476
28131W        W46985   6.977   1.235   2.272 -0.1579 -0.2422  0.1388
28132W        W46986  18.531   1.291  13.304  0.0379  0.0452 -0.1360
28133W        W46987  17.108   0.604   1.796 -0.0975 -0.0490 -0.2272
28134W        W46988   4.874  17.399  11.837  0.1430 -0.0114 -0.0729
28135W        W46989   5.658  12.150  11.602  0.0870 -0.2756 -0.2651
28136W        W46990  13.894  14.532  10.367 -0.0519 -0.1399 -0.4142
28137W        W46991   6.437   6.435   3.774  0.1818 -0.2388 -0.1436
28138W        W46992   0.357  18.383   3.665 -0.0281  0.2782  0.5324
28139W        W46993   7.605  12.743  12.381 -0.0398 -0.1553 -0.1082
28140W        W46994   4.703  16.645   0.418 -0.1403  0.4441  0.3319
28141W        W46995   9.056  13.471   4.482  0.1287  0.0709  0.1304
28142W        W46996  17.447   4.753   0.749  0.0160  0.0256 -0.0361
28143W        W46997   5.792   3.717  14.067  0.2538 -0.1150  0.3897
28144W        W46998  11.866   9.658   3.073  0.3962 -0.2190 -0.0649
28145W        W46999  11.454  16.820   2.703 -0.2635 -0.1067  0.1792
28146W        W47000   9.237   8.142   4.335 -0.0972 -0.1796  0.1543
28147W        W47001  18.906   3.396  12.243 -0.2550 -0.2053  0.1640
28148W        W47002  12.343   7.239   3.793 -0.1344  0.1976 -0.2406
28149W        W47003   4.675  14.209   4.018  0.1523 -0.0334  0.1209
28150W        W47004   1.254  16.803   3.807 -0.0843  0.0445 -0.2677
28151W        W47005  16.185  17.200  12.906  0.0169  0.3339  0.0135
28152W        W47006  14.159   2.575  14.469 -0.1380  0.1259 -0.2932
28153W        W47007  11.638   3.328   1.744  0.0746 -0.1519  0.0332
28154W        W47008   4.090   2.820  14.509 -0.2081 -0.2081  0.2796
28155W        W47009   8.095   8.090   2.850  0.0782  0.0117 -0.0440
28156W        W47010   0.637   5.041   0.303  0.1103  0.2180  0.2941
28157W        W47011   5.810   1.383   0.654 -0.0080 -0.1243  0.0065
28158W        W47012  18.248  11.137  14.358  0.0001  0.0359 -0.1037
28159W        W47013  16.343  10.262  13.692 -0.2993  0.0602 -0.0554
28160W        W47014   0.544  17.942   2.253 -0.0523  0.2827  0.0411
28161W        W47015   2.270  14.806   4.382  0.4019 -0.0623  0.1755
28162W        W47016  19.011  12.468   4.047  0.5879 -0.0632 -0.0285
28163W        W47017   7.705   1.402  13.473  0.4692 -0.0343  0.0577
28164W        W47018   7.145  11.030   3.114 -0.0809  0.3182  0.0568
28165W        W47019   2.757   1.133   4.983  0.1833  0.1426  0.0758
28166W        W47020   2.066   5.793   4.525 -0.0767 -0.1504  0.0117
28167W        W47021   2.945  16.472   1.183 -0.0290 -0.3897 -0.2569
28168W        W47022  16.290   4.470   4.041 -0.2303  0.0880 -0.0811
28169W        W47023  16.106  11.053   5.675  0.1293 -0.1691  0.0746
28170W        W47024  12.700   9.658   3.710 -0.0771 -0.0600 -0.3875
28171W        W47025  13.010   6.931   2.808  0.0611 -0.0094 -0.1719
28172W        W47026   0.988   8.939  12.405 -0.1249  0.0509  0.0053
28173W        W47027  14.232   6.182   1.260 -0.1042  0.1109  0.1037
28174W        W47028   1.107   3.061  12.116  0.0469  0.2728 -0.1104
28175W        W47029  18.720  13.342  12.770  0.1646 -0.0958 -0.0792
28176W        W47030  14.552  15.462  14.662  0.1375  0.1310  0.2689
28177W        W47031   1.079   7.501   1.693 -0.1209 -0.0910 -0.2470
28178W        W47032   0.812  18.972   0.140  0.3631 -0.2525 -0.0699
28179W        W47033   0.292  12.552  13.081 -0.0956 -0.0691  0.1098
28180W        W47034   2.933   0.857   2.657  0.1649  0.0886 -0.1613
28181W        W47035   8.030   9.400   0.960 -0.0373 -0.1843 -0.0105
28182W        W47036  14.166   9.557  12.456  0.3390 -0.3297 -0.3157
28183W        W47037  13.186   8.898  11.543 -0.0869  0.1775 -0.2242
28184W        W47038  12.304  14.973  10.009  0.2232 -0.4323  0.1103
28185W        W47039  10.888   0.870   3.860  0.3442 -0.0138  0.1514
28186W        W47040   6.340  10.344  12.539  0.2357  0.0185  0.1509
28187W        W47041  13.088   6.725   4.307  0.3000 -0.1909  0.0218
28188W        W47042   6.958   1.903  14.014  0.0393  0.0427  0.1500
28189W        W47043   4.113  12.262  12.619 -0.0570  0.1038  0.1362
28190W        W47044   8.539  13.968   3.596  0.1017 -0.0944  0.1561
28191W        W47045   1.495  13.966   2.756  0.1451 -0.1080  0.2353
28192W        W47046   9.003   2.025   0.560  0.0816  0.0153  0.1126
28193W        W47047   7.506   0.548   4.418 -0.2940 -0.1078  0.2343
28194W        W47048   0.266   8.341   4.167 -0.0139 -0.0792 -0.2008
28195W        W47049  12.874  15.616  11.199  0.1198 -0.3240 -0.1574
28196W        W47050   7.126   2.009  14.689  0.2415  0.4059 -0.1718
28197W        W47051   3.307   6.939  13.757 -0.0987 -0.0896  0.1710
28198W        W47052   6.735   0.458   3.453  0.1618 -0.0216  0.0961
28199W        W47053   4.162   2.229  13.408 -0.2453 -0.2155 -0.1680
28200W        W47054   1.635   8.896   0.737 -0.3488 -0.0162 -0.4661
28201W        W47055   5.777   3.004   3.047  0.0869  0.2388  0.0620
28202W        W47056  14.555  14.845  11.207 -0.1451  0.1817 -0.0792
28203W        W47057   7.548  18.350  12.041  0.2942 -0.0052 -0.3367
28204W        W47058   7.573  18.983   3.503 -0.1046  0.1306  0.1645
28205W        W47059  12.370  11.905   3.233 -0.3222 -0.1861  0.1748
28206W        W47060  16.094  15.183  12.558  0.4497  0.1854 -0.0672
28207W        W47061  10.643  18.519  10.570  0.2366  0.0299  0.3479
28208W        W47062   3.832  15.680   0.398 -0.0322  0.0681 -0.2654
28209W        W47063  13.986  18.354  11.538 -0.1529 -0.0674 -0.1472
28210W        W47064  16.523   5.895  11.978 -0.1710  0.1624 -0.1290
28211W        W47065   1.810  10.716   0.665 -0.1047 -0.1372 -0.1014
28212W        W47066   8.297   4.538  13.085 -0.2251  0.0552  0.0641
28213W        W47067   3.095   4.702  13.659 -0.0634  0.0068 -0.2368
28214W        W47068   5.907   8.735   2.767 -0.1656  0.1484 -0.0766
28215W        W47069   8.677   4.937  11.094  0.0222  0.1081  0.0687
28216W        W47070  16.823  18.651   2.875  0.3755  0.3444 -0.1162
28217W        W47071   1.274  15.312  14.396 -0.1534  0.1957  0.0649
28218W        W47072   0.474  11.840   4.382  0.1748  0.0807  0.3567
28219W        W47073   5.705   8.508  12.727 -0.2347  0.0793 -0.2367
28220W        W47074   8.819  10.611   1.766  0.1014 -0.0050  0.0383
28221W        W47075   0.357   7.601   4.546  0.2855  0.3942 -0.1156
28222W        W47076  15.661   7.818   2.096 -0.0370  0.2476 -0.2195
28223W        W47077  10.555   1.773  12.274 -0.0264 -0.4813  0.0964
28224W        W47078  15.641   1.458  13.578  0.2602 -0.0325 -0.2491
28225W        W47079   6.655  17.376   3.705 -0.1463 -0.1687 -0.3352
28226W        W47080  17.635  10.668   0.217  0.3939 -0.2831 -0.1502
28227W        W47081   1.372   9.466   3.651  0.2624 -0.1844 -0.0195
28228W        W47082  15.486  13.672  11.231  0.2153  0.0770 -0.0365
28229W        W47083  12.229  13.212  11.051  0.1289 -0.0323  0.0632
28230W        W47084   7.395   8.859   0.465 -0.0997  0.1980 -0.0749
28231W        W47085  10.817  16.618   2.078  0.2364  0.1598  0.1109
28232W        W47086  15.609   6.730   2.497  0.0330 -0.1044  0.0533
28233W        W47087  10.422  10.791   3.011  0.0859 -0.1028 -0.1719
28234W        W47088   7.428   2.508   1.266  0.0725  0.0088  0.1763
28235W        W47089  17.855   1.143  11.627 -0.0280  0.2018  0.1451
28236W        W47090   2.713  13.350   2.133 -0.0754  0.5061  0.2700
28237W        W47091   7.572   6.027   3.212 -0.1029  0.2904 -0.1423
28238W        W47092   6.588  10.563   4.373  0.0284 -0.0228 -0.2244
28239W        W47093   1.827   9.850   4.724  0.4655  0.0136  0.1627
28240W        W47094   6.722   5.833   0.603 -0.3030  0.0416 -0.2193
28241W        W47095   5.597   3.749  12.007  0.3656 -0.1629 -0.1124
28242W        W47096  10.194   2.624   0.921 -0.0823  0.3956 -0.1963
28243W        W47097   5.604   7.919   0.483  0.4286  0.3216  0.2313
28244W        W47098   6.282   5.705  13.730  0.0324 -0.3141 -0.1392
28245W        W47099   9.774   5.978  11.239  0.3101  0.3165 -0.1239
28246W        W47100  13.890  18.076  12.573 -0.1103  0.1115 -0.5383
28247W        W47101   9.341  16.369  12.473  0.1815 -0.3110  0.0271
28248W        W47102   7.960   7.121   1.741  0.1121  0.2286  0.1027
28249W        W47103   3.428  14.564  11.968  0.2429 -0.0892 -0.0747
28250W        W47104  16.836  11.145  12.702  0.0289 -0.0634 -0.1183
28251W        W47105  17.567  15.182  11.607  0.0830 -0.0443 -0.1290
28252W        W47106  15.276   1.623   1.617  0.0133 -0.1045  0.0735
28253W        W47107   3.378   5.601   2.482 -0.1322 -0.0652  0.0492
28254W        W47108  16.192   2.212  13.546  0.1301 -0.0912 -0.1782
28255W        W47109  18.965  12.361   2.781 -0.0939 -0.4909 -0.0780
28256W        W47110  19.080   2.098   0.500 -0.1919  0.3219  0.1939
28257W        W47111   8.603   6.271  10.065  0.2596  0.2765  0.0005
28258W        W47112  18.852  12.320  11.907 -0.0716 -0.1772  0.0903
28259W        W47113   7.108  16.208  10.978  0.1597 -0.1301  0.3468
28260W        W47114  17.612  16.946  11.544 -0.0920 -0.1535 -0.2467
28261W        W47115   2.218  16.593   4.034 -0.0329  0.4725  0.1859
28262W        W47116   2.953  10.983  14.313 -0.0839  0.1717 -0.1389
28263W        W47117   4.806   8.482   3.954  0.1462  0.0309  0.0906
28264W        W47118  11.211  17.733  11.186  0.0468  0.0375 -0.2632
28265W        W47119   0.509  16.072  12.187 -0.2952  0.0623 -0.2839
28266W        W47120  16.393   1.320  12.007  0.1142  0.3170  0.0819
28267W        W47121   1.784  13.034  11.985  0.2612 -0.0735  0.1555
28268W        W47122   3.655   7.592   1.296 -0.2153  0.0869 -0.0771
28269W        W47123   8.471   9.247   3.498 -0.0187 -0.0976  0.0894
28270W        W47124   7.770   0.983   0.640 -0.1452 -0.3232  0.1169
28271W        W47125  14.237   8.732   3.908  0.1477 -0.0482 -0.0892
28272W        W47126  16.010  13.859  11.061  0.2589  0.0753  0.1335
28273W        W47127   1.261  14.065  13.911  0.2305 -0.1366 -0.5118
28274W        W47128  11.263   9.554   0.015  0.0154 -0.1082 -0.0779
28275W        W47129   0.118  13.581   3.832 -0.0958 -0.1893  0.2382
28276W        W47130  11.193  18.805   4.735 -0.0247 -0.0621 -0.1472
28277W        W47131  17.974   8.793  12.557 -0.0002  0.2480 -0.1421
28278W        W47132  15.747  18.390   3.157  0.0341 -0.1587 -0.0453
28279W        W47133  16.382  10.659   4.025 -0.2247  0.1523 -0.0248
28280W        W47134   8.404  14.915   2.892 -0.1715  0.2229 -0.0422
28281W        W47135   0.575  15.110   0.175 -0.0966  0.0545 -0.2269
28282W        W47136   7.974  15.829  12.596  0.1064 -0.1742  0.2950
28283W        W47137  14.692   7.626  14.080  0.0052 -0.0312  0.1514
28284W        W47138  14.670   3.328   1.124  0.1087  0.0244 -0.1771
28285W        W47139  18.981  12.723  13.427  0.0084 -0.0013 -0.1176
28286W        W47140  11.104  19.154  14.653  0.0789  0.0404  0.0683
28287W        W47141   5.772  18.175  11.001  0.1133 -0.1067 -0.2970
28288W        W47142   9.264  18.607   4.083 -0.0879 -0.0194  0.1274
28289W        W47143  11.219  14.269   3.321 -0.0630 -0.1744  0.1189
28290W        W47144   8.275  18.259   1.696  0.0999 -0.1394 -0.2837
28291W        W47145  17.328  11.731  12.637  0.1758 -0.0007 -0.0148
28292W        W47146   9.933  16.399   4.502  0.0553  0.0168 -0.0024
28293W        W47147   5.180  16.440   4.059  0.0365  0.1878 -0.3663
28294W        W47148   7.365  11.655  12.630  0.2724  0.1761  0.5898
28295W        W47149   8.097  10.069  11.382  0.0838 -0.1573 -0.2511
28296W        W47150  14.232  11.203   9.782  0.2472  0.1265  0.1388
28297W        W47151   1.155   4.869   1.132 -0.1326  0.3818 -0.0631
28298W        W47152   7.769  14.778  12.040 -0.1004  0.1924  0.0522
28299W        W47153  13.333  10.153  13.903  0.3984 -0.0860 -0.0329
28300W        W47154   4.042  12.386   2.355  0.0830 -0.1241 -0.1287
28301W        W47155  11.914  13.842  12.866  0.2378  0.1754 -0.0566
28302W        W47156   0.848   9.785   5.116 -0.3068 -0.0207 -0.3619
28303W        W47157   1.103  14.484   0.699  0.0040 -0.0136 -0.1852
28304W        W47158   5.139  18.257   2.578  0.0564 -0.2491  0.1044
28305W        W47159  10.065  10.788  14.302 -0.3187 -0.2437  0.0980
28306W        W47160   7.057  18.971   4.063 -0.3444 -0.0242  0.0559
28307W        W47161   6.582  16.073  11.280  0.0932 -0.0503 -0.2306
28308W        W47162  16.000  11.286  12.429  0.0768 -0.0895 -0.1500
28309W        W47163   0.325   4.923   1.268  0.0976 -0.1720 -0.2108
28310W        W47164   6.546  17.494   2.503  0.0902 -0.0561  0.0143
28311W        W47165  10.767   7.328   3.997 -0.2877 -0.1044  0.0049
28312W        W47166   6.226   8.169  11.304  0.1598  0.0041 -0.0592
28313W        W47167   4.197   8.757   3.212  0.3444  0.2786  0.1553
28314W        W47168   5.191   5.935   0.660  0.3470 -0.0119 -0.1234
28315W        W47169   6.199  13.010   3.970 -0.0300 -0.1257 -0.1227
28316W        W47170   0.770   6.000   1.628 -0.1298  0.1599  0.1532
28317W        W47171   2.019   8.930   0.231 -0.0820  0.0827  0.1169
28318W        W47172  16.621   7.228  13.788  0.2464 -0.0086 -0.1876
28319W        W47173  13.647   0.586   4.036 -0.1283  0.1456  0.0112
28320W        W47174  17.578  15.463   3.395 -0.1676  0.2362 -0.0188
28321W        W47175  16.161   0.848  14.051 -0.2956  0.1566 -0.0350
28322W        W47176   4.610  13.757   3.345  0.5263  0.2662 -0.5044
28323W        W47177  13.717  13.230   2.250  0.0737 -0.3184 -0.2771
28324W        W47178   4.212  11.553  13.835  0.4328  0.0436  0.0568
28325W        W47179   6.368  19.126  14.474 -0.4402  0.0295 -0.3910
28326W        W47180   1.857  17.788  12.618  0.0738 -0.1836  0.0900
28327W        W47181   7.192   1.007  14.529  0.0147 -0.0882 -0.0094
28328W        W47182   7.284   2.357  10.400 -0.0124  0.0730 -0.4117
28329W        W47183  13.283   9.738   9.837  0.2585  0.0161  0.0649
28330W        W47184   9.883   5.798   4.253 -0.3007  0.0070 -0.3090
28331W        W47185   0.787   6.291  11.626  0.0257  0.0248  0.3281
28332W        W47186   3.829   3.987  10.980 -0.2820 -0.1277  0.2676
28333W        W47187  18.085   0.623   2.294 -0.1898  0.0884  0.2133
28334W        W47188   7.531  10.430   4.894  0.1803  0.1036  0.1264
28335W        W47189   6.008   5.291   9.812  0.1317  0.1032 -0.3961
28336W        W47190  15.520  17.635  14.007 -0.4683  0.0647  0.3995
28337W        W47191   9.100  18.237  11.383 -0.0737  0.0363  0.1380
28338W        W47192   9.095   0.282   0.151  0.0756  0.2383 -0.1512
28339W        W47193  14.282  14.146  14.591 -0.1505  0.0514  0.1444
28340W        W47194  12.470   7.431   9.876  0.0019 -0.0424  0.0165
28341W        W47195  13.117   5.255   2.767 -0.2440  0.3062 -0.0041
28342W        W47196   1.757   2.388  10.997 -0.1364 -0.2615  0.0094
28343W        W47197   1.015  17.946   9.669  0.1143 -0.2584  0.1556
28344W        W47198   7.736  13.473   3.828 -0.0297 -0.0471 -0.0761
28345W        W47199   1.636   2.686   3.693  0.4169  0.0201  0.0852
28346W        W47200   5.971  18.430   1.796 -0.2479  0.1507  0.0616
28347W        W47201  15.183  18.470   3.971 -0.0995  0.1950  0.0956
28348W        W47202  10.647  11.599   0.482  0.2145  0.1183 -0.1417
28349W        W47203  11.586  14.194  12.399 -0.0446  0.1567  0.0596
28350W        W47204  12.628  13.368   3.306 -0.0606  0.3116  0.1143
28351W        W47205  17.770  11.571  14.572 -0.2184 -0.1024 -0.1586
28352W        W47206   4.803  14.214   5.322 -0.0570 -0.2300  0.2979
28353W        W47207  18.325   1.768   2.285 -0.2392 -0.1387  0.0712
28354W        W47208   1.669  13.153   0.563  0.1015 -0.0188 -0.0422
28355W        W47209   1.850   4.770  11.472  0.0502  0.0508 -0.0915
28356W        W47210  17.761  11.909  13.503 -0.1454  0.1603  0.2711
28357W        W47211   5.965  15.356   0.393 -0.1916  0.1074 -0.1169
28358W        W47212  18.527  11.993   1.830 -0.0440 -0.1923  0.1190
28359W        W47213   4.616  10.133   3.849 -0.2249  0.2798  0.3510
28360W        W47214   1.147   9.108   2.373 -0.1274  0.2405  0.3149
28361W        W47215   5.909  15.859   2.373  0.0623  0.1212 -0.1056
28362W        W47216  19.023  16.763   1.370  0.3696  0.1701 -0.2274
28363W        W47217   1.171   9.612  11.683 -0.1612  0.1430 -0.1024
28364W        W47218   8.093  13.916   1.883 -0.2384 -0.0953 -0.0480
28365W        W47219   8.884  16.319   9.601  0.0541  0.1319 -0.2082
28366W        W47220   1.223   9.712   4.193  0.0323  0.1257 -0.0289
28367W        W47221   9.553   6.469   3.530  0.1780  0.2438  0.0750
28368W        W47222   6.813   1.406   0.703  0.0035 -0.1395 -0.0610
28369W        W47223   0.248  10.904   1.836 -0.3986 -0.0460  0.3754
28370W        W47224  16.966   1.584   2.654  0.0672 -0.0394  0.2051
28371W        W47225  10.370   4.344   3.225  0.0169 -0.1952  0.1507
28372W        W47226   3.121  14.607   3.406  0.3103  0.2031 -0.0139
28373W        W47227   5.929  17.710   0.546  0.0582  0.1557  0.0074
28374W        W47228  16.527   1.488   2.917 -0.1126 -0.1895  0.1899
28375W        W47229   2.453   8.624   3.050 -0.0682  0.2010 -0.1521
28376W        W47230   2.778  11.745  13.346  0.2068 -0.1070 -0.0333
28377W        W47231  12.663   0.435  11.209  0.2772 -0.2050  0.2486
28378W        W47232   5.398   6.782   1.039  0.0271  0.1821 -0.1198
28379W        W47233  14.808   8.704  13.056 -0.0016  0.0055 -0.0560
28380W        W47234  15.743  15.091   3.046  0.0477 -0.1581 -0.4187
28381W        W47235  13.567  13.031  13.175 -0.2522  0.2604 -0.3682
28382W        W47236  10.612   7.569  13.133 -0.2606  0.1752  0.0450
28383W        W47237  16.696   7.687  14.617  0.2839 -0.1229 -0.1963
28384W        W47238   0.969   5.471  14.154  0.4184  0.2069  0.2385
28385W        W47239  16.977   8.207  12.256 -0.0954  0.1178  0.1158
28386W        W47240   2.921   6.340   3.099  0.0565  0.2794  0.2217
28387W        W47241   7.593   5.063   0.423 -0.2009 -0.3910 -0.0098
28388W        W47242   3.970  17.322  13.865 -0.1570  0.0191 -0.1373
28389W        W47243  12.383  10.664   3.117  0.2432  0.1779  0.0348
28390W        W47244   1.887  13.164  14.194 -0.2484  0.3867  0.0193
28391W        W47245   0.096   5.537   2.689 -0.0285  0.1046  0.0739
28392W        W47246  18.839  17.939   4.317  0.2372 -0.2493 -0.3774
28393W        W47247   4.067  12.092   9.632 -0.2782 -0.1608  0.1117
28394W        W47248   3.665  12.163   0.215  0.1253  0.0071  0.2528
28395W        W47249  10.767   2.406   3.407 -0.3337 -0.2176 -0.0382
28396W        W47250   9.015   1.674  13.414 -0.1665 -0.0813 -0.1141
28397W        W47251  11.155  14.146   1.853  0.0868 -0.0488 -0.0461
28398W        W47252   1.148  10.257   3.147  0.1672  0.0381  0.2793
28399W        W47253   7.817  12.416  13.609  0.1984 -0.0713  0.0110
28400W        W47254   6.302   5.050  11.720  0.1393  0.2186 -0.1277
28401W        W47255   0.721  10.950  13.349  0.1197 -0.2770 -0.0140
28402W        W47256   7.966   0.346   0.753  0.0876 -0.0460  0.0458
28403W        W47257   3.395  10.622  10.634  0.0120  0.0119 -0.0648
28404W        W47258  12.438  16.547   1.953  0.1819  0.1406 -0.2664
28405W        W47259   4.556   9.247  11.953 -0.0840 -0.0305 -0.0530
28406W        W47260  17.254   2.796   0.143  0.1594  0.0682 -0.1083
28407W        W47261   4.630   2.026  14.111 -0.0720  0.1590 -0.1725
28408W        W47262  12.397   6.176   4.624 -0.1326  0.2749 -0.4203
28409W        W47263  12.265   4.849   9.779 -0.3296 -0.2715 -0.4026
28410W        W47264   9.395   4.142  10.519  0.0061 -0.1853 -0.2245
28411W        W47265  13.535   3.171   0.896 -0.0932 -0.3975  0.1315
28412W        W47266   2.592   7.305   0.496 -0.4233 -0.3453  0.0024
28413W        W47267  17.332   4.359  10.020  0.3411 -0.3284  0.0738
28414W        W47268   9.309   5.948   3.211 -0.0540 -0.2697  0.3016
28415W        W47269   8.135   6.896   2.174  0.0529  0.1914 -0.2738
28416W        W47270  12.975   2.310   5.224  0.3332 -0.0222  0.2290
28417W        W47271  10.412  18.045  13.118  0.2439  0.3597 -0.0451
28418W        W47272   4.681  17.319   2.447 -0.3395 -0.1669  0.6213
28419W        W47273  18.654  11.144  10.519 -0.0901 -0.1676  0.1874
28420W        W47274  11.726   4.372   1.298 -0.1570 -0.0586 -0.1233
28421W        W47275   1.172   9.959  12.938  0.0848 -0.1618 -0.0208
28422W        W47276   3.633   2.145  14.193 -0.0196 -0.4729 -0.2077
28423W        W47277   3.250   3.462  12.191  0.0121  0.1066 -0.4523
28424W        W47278  14.302  13.782  11.447 -0.2280  0.2046  0.0554
28425W        W47279  18.016  10.876  10.303 -0.0168  0.1368  0.0420
28426W        W47280   7.490  15.324  13.737 -0.1106 -0.0309 -0.1305
28427W        W47281   2.676  12.842  14.070 -0.2532  0.0464 -0.0305
28428W        W47282   3.328  18.338  12.468 -0.2400 -0.0073  0.1363
28429W        W47283  17.661  14.183  12.452  0.2626 -0.1856  0.3304
28430W        W47284  17.311  10.249  12.156  0.2323 -0.0226 -0.1368
28431W        W47285   4.009   7.651   2.509 -0.2933  0.0532 -0.1349
28432W        W47286   3.882  13.169  13.910  0.0219  0.0752 -0.1243
28433W        W47287   1.418   3.875   1.359 -0.0040  0.3712 -0.1783
28434W        W47288   7.522   4.382   1.052  0.1026  0.1344  0.0707
28435W        W47289   7.613  14.307  13.183  0.1312  0.1581 -0.3399
28436W        W47290   2.654  15.896   3.320 -0.2143  0.1110  0.0045
28437W        W47291   3.948   1.730  12.229  0.0224 -0.0084  0.3578
28438W        W47292  17.968   6.986  13.321 -0.0193  0.1107 -0.3018
28439W        W47293   1.664   8.651  13.812  0.0281  0.1278 -0.1608
28440W        W47294   9.622   8.579  13.942 -0.0134 -0.0279 -0.2438
28441W        W47295  12.786   8.519  13.066 -0.0858  0.3125 -0.1224
28442W        W47296  11.724   1.974  10.851  0.1793  0.0364  0.2921
28443W        W47297   2.672   4.745   4.134 -0.0838  0.2863 -0.3601
28444W        W47298   7.814   8.030  11.209  0.1340  0.1121 -0.2847
28445W        W47299  10.392   3.447  12.354 -0.0876  0.1936 -0.1028
28446W        W47300   1.846  18.072   3.925 -0.1239  0.0532  0.2413
28447W        W47301   0.956   9.118   1.880  0.0589  0.1957  0.0843
28448W        W47302  10.316  10.010  12.682 -0.2343 -0.1773 -0.0998
28449W        W47303   6.499  15.835  13.210  0.1845 -0.1094 -0.2331
28450W        W47304   4.762   1.109   0.711  0.0528  0.1037  0.0657
28451W        W47305   7.449   4.118  12.904  0.2977 -0.0397  0.0916
28452W        W47306   0.380  14.453  13.277 -0.0945  0.2502 -0.0860
28453W        W47307  13.657  16.831  13.826  0.0723 -0.1864 -0.0016
28454W        W47308  15.668  15.682   1.560 -0.2618  0.2017  0.1721
28455W        W47309   0.220  15.417   0.545  0.2544 -0.0188 -0.1156
28456W        W47310   5.928   7.715   1.835 -0.0262 -0.1611 -0.2708
28457W        W47311   5.255   8.800  12.245  0.2210  0.0231  0.2227
28458W        W47312   1.605   1.024   3.385  0.3263  0.1860  0.0653
28459W        W47313   2.301   7.533   1.651  0.3517  0.1463  0.0301
28460W        W47314   3.287  12.148  10.694 -0.1126 -0.1928 -0.0655
28461W        W47315   0.649  12.390  12.763 -0.3606  0.1811  0.4381
28462W        W47316   6.977  14.137   1.682 -0.4028  0.1648  0.3382
28463W        W47317   3.487   3.015  14.400 -0.1937  0.1697 -0.1453
28464W        W47318   2.129   3.405   0.468  0.1335  0.0975 -0.1113
28465W        W47319   1.497  17.977   2.691 -0.1878  0.2018 -0.0138
28466W        W47320  13.806  11.458  13.581 -0.0732  0.1926  0.0273
28467W        W47321  19.056   8.597   3.923  0.0376  0.0678 -0.3225
28468W        W47322   3.729  13.035  12.910 -0.5049 -0.1880  0.0553
28469W        W47323   2.082  14.562  13.405 -0.1230 -0.0650 -0.1706
28470W        W47324  11.071  14.235   0.984  0.2656  0.1025 -0.1301
28471W        W47325  15.001  17.710  13.032  0.1653 -0.2790  0.1427
28472W        W47326  10.585   1.502   3.777 -0.3325 -0.0589  0.2300
28473W        W47327   4.352   3.593   1.851 -0.0832  0.1605 -0.1450
28474W        W47328   9.386   6.321  12.166  0.0689 -0.1908 -0.0477
28475W        W47329  18.774   6.832   0.437 -0.1950 -0.0118  0.2144
28476W        W47330  13.587  13.563   4.587  0.0151  0.2337  0.3580
28477W        W47331  12.814   3.234   2.563 -0.1270 -0.2329 -0.0413
28478W        W47332  13.891  14.722   2.199  0.0468 -0.0429 -0.1526
28479W        W47333   3.295  18.838   1.223 -0.0694 -0.0115  0.2228
28480W        W47334   3.688  18.086   0.299 -0.3421  0.0558 -0.1368
28481W        W47335   7.124   9.620  13.461 -0.0301 -0.1058  0.1093
28482W        W47336  16.967   4.422   0.445  0.0186  0.2004  0.3910
28483W        W47337   6.180  17.405   2.904  0.1379 -0.1815  0.0919
28484W        W47338  13.956   8.631  13.723 -0.1034 -0.3434 -0.0628
28485W        W47339   0.245   6.250   0.087 -0.0963 -0.0334  0.3019
28486W        W47340   9.145  16.113  10.760 -0.0821 -0.2078 -0.0132
28487W        W47341   3.065  17.609  12.049  0.2948  0.3963  0.0845
28488W        W47342   2.794   0.696  11.916 -0.2240 -0.0440 -0.0852
28489W        W47343   6.115   7.680  13.648 -0.1066  0.1246 -0.1090
28490W        W47344  14.316  11.725  12.818  0.3959 -0.3264  0.1888
28491W        W47345  16.836  13.541   4.693  0.0107  0.0840 -0.1981
28492W        W47346   2.196   4.553   2.327 -0.0388  0.0663  0.0944
28493W        W47347   1.391   7.583   2.953  0.1091  0.4470 -0.4160
28494W        W47348   0.808   2.276   3.580 -0.0317 -0.0633 -0.1687
28495W        W47349   7.142  13.279  10.438  0.0237  0.2574  0.3227
28496W        W47350  18.339   6.174  12.533 -0.0061 -0.0207  0.4801
28497W        W47351   7.009   2.556   1.592  0.0439  0.1362  0.0634
28498W        W47352   0.842   5.081  11.126 -0.1934  0.3091 -0.0446
28499W        W47353   3.525  16.185   0.020  0.0534  0.2903  0.1647
28500W        W47354  16.759  14.507   3.754 -0.1463 -0.1546  0.0881
28501W        W47355  12.636  14.246  13.278  0.0461 -0.0160 -0.1372
28502W        W47356  16.843  15.905   3.340  0.3020 -0.1884 -0.1591
28503W        W47357  15.543  16.275  13.637 -0.0459 -0.2864  0.1208
28504W        W47358   3.562  18.389  14.239 -0.0612  0.2396  0.1500
28505W        W47359   3.232   0.799   4.223  0.2358 -0.0151  0.2860
28506W        W47360   9.359  11.199   0.853 -0.0529 -0.3042  0.1961
28507W        W47361  10.709  15.933  10.810  0.1101  0.3095 -0.1868
28508W        W47362  18.463  12.258   0.970  0.0111 -0.1068  0.0733
28509W        W47363  17.228  10.880  14.740 -0.1406 -0.2590 -0.2858
28510W        W47364   5.459   4.390   9.777 -0.0082 -0.0133  0.3366
28511W        W47365   6.066   3.543  10.403  0.1585  0.5543 -0.1658
28512W        W47366  11.263  17.120  11.081  0.1516 -0.2682  0.0347
28513W        W47367   6.609   7.013   3.289  0.4003  0.0393 -0.0535
28514W        W47368   1.746  12.519   4.623  0.1482  0.3406  0.1246
28515W        W47369  11.370   1.358   3.161  0.0458  0.1558  0.0888
28516W        W47370   4.720   1.048   1.286 -0.0291  0.0144  0.0959
28517W        W47371  14.657  12.435   2.981  0.2485  0.0027 -0.0488
28518W        W47372  17.325   5.338  13.443 -0.3121 -0.2012 -0.2856
28519W        W47373   8.111  16.944  11.556  0.0965  0.0989  0.0816
28520W        W47374  16.147   9.218  12.389  0.1730 -0.0421 -0.3157
28521W        W47375   1.681  11.896   3.933  0.1303  0.1197  0.1139
28522W        W47376   6.023   1.670  11.643  0.0835  0.0065  0.1916
28523W        W47377   3.128  17.842  12.475 -0.0148  0.2238 -0.0266
28524W        W47378   1.607   0.777   0.979  0.1410  0.2603 -0.2645
28525W        W47379  16.375   1.175   5.580 -0.2254 -0.0420 -0.0334
28526W        W47380   4.880   2.873  12.159  0.1340 -0.2855 -0.3381
28527W        W47381  15.970   9.223   1.333  0.0349 -0.0605  0.1710
28528W        W47382  17.736   6.984  12.105  0.1071  0.1191 -0.0174
28529W        W47383  11.082   0.913  13.330 -0.0475 -0.1152 -0.0813
28530W        W47384  13.378  16.100  13.520  0.0853  0.5788 -0.3854
28531W        W47385   4.446   7.094  13.894  0.1889 -0.0445 -0.1144
28532W        W47386  10.469   4.386   1.031  0.1970  0.2073  0.0128
28533W        W47387   4.948  15.216  11.025  0.3480 -0.1845  0.0413
28534W        W47388  13.551   2.161   5.035 -0.0081 -0.1253 -0.2773
28535W        W47389   1.919   4.001  10.983 -0.2398 -0.0203 -0.0437
28536W        W47390  18.162   5.903   2.143 -0.2782 -0.3495 -0.2908
28537W        W47391   6.762  17.842  11.436  0.0355  0.1197 -0.0233
28538W        W47392  11.209  18.943  11.658  0.2726 -0.0021 -0.0971
28539W        W47393   5.077   8.863  14.667 -0.0821 -0.1228 -0.1247
28540W        W47394  10.592   4.704  14.692 -0.1265 -0.0464  0.0823
28541W        W47395   6.949   1.588  11.092 -0.0279  0.1107 -0.1434
28542W        W47396  18.461   4.148   1.415 -0.2445  0.2655  0.0732
28543W        W47397  10.209   6.978   2.545 -0.0789  0.0617 -0.0191
28544W        W47398   2.949   0.152   2.284 -0.2962 -0.1960  0.0495
28545W        W47399  16.837  11.321   0.204 -0.0818  0.0325  0.2595
28546W        W47400   9.833   0.664   1.629 -0.0212 -0.2656 -0.0372
28547W        W47401  13.106   4.162  12.863 -0.3528 -0.2501  0.0817
28548W        W47402  18.411  12.130  14.276 -0.0379 -0.2247 -0.0110
28549W        W47403   7.289  16.452  13.348  0.0667  0.3003  0.0913
28550W        W47404  11.591   0.403   1.349 -0.0004 -0.3848  0.1278
28551W        W47405   1.292   6.382  14.336  0.0085 -0.1445  0.2190
28552W        W47406  15.821   2.669   3.353  0.0336 -0.3690 -0.1191
28553W        W47407   6.212  18.524  11.755  0.1206 -0.2151  0.0897
28554W        W47408   1.396   3.115   1.974  0.1002 -0.2338 -0.0421
28555W        W47409   4.771   8.136   3.601  0.2079  0.2542  0.0964
28556W        W47410  19.154  15.537  12.761  0.1853 -0.0399  0.2796
28557W        W47411   3.770  16.449  10.488 -0.2999  0.2880  0.3546
28558W        W47412   4.392   1.088  14.519 -0.0393  0.2449  0.0092
28559W        W47413  15.897  18.155   4.543 -0.0552 -0.1562  0.2066
28560W        W47414   5.775  15.235   0.996  0.1504  0.1731 -0.0598
28561W        W47415  12.572   9.059   4.181  0.1038 -0.0387  0.1655
28562W        W47416  10.063  12.766   0.551  0.0023  0.0489 -0.4948
28563W        W47417  18.578   4.617   1.094 -0.0258 -0.0824 -0.1573
28564W        W47418   4.920   5.162   1.725  0.0752 -0.1177  0.2423
28565W        W47419  11.810   2.391   2.586 -0.0930  0.0621 -0.1669
28566W        W47420  15.898   6.637  11.710  0.1703  0.0218 -0.1158
28567W        W47421   4.417   0.345  11.535  0.0376  0.3049  0.0407
28568W        W47422  13.124   6.857  11.379 -0.1323  0.1735 -0.1221
28569W        W47423  17.649   6.295  13.864 -0.0035  0.1591  0.0547
28570W        W47424  18.936   5.604  14.461 -0.1598  0.3499 -0.2524
28571W        W47425  16.376   7.919   3.598 -0.0188  0.2283 -0.1143
28572W        W47426   6.478  11.768  10.826 -0.0100  0.0752 -0.0370
28573W        W47427  10.215  17.322   1.842 -0.1557 -0.0483  0.0588
28574W        W47428  10.847  14.532   0.484  0.1999  0.0634 -0.2446
28575W        W47429   4.452  10.483  13.397 -0.1482  0.1327 -0.3434
28576W        W47430   8.743   2.857  12.972  0.1672 -0.3393  0.1799
28577W        W47431  13.317   1.161   0.786 -0.0433  0.0095  0.0968
28578W        W47432  19.019   1.057   3.084 -0.2536  0.2184  0.2224
28579W        W47433   0.098  16.322   2.718 -0.3249 -0.3196  0.2379
28580W        W47434  16.452   8.467   3.669  0.0657  0.1823  0.0018
28581W        W47435   9.410   5.951   3.728 -0.2675 -0.0738  0.0391
28582W        W47436   4.956  13.319   3.668 -0.1364 -0.0800  0.1855
28583W        W47437  13.203   9.704   3.791 -0.1541 -0.0699 -0.0658
28584W        W47438   9.364  16.108   2.537 -0.3708 -0.2963  0.0497
28585W        W47439   0.562  12.827   2.654  0.1366 -0.2422 -0.1832
28586W        W47440   4.309   3.454   0.609 -0.3551  0.2393 -0.0305
28587W        W47441   5.347   3.477   9.924  0.0884 -0.1208 -0.0237
28588W        W47442  13.057   8.912   9.614  0.2433  0.3083 -0.1627
28589W        W47443   6.573   2.850  12.726 -0.0695  0.3829  0.1201
28590W        W47444  15.158   7.925   4.222 -0.1487  0.0765  0.1479
28591W        W47445   5.503  12.835   0.109 -0.1324  0.3526 -0.0674
28592W        W47446   3.597  14.923  11.395  0.1442 -0.2327  0.3584
28593W        W47447   6.370  15.660   3.823  0.0144  0.0446  0.1258
28594W        W47448  17.953  10.811  14.162 -0.0604 -0.3572 -0.0873
28595W        W47449  12.848  15.923  11.668  0.1487 -0.1930 -0.1590
28596W        W47450   8.078   1.668   2.769 -0.2961 -0.0926 -0.3712
28597W        W47451   8.477   0.687  10.432 -0.3717 -0.2840  0.3380
28598W        W47452   7.655   0.784  12.718 -0.0685  0.2223 -0.3724
28599W        W47453  11.905  13.507   3.794 -0.2798 -0.2743  0.0840
28600W        W47454   0.678  14.258  12.138 -0.1569  0.1431  0.3639
28601W        W47455   6.620   6.249   0.897 -0.4253  0.0007 -0.0264
28602W        W47456  15.665  11.503  14.109  0.0796  0.3294 -0.1886
28603W        W47457   8.864  14.993  13.985  0.0253 -0.0265 -0.2295
28604W        W47458   0.748   3.836   2.031  0.2144 -0.0325  0.1146
28605W        W47459   4.300   9.193   0.315  0.3843 -0.0844 -0.0944
28606W        W47460  18.343  15.507  14.282 -0.2469  0.2990 -0.4789
28607W        W47461   6.356   3.173   0.083 -0.0016 -0.2225 -0.0036
28608W        W47462   0.798   1.642  13.097  0.3302 -0.2069  0.0286
28609W        W47463  17.640   9.492  10.999  0.0539 -0.0101 -0.1539
28610W        W47464  15.350   3.665   1.873  0.2391  0.3819  0.3394
28611W        W47465  13.480  16.590   2.454  0.1119 -0.0112 -0.3862
28612W        W47466   5.695  15.213  13.894 -0.2402 -0.2072 -0.0853
28613W        W47467   7.369  14.355   0.002 -0.1714  0.0027 -0.1079
28614W        W47468  16.820   7.641  12.953 -0.3111  0.2213 -0.1217
28615W        W47469   8.348  11.701  13.141 -0.1891 -0.1795  0.1510
28616W        W47470   4.022   9.534   0.578  0.3250 -0.0894  0.2993
28617W        W47471  18.326  13.967  13.328 -0.2462  0.2425 -0.0439
28618W        W47472   0.822   0.225   1.102  0.0274  0.2925 -0.0018
28619W        W47473  12.945   0.551  14.534  0.0536  0.0197 -0.1892
28620W        W47474   3.697  12.899   4.023 -0.0149  0.0242 -0.0802
28621W        W47475  15.244  15.688   2.366 -0.1617 -0.2705  0.0313
28622W        W47476   5.049   9.075   0.757 -0.3708  0.2308  0.0616
28623W        W47477   3.116   8.040  12.815 -0.1816  0.1140  0.0667
28624W        W47478   0.501   7.890   0.353 -0.1302 -0.1544  0.0005
28625W        W47479  14.825  12.236  11.127 -0.2145 -0.1486  0.2286
28626W        W47480   8.119  10.282   4.387 -0.0453 -0.1601  0.0189
28627W        W47481  13.846  11.879   2.739 -0.0000 -0.0043 -0.0127
28628W        W47482   8.895  15.712  13.091 -0.1690 -0.1104  0.0765
28629W        W47483  18.361  13.892   0.210  0.1134  0.1778 -0.0535
28630W        W47484   9.528  15.041   1.677 -0.0970 -0.1417  0.0336
28631W        W47485   2.550   8.497   2.280  0.1535  0.2126  0.0312
28632W        W47486   9.037  17.424   0.407 -0.3380 -0.0525 -0.2187
28633W        W47487   8.798  16.657   3.167 -0.2202  0.1943 -0.1665
28634W        W47488   7.304   8.090   2.162  0.1638 -0.0013 -0.2898
28635W        W47489  15.783  19.131   3.605 -0.0667 -0.4805  0.2024
28636W        W47490  13.787  15.876   3.941 -0.0535  0.0433  0.1262
28637W        W47491  12.985  14.588   1.292 -0.2065 -0.0383 -0.0241
28638W        W47492   2.009  16.948  13.512 -0.1516 -0.0431  0.2487
28639W        W47493   2.085   5.186  11.335  0.0210  0.1273  0.1782
28640W        W47494   4.459  17.621   4.672  0.0463 -0.1079 -0.0931
28641W        W47495   2.932  18.890  13.755  0.0683 -0.2147  0.1965
28642W        W47496   4.627  17.735   0.128  0.1214  0.3444  0.1743
28643W        W47497  15.400   0.015   4.023 -0.1185  0.0191 -0.2128
28644W        W47498   0.290   7.501   3.923  0.0449  0.0841 -0.0345
28645W        W47499  10.670   1.607   1.433 -0.3769  0.1007  0.2007
28646W        W47500  13.542   2.481  12.727 -0.0392 -0.0100  0.0242
28647W        W47501   7.116  11.194  13.273  0.1718 -0.2976 -0.2200
28648W        W47502   0.699   0.144  13.320 -0.2850 -0.0052  0.3340
28649W        W47503  17.958  18.544   0.440  0.0326 -0.0414 -0.1233
28650W        W47504   6.095   9.310   3.811  0.1562  0.2228 -0.1374
28651W        W47505  10.777  10.066   3.543 -0.1248  0.0003  0.0586
28652W        W47506   7.296   7.362   1.160  0.0752  0.1239 -0.3243
28653W        W47507  18.405   0.600   0.175  0.1227 -0.3580  0.1454
28654W        W47508  19.122   5.731  13.645  0.1088  0.1419 -0.1515
28655W        W47509  18.419  13.343  14.231 -0.1766 -0.1151 -0.1046
28656W        W47510  11.579   3.523  14.289  0.3293  0.1009 -0.3301
28657W        W47511   7.816   6.763  10.483  0.2845 -0.2692 -0.1223
28658W        W47512  13.747   2.905  12.388 -0.1294  0.0389  0.2934
28659W        W47513   5.410  11.711  11.483 -0.0828 -0.0482  0.1797
28660W        W47514   9.099  13.185   3.025 -0.0441  0.1945 -0.1425
28661W        W47515  10.337   9.392   9.661 -0.0152 -0.1174 -0.1515
28662W        W47516   0.306   4.864  13.740 -0.0530  0.3061 -0.1966
28663W        W47517   6.561  17.613  13.803  0.1498 -0.1331 -0.1643
28664W        W47518  14.018   1.672   0.824  0.0655 -0.3270 -0.0838
28665W        W47519   9.575   5.064  10.322 -0.0184  0.2401 -0.0633
28666W        W47520  11.390   0.432  13.479  0.0676 -0.0577 -0.2337
28667W        W47521   7.477   6.699  14.738 -0.0343 -0.2022  0.1621
28668W        W47522   3.167  10.886  11.743  0.0342  0.1761  0.2692
28669W        W47523  17.249  10.178   4.203  0.1093  0.2057  0.2532
28670W        W47524  12.028   8.236  12.664 -0.0460  0.1896  0.3230
28671W        W47525  16.996  12.734  12.383 -0.0126  0.0008 -0.1381
28672W        W47526  15.814  17.992  14.216 -0.1208  0.0211 -0.0634
28673W        W47527  13.616  13.964   3.309  0.0314 -0.1000  0.0090
28674W        W47528   9.911  12.101  14.368 -0.0970 -0.2784  0.0026
28675W        W47529  10.478   0.375   1.284 -0.2190  0.3956 -0.2102
28676W        W47530  12.790  11.375  12.934  0.0484 -0.0662 -0.0050
28677W        W47531   7.355  16.486  11.649 -0.1019 -0.1403 -0.3207
28678W        W47532  14.471  13.203   4.618  0.4720 -0.1018 -0.3197
28679W        W47533   8.784   2.837  11.387 -0.1138  0.1507  0.4080
28680W        W47534   0.368  14.141  12.529  0.2744  0.0958  0.1224
28681W        W47535  13.685   5.992  13.101 -0.3800 -0.0879 -0.2178
28682W        W47536   8.479  17.415  10.606  0.1799 -0.1094 -0.1474
28683W        W47537   0.987  15.744   3.608  0.1171  0.2078  0.2349
28684W        W47538  18.368  14.090   0.666  0.0822 -0.1180  0.4303
28685W        W47539   7.942  18.801  11.053 -0.1726 -0.0582  0.2060
28686W        W47540   7.890   6.270   0.541  0.1091 -0.2476 -0.2174
28687W        W47541  16.365   8.467  13.194 -0.0267 -0.1248  0.2808
28688W        W47542  13.636   4.122  10.807  0.2522  0.1571  0.0746
28689W        W47543   9.089  10.778  13.724 -0.0169 -0.1964  0.1438
28690W        W47544  12.314   9.192   0.457 -0.1777  0.1856  0.1159
28691W        W47545  13.398  14.606  12.481 -0.2668 -0.1054 -0.4211
28692W        W47546   8.021  14.492  13.476  0.0168 -0.2489 -0.2482
28693W        W47547  16.637   4.633   3.110  0.3469  0.1203  0.1136
28694W        W47548   3.920  12.377   4.989 -0.2369  0.1784  0.1308
28695W        W47549   8.957  10.443  13.114 -0.2320 -0.0886 -0.3190
28696W        W47550  14.952   2.418   2.304  0.1297 -0.0898  0.1342
28697W        W47551  15.993   1.442   0.651  0.1061  0.1923 -0.0305
28698W        W47552   8.503   1.069   3.633 -0.0722 -0.0765 -0.5076
28699W        W47553  12.527  15.467   1.420 -0.2720 -0.0652 -0.0549
28700W        W47554  11.143  16.397   1.823 -0.2817 -0.0490  0.2253
28701W        W47555  14.628   5.679  10.362 -0.1830 -0.1117  0.1893
28702W        W47556  15.350   4.468   1.369  0.3008 -0.0928  0.0043
28703W        W47557   6.360  11.782   2.580  0.1738 -0.3467  0.2645
28704W        W47558   2.724  17.424   3.695  0.5524 -0.0848  0.0529
28705W        W47559  15.170  15.336  14.339  0.0164 -0.0235 -0.2257
28706W        W47560  17.374   1.498   1.960  0.1172  0.2921 -0.2289
28707W        W47561  10.319  16.410   3.217 -0.2168 -0.0903 -0.0062
28708W        W47562   0.601   6.274   4.686 -0.2044 -0.1891 -0.0609
28709W        W47563   9.643   3.238  13.656 -0.0700 -0.1579 -0.0129
28710W        W47564   5.272  17.260  13.631  0.1373 -0.1985 -0.2247
28711W        W47565  10.199   3.831  11.026  0.2606 -0.1616  0.1171
28712W        W47566   9.010  12.285  12.769  0.0573 -0.0948 -0.3303
28713W        W47567  15.686   8.951  12.226  0.1379  0.0860  0.0575
28714W        W47568   7.502  17.424   4.251  0.1212  0.0136 -0.2259
28715W        W47569   8.076  10.817   0.307  0.0822 -0.3567  0.2405
28716W        W47570   0.387  18.472  14.273  0.2673  0.0927  0.0833
28717W        W47571   0.209  17.142  12.178  0.1356 -0.1298 -0.1844
28718W        W47572  13.206   0.850   3.960 -0.1034 -0.1759 -0.1724
28719W        W47573  17.764  10.462   1.870 -0.1820 -0.4972  0.0518
28720W        W47574   8.152  14.872  14.552  0.2250  0.0045  0.0443
28721W        W47575   6.699   6.795  12.566 -0.1765  0.1589  0.2826
28722W        W47576   7.778  10.516  13.502 -0.0745  0.1361 -0.0615
28723W        W47577  13.690  16.486  11.800  0.0453  0.0201  0.2338
28724W        W47578  17.032   2.668  11.612 -0.2640 -0.2177  0.2706
28725W        W47579   2.645   1.934   3.488 -0.0098 -0.3263 -0.2805
28726W        W47580  19.001   9.318  10.577  0.1453  0.2296 -0.0031
28727W        W47581  18.978   9.755  13.776 -0.2715 -0.0128 -0.0487
28728W        W47582   3.109   9.114   2.324  0.1706  0.2919 -0.1516
28729W        W47583   3.080   2.222  14.227  0.0987 -0.3579 -0.3764
28730W        W47584  18.337   0.718   3.675 -0.0244  0.3449 -0.0864
28731W        W47585   5.459  18.608  14.234 -0.2479 -0.0884 -0.0126
28732W        W47586   5.497   9.521   1.080 -0.4756 -0.1836  0.0035
28733W        W47587   5.782  12.744  12.583  0.1208  0.2127 -0.0160
28734W        W47588   8.529   3.311   1.720  0.2173 -0.0217  0.1629
28735W        W47589   4.975   7.467  12.904 -0.3395  0.2310  0.0778
28736W        W47590  15.700   6.843   3.413 -0.0875 -0.2537 -0.0073
28737W        W47591   7.823  11.802   0.033  0.1339  0.0819 -0.0524
28738W        W47592   4.540   2.961   2.721  0.2145 -0.2330 -0.2821
28739W        W47593  12.407  16.641  12.893  0.2298  0.0323 -0.2584
28740W        W47594  10.616   7.248   3.541  0.0313  0.0161 -0.4988
28741W        W47595   1.053   5.930  13.953  0.1115  0.1854  0.2902
28742W        W47596   5.926   2.211  11.682 -0.0980 -0.2366 -0.3440
28743W        W47597   6.948  16.186  13.030 -0.3406  0.1439  0.2876
28744W        W47598  17.588  14.951   2.915 -0.0516 -0.2373  0.1431
28745W        W47599   6.532  12.041   3.038  0.1175 -0.0346  0.2236
28746W        W47600   3.745   8.840   3.901  0.2562 -0.0646 -0.3198
28747W        W47601   7.492   0.099   3.100  0.3915 -0.5297 -0.3618
28748W        W47602   5.457   2.267   0.425  0.1550 -0.0371 -0.0944
28749W        W47603  11.959   9.281  13.900 -0.0498 -0.0844 -0.0202
28750W        W47604   1.208  14.831   1.098 -0.2346  0.0601  0.1545
28751W        W47605   7.576  16.834  12.049  0.0667  0.1388  0.0591
28752W        W47606  13.932   0.969   4.293 -0.0815  0.2924 -0.0683
28753W        W47607  17.920   2.386   4.181  0.3193  0.2305  0.1317
28754W        W47608  15.228  14.063  14.414 -0.3118 -0.0064  0.1303
28755W        W47609   7.941   2.122  13.817 -0.0945 -0.2130 -0.0650
28756W        W47610   4.086  12.350  11.187  0.2527 -0.0150  0.0260
28757W        W47611  15.805   2.504   1.934  0.0877  0.1981  0.0923
28758W        W47612   2.565   9.620  11.355  0.1384  0.1026 -0.0440
28759W        W47613  12.008   0.367  12.783 -0.1094  0.0009 -0.2460
28760W        W47614   0.055  14.573   0.761  0.0525 -0.1786  0.0253
28761W        W47615   8.175  14.898   1.995 -0.0263 -0.2468 -0.2711
28762W        W47616  18.140  13.075   2.041 -0.0611  0.2119  0.3185
28763W        W47617  12.467   4.570  11.011 -0.1774  0.1295 -0.0573
28764W        W47618   0.862   9.497   2.736  0.0552  0.2897  0.1360
28765W        W47619  11.331   9.272   1.404  0.0443  0.0904  0.0878
28766W        W47620   5.137  15.456   2.002  0.0622  0.0591 -0.0226
28767W        W47621   4.985   7.800   2.244  0.0786 -0.4628 -0.0645
28768W        W47622   3.566   7.991  11.764  0.0138  0.1598  0.2718
28769W        W47623   6.312   3.471   3.682  0.0624 -0.1108  0.1620
28770W        W47624  15.904   3.477   3.629  0.0826 -0.2704  0.2476
28771W        W47625  16.802  18.515  13.472 -0.1013 -0.1195  0.1169
28772W        W47626  12.222   4.331   1.043  0.0850 -0.0401  0.0821
28773W        W47627   0.212  17.673  13.772  0.1061  0.3304 -0.0478
28774W        W47628   2.715   5.294   1.987 -0.3528  0.1316  0.1037
28775W        W47629   6.698   7.390  13.420 -0.0058 -0.1700 -0.1288
28776W        W47630  17.869   9.106  11.705 -0.1824 -0.2531 -0.0526
28777W        W47631  15.956   7.605   0.724 -0.2559 -0.3569  0.0016
28778W        W47632   0.006   7.190   0.776  0.0324  0.0025  0.1127
28779W        W47633  17.885   1.835  10.933 -0.1705  0.1764  0.1706
28780W        W47634   8.750   4.319  13.312 -0.4504 -0.0685 -0.0598
28781W        W47635  16.120   1.188   2.162  0.0303  0.1265 -0.0647
28782W        W47636  17.749  10.146  14.526 -0.1121  0.0013  0.0551
28783W        W47637   9.605  11.203   1.674 -0.1241  0.0076  0.1354
28784W        W47638   9.325   2.903   1.258  0.0645 -0.2646  0.1415
28785W        W47639   6.578   7.786  11.437 -0.1272  0.0198  0.0345
28786W        W47640   0.283  17.051  13.879  0.2478  0.0129 -0.2810
28787W        W47641  15.349   0.466   0.765 -0.0681 -0.0627 -0.0282
28788W        W47642   8.308  14.528   2.618 -0.1876 -0.1334 -0.1203
28789W        W47643  16.391  14.577   5.152 -0.0959  0.1551 -0.2040
28790W        W47644   7.689   0.885  14.433  0.0444  0.4048  0.2114
28791W        W47645   3.019  11.283   2.233 -0.0149  0.1254 -0.1135
28792W        W47646  15.191  15.819  13.089  0.0053  0.0234 -0.2014
28793W        W47647   3.229   4.005   0.545 -0.0665 -0.1446  0.0049
28794W        W47648  18.287  18.742   0.007  0.0901 -0.1750 -0.2469
28795W        W47649  18.718   2.103  12.090  0.2055 -0.0160 -0.0219
28796W        W47650  16.674   4.844   0.261  0.1375 -0.2003 -0.1002
28797W        W47651   5.349   8.122   1.288  0.3501  0.3104 -0.1491
28798W        W47652   7.412  11.618   0.344 -0.1749  0.3447 -0.0256
28799W        W47653  10.493   3.446   0.606 -0.4444  0.0501  0.0541
28800W        W47654  10.537  10.001   3.960  0.0891 -0.0553 -0.3582
28801W        W47655  10.175   7.018   1.632 -0.0351  0.1339 -0.0136
28802W        W47656   0.214   1.463   3.229 -0.2771  0.1974  0.1194
28803W        W47657  13.487  17.121   0.528  0.5031 -0.1532  0.4714
28804W        W47658  18.046   1.180   3.141 -0.0603  0.1626 -0.0702
28805W        W47659   4.093  17.853   2.864  0.0798 -0.0115 -0.2692
28806W        W47660   5.753   8.367  10.761 -0.6902 -0.1889 -0.0837
28807W        W47661  10.406   2.384  11.160 -0.1042 -0.0232  0.0439
28808W        W47662   8.876  13.152  12.196 -0.0581 -0.2878  0.0149
28809W        W47663   9.437  13.344   1.743  0.1717  0.0652 -0.1773
28810W        W47664  17.690   0.528  14.330 -0.3776 -0.3136 -0.0453
28811W        W47665  12.273   4.226  13.370 -0.0904  0.0091 -0.4016
28812W        W47666   2.633   7.484   2.197 -0.0019 -0.1508 -0.0504
28813W        W47667   6.332   2.272  11.947  0.0884  0.2292 -0.2866
28814W        W47668  15.678  12.995   1.519  0.1210  0.1199  0.1751
28815W        W47669   0.945   9.683   3.722  0.2030 -0.1112 -0.0431
28816W        W47670   3.479  17.776   1.991  0.2462  0.0755  0.1649
28817W        W47671  11.252   6.796   0.186  0.1400  0.1674  0.2512
28818W        W47672  18.967  13.535  14.583 -0.1154 -0.0804 -0.2200
28819W        W47673   0.992  16.111   0.783 -0.1001  0.3009 -0.2075
28820W        W47674  13.387   0.841  10.850  0.3693 -0.1263 -0.0601
28821W        W47675  13.029   4.230   1.022 -0.1517  0.0094  0.3390
28822W        W47676  15.852  15.227  13.858  0.1613 -0.1869 -0.3590
28823W        W47677   7.433  13.467   9.448 -0.0779 -0.1937 -0.0037
28824W        W47678  11.818  16.786   3.383 -0.2417 -0.0114  0.0899
28825W        W47679  10.258   7.831   2.094 -0.1256  0.2737 -0.1691
28826W        W47680   4.304   5.161  12.048  0.0920  0.0987 -0.1766
28827W        W47681  11.948  17.108  12.320  0.2058  0.0246 -0.2715
28828W        W47682   3.804  13.350   2.887 -0.1284  0.0362 -0.4324
28829W        W47683   2.976   3.663   3.224  0.0159 -0.3254 -0.2096
28830W        W47684   3.883   9.598  12.645 -0.2702 -0.1177  0.3542
28831W        W47685  15.493  18.989  11.003  0.1212 -0.2433 -0.3358
28832W        W47686   1.516   2.893  14.235  0.2315 -0.0610  0.1978
28833W        W47687  18.058   9.776  13.678 -0.0612 -0.0871  0.0605
28834W        W47688  17.574  16.563  14.312  0.1380  0.1191 -0.2607
28835W        W47689  11.946  15.085  14.164 -0.0976 -0.2571 -0.3194
28836W        W47690  13.286   3.762   0.875  0.1460  0.1040 -0.1365
28837W        W47691   3.400   2.253  11.475  0.4169 -0.0183 -0.0001
28838W        W47692  15.083  10.718   1.893 -0.1058 -0.0971  0.1176
28839W        W47693  10.546   9.626   2.772  0.0363  0.2031  0.1988
28840W        W47694  14.410   9.098   2.245  0.3378  0.1156 -0.0447
28841W        W47695  18.733   1.666  14.129  0.2582 -0.1576  0.2903
28842W        W47696   3.088  17.404   2.941  0.0969 -0.0949 -0.3031
28843W        W47697   1.315   9.858   3.389  0.2385 -0.1523  0.4684
28844W        W47698   5.752   0.049   3.409 -0.0523  0.0577 -0.0783
28845W        W47699   2.192  15.794   2.414  0.0260  0.1400  0.0232
28846W        W47700  14.233   9.955   0.714  0.0817  0.0311 -0.2828
28847W        W47701  11.721   2.600   1.547  0.1599 -0.0814 -0.0750
28848W        W47702  17.644  11.661  10.811  0.2116  0.4310 -0.2208
28849W        W47703   3.498  13.088  10.833  0.0828  0.1483  0.0114
28850W        W47704   9.046   0.078   1.430  0.0535 -0.1327  0.0730
28851W        W47705   5.648  18.456  11.902  0.0120 -0.0651  0.2153
28852W        W47706  10.213   4.745   1.955 -0.1863  0.0235  0.0972
28853W        W47707  14.881   9.233  11.087 -0.1209 -0.1012  0.1261
28854W        W47708  12.525   3.716  11.679  0.0584 -0.0100 -0.0917
28855W        W47709  14.965   1.475  12.736 -0.0656  0.0217 -0.2316
28856W        W47710  12.246  13.667   3.270 -0.0215  0.0982  0.1284
28857W        W47711   7.086   6.070  10.908  0.1819  0.0424  0.0555
28858W        W47712   2.786  18.383  13.122 -0.0221 -0.2767  0.1259
28859W        W47713  13.383   6.706   0.943 -0.0863 -0.0053 -0.3358
28860W        W47714  12.382  11.245  12.668  0.2148  0.1072 -0.0037
28861W        W47715   1.806   4.632  14.145  0.1389  0.3858 -0.0782
28862W        W47716   1.160   0.121   3.514 -0.1839  0.1864  0.1968
28863W        W47717   0.891  16.648  14.628 -0.2593 -0.0294 -0.1011
28864W        W47718  16.655   9.123   3.308 -0.0377 -0.1275  0.0678
28865W        W47719   9.657   5.052   4.097  0.0119 -0.0254  0.0141
28866W        W47720  12.609   0.003   3.350 -0.2096 -0.3229 -0.0731
28867W        W47721   4.175  17.199  12.909  0.2390 -0.1406 -0.0359
28868W        W47722   5.116  12.831  10.684  0.0330 -0.0260 -0.2970
28869W        W47723   5.401   8.714  11.623 -0.0978  0.4011  0.1152
28870W        W47724   6.143   0.229   3.138 -0.2329 -0.1022  0.2740
28871W        W47725   0.021   1.850   2.970 -0.1983  0.3437  0.0519
28872W        W47726   2.188  16.644  13.113  0.1416  0.0432  0.1596
28873W        W47727   6.800  13.087   3.356  0.1053  0.1252  0.1121
28874W        W47728   3.560   8.989   1.441 -0.2928 -0.0092 -0.2018
28875W        W47729   2.950   8.381   1.901 -0.0344  0.0050  0.0194
28876W        W47730  10.134   4.456  12.187  0.0805  0.0285  0.0760
28877W        W47731  17.541   9.332   4.348  0.0190  0.2073  0.3409
28878W        W47732  15.451  11.276  13.501 -0.0618  0.1524 -0.0796
28879W        W47733   5.133   8.119   1.784 -0.1411  0.2850  0.2053
28880W        W47734   0.799   0.456  11.358 -0.1090  0.1080  0.0759
28881W        W47735  11.132  18.393   0.624  0.1791  0.3312 -0.4509
28882W        W47736   9.878  19.075   0.910 -0.2227  0.0112 -0.2353
28883W        W47737   4.685  14.630   0.280 -0.1278  0.0828 -0.1384
28884W        W47738  16.828  11.425   4.565 -0.0740  0.1034  0.4190
28885W        W47739  16.739  11.886   1.485 -0.0290  0.1628 -0.0726
28886W        W47740   1.922  12.282  13.859  0.1729 -0.1964 -0.1715
28887W        W47741   2.274  13.154  11.571 -0.1102 -0.1290 -0.2673
28888W        W47742  17.762   9.115   0.796  0.1335  0.1397  0.0721
28889W        W47743   7.372   9.696   1.526 -0.0876  0.0446  0.0045
28890W        W47744   9.218  16.613   9.859 -0.2197  0.2188  0.0041
28891W        W47745   5.802   9.529   2.375 -0.0227  0.2785  0.3129
28892W        W47746   6.262   5.348   1.924 -0.1669  0.0900  0.0130
28893W        W47747   8.538  12.220   2.229  0.2633  0.1272 -0.0512
28894W        W47748   6.855   8.046   3.969 -0.1075 -0.1783  0.1338
28895W        W47749  16.275   7.985  14.112 -0.0047  0.1060 -0.0961
28896W        W47750   5.245   9.364   3.930  0.3171  0.2403 -0.3089
28897W        W47751   4.339   4.337   5.012  0.1661 -0.1227 -0.0240
28898W        W47752   5.503   4.771  12.327 -0.0592 -0.1788  0.0497
28899W        W47753   4.308   2.682  11.415  0.1546  0.0164 -0.0613
28900W        W47754   7.115   9.877   0.250 -0.1018 -0.4077 -0.4187
28901W        W47755  16.073   1.221   2.626 -0.2382 -0.3019  0.0538
28902W        W47756   3.605   0.987  13.987 -0.0727 -0.0727 -0.1577
28903W        W47757   3.507  17.556  11.843  0.2352 -0.0397  0.3062
28904W        W47758  15.109   1.468   2.092  0.3291  0.2460 -0.0062
28905W        W47759  11.547  11.681   1.454  0.0034 -0.1898  0.0133
28906W        W47760  10.488   7.800  12.425 -0.1287 -0.1726  0.0753
28907W        W47761   1.813  16.405   2.906 -0.2185  0.0620 -0.1241
28908W        W47762  11.430   6.739  10.715  0.0243  0.1290  0.0210
28909W        W47763  10.100  16.132   0.924  0.3403  0.3989 -0.1611
28910W        W47764   1.900  17.557   4.050 -0.3102  0.0486 -0.0816
28911W        W47765  16.491  17.335   3.159  0.0538  0.0158  0.1521
28912W        W47766  17.047   1.371  12.618  0.1350  0.3536 -0.0133
28913W        W47767   9.334  13.381   2.588  0.1970 -0.0562 -0.1064
28914W        W47768   7.657  18.849  12.713 -0.1857 -0.2336 -0.0650
28915W        W47769  15.305   8.588  14.765  0.0428 -0.0667  0.0906
28916W        W47770  15.376   8.115   0.103  0.0380 -0.1560 -0.3787
28917W        W47771   4.934  16.009  11.649  0.0514  0.0202  0.1351
28918W        W47772   6.390  10.338   0.555 -0.3042 -0.0609  0.1274
28919W        W47773   6.316  12.940   1.978  0.1067 -0.0308 -0.2292
28920W        W47774  14.495   4.176   0.158 -0.3153 -0.0052 -0.1925
28921W        W47775  14.596  11.835  11.480 -0.4046 -0.0271 -0.1571
28922W        W47776  18.617   9.812   1.561  0.0487  0.0670 -0.2593
28923W        W47777   1.754  19.083  11.290 -0.1532 -0.1104 -0.1753
28924W        W47778   5.243  13.590  12.615 -0.3433 -0.1003 -0.0926
28925W        W47779  11.267   0.308  10.951 -0.0015  0.5630  0.0924
28926W        W47780  10.671  11.318  13.609 -0.0685 -0.1468  0.3197
28927W        W47781   6.464   6.425   2.563  0.1423 -0.1779  0.3767
28928W        W47782  10.737  19.068   1.163  0.0541 -0.1609 -0.1399
28929W        W47783  14.857   5.148   0.065 -0.1726  0.1674 -0.8461
28930W        W47784  11.213   8.910   2.712  0.2316 -0.1534  0.1701
28931W        W47785   3.159  18.940   2.574 -0.0757  0.0994 -0.1918
28932W        W47786  15.552  16.559  12.222  0.4337 -0.3687 -0.3501
28933W        W47787   0.427   6.036   1.286  0.0959 -0.1026 -0.0358
28934W        W47788  15.922   1.960   0.805 -0.1082  0.0394  0.3090
28935W        W47789   9.525  17.282  11.134  0.1373 -0.1779 -0.2775
28936W        W47790   1.666   5.084   1.207 -0.2270 -0.1727  0.1898
28937W        W47791  18.704  12.405  13.631 -0.5398  0.2699  0.1730
28938W        W47792  13.722  14.375  13.370 -0.0039  0.2449  0.0351
28939W        W47793   3.115  15.949  12.156  0.0859 -0.0129  0.1081
28940W        W47794   6.524  18.617   1.901  0.0594 -0.0306  0.0466
28941W        W47795  13.770  10.691  11.531 -0.3817 -0.0457  0.1644
28942W        W47796  12.370   3.886   4.138 -0.0005 -0.1183 -0.3822
28943W        W47797  11.558  10.171  10.975 -0.0545  0.0405  0.3356
28944W        W47798   8.631  14.222   1.423 -0.0478 -0.3095 -0.0104
28945W        W47799  18.549  13.995  12.021  0.1379  0.1125  0.2120
28946W        W47800   2.170   7.147   0.282  0.3397  0.1351 -0.0806
28947W        W47801   9.704   1.774  14.527  0.1272 -0.2587 -0.1179
28948W        W47802  18.671   7.071   4.355  0.0486  0.6297  0.1117
28949W        W47803  15.706  10.961   1.367 -0.1690 -0.4065  0.3886
28950W        W47804  10.525   4.122  12.122  0.0184  0.1138  0.0316
28951W        W47805   3.145  18.344   0.902 -0.0580 -0.0824  0.1414
28952W        W47806   7.755  14.233   1.242  0.1327 -0.0329  0.0009
28953W        W47807  16.400   9.683   3.762 -0.3243  0.1099 -0.1308
28954ION     NA47808   1.971  17.001   0.385 -0.2795  0.0806  0.1799
28955ION     NA47809   1.076   7.798   5.293  0.1145 -0.0479 -0.3062
28956ION     NA47810   2.277  17.862   2.105  0.1809 -0.0910 -0.2274
28957ION     NA47811   1.587   3.987  10.073 -0.0166  0.0238  0.3386
28958ION     NA47812  15.940   3.652  10.556 -0.1633  0.0049 -0.2574
28959ION     NA47813   9.082  10.397   2.609  0.0058 -0.0895 -0.1327
28960ION     NA47814  18.426   5.860   4.166 -0.1149  0.1334  0.1997
28961ION     NA47815  12.274  12.986   9.843 -0.1982 -0.1654  0.4631
28962ION     NA47816  14.234  15.220   4.848 -0.2574 -0.0226  0.0184
28963ION     NA47817  18.120   6.595   1.645 -0.1047 -0.0011 -0.0747
28964ION     NA47818  15.997   6.294  10.123 -0.4721 -0.0962 -0.2614
28965ION     NA47819  10.838   7.000   5.297  0.2354  0.1544 -0.0355
28966ION     NA47820   4.839  14.349   1.597  0.0993  0.2875 -0.1524
28967ION     NA47821  10.688  14.631  11.359  0.2927 -0.0164 -0.1501
28968ION     NA47822  11.420   4.948  12.161 -0.0399  0.0246  0.2521
28969ION     NA47823   1.310  16.954   5.065  0.3117 -0.4023  0.0504
28970ION     NA47824   1.985  12.427   5.040  0.2416 -0.1175  0.1245
28971ION     NA47825  11.847  13.836   9.590  0.0998 -0.1657 -0.2504
28972ION     NA47826  14.559   3.765   2.524  0.2073  0.0721  0.3361
28973ION     NA47827  15.705   2.473  12.841  0.1025 -0.1789  0.0279
28974ION     NA47828  10.118   1.820   4.886  0.0837  0.0057  0.3442
28975ION     NA47829  10.311  12.446  12.074  0.1197 -0.1958 -0.2078
28976ION     NA47830  15.150   9.280  13.039  0.1169 -0.0730  0.3301
28977ION     NA47831   3.695  11.840   9.934 -0.1931 -0.0212  0.1065
28978ION     NA47832   0.419   2.259   9.769  0.0953  0.0947 -0.0463
28979ION     NA47833   6.209   8.483   9.780  0.2811 -0.1208  0.0807
28980ION     NA47834  16.415   4.059   9.885  0.2773  0.3750  0.0128
28981ION     NA47835  16.147   4.787  10.058  0.4960  0.1750 -0.2538
28982ION     NA47836   0.641   4.153   2.980  0.0194  0.3925  0.1853
28983ION     NA47837   4.288   4.909  10.853  0.0994  0.1825 -0.0844
28984ION     NA47838   9.686  16.733   9.577  0.3597 -0.2487  0.2038
28985ION     NA47839  17.042   9.808  13.943 -0.0584 -0.6121  0.2873
28986ION     NA47840   8.232   7.918   0.261 -0.3041 -0.1222  0.1691
28987ION     NA47841  12.905  15.585   4.997  0.0668 -0.0594 -0.2656
28988ION     NA47842   4.868   0.407   9.672 -0.2226  0.1163 -0.1606
28989ION     NA47843  18.793  14.061   5.086  0.0002 -0.0761 -0.1620
28990ION     NA47844   8.758  13.670   9.451 -0.1270 -0.0386  0.0063
28991ION     NA47845   7.214   2.602   5.006  0.5201  0.3669  0.1983
28992ION     NA47846  12.754  18.804  12.989  0.0757  0.1498  0.0343
28993ION     NA47847  15.872   7.812   4.339 -0.1931  0.1330  0.1018
28994ION     NA47848   4.892  15.508   4.536  0.0384  0.0775  0.1027
28995ION     NA47849   3.105   4.496  10.046 -0.0533 -0.0613 -0.2927
28996ION     NA47850   5.532  18.797   4.802  0.1094  0.2656  0.1521
28997ION     NA47851  17.547  17.775  11.097 -0.0068  0.1688 -0.0204
28998ION     NA47852  17.307  10.786   9.996 -0.0421 -0.2704 -0.1011
28999ION     NA47853  14.478   9.082  12.495  0.1036  0.1332  0.0612
29000ION     NA47854   7.878   0.715   5.007  0.4387  0.0816  0.0130
29001ION     NA47855  17.991  14.020   4.235  0.0589 -0.1142 -0.0490
29002ION     NA47856  12.949   9.514  10.189 -0.1963  0.0255 -0.1820
29003ION     NA47857  10.472   7.558   1.730 -0.0546  0.1906  0.1273
29004ION     NA47858  17.988   2.377  10.007  0.3986  0.0167  0.0117
29005ION     NA47859   7.661   0.254   4.874  0.0299  0.0655  0.2802
29006ION     NA47860  12.744  13.736   9.896  0.1260  0.1003 -0.0882
29007ION     NA47861   8.292   4.194   0.678 -0.1065 -0.0875 -0.1862
29008ION     NA47862  13.375  14.013   4.745 -0.1200  0.0263  0.1336
29009ION     NA47863   9.880   3.973   5.018  0.1642 -0.1049 -0.2273
29010ION     NA47864  11.465  16.384   3.892  0.1148 -0.5229 -0.2193
29011ION     NA47865   2.635   6.856   5.094 -0.0532  0.0981 -0.1445
29012ION     NA47866  15.141   5.971   2.532 -0.0091 -0.0239 -0.2682
29013ION     NA47867  10.623   6.556   9.845  0.1583  0.1276  0.1919
29014ION     NA47868   3.793  18.393   9.863  0.0282  0.1778  0.2354
29015ION     NA47869   9.629   6.479   5.070 -0.1885  0.1506 -0.1436
29016ION     NA47870  16.757   2.563   9.699  0.0585 -0.1302  0.1635
29017ION     NA47871  16.287   1.512   5.176 -0.1669 -0.2436  0.2522
29018ION     NA47872  13.102  16.954   9.707  0.0308 -0.1316 -0.1567
29019ION     NA47873  18.583  14.047   2.945  0.1791  0.1904  0.0822
29020ION     NA47874  17.058   9.666   9.754 -0.3188 -0.1127 -0.1153
29021ION     NA47875  10.112  13.459  13.801 -0.2807  0.1832  0.0884
29022ION     NA47876   0.637  18.804   4.628 -0.2351 -0.0289  0.2065
29023ION     NA47877  11.152  10.843  11.519  0.1208 -0.0214 -0.1436
29024ION     NA47878  13.432   0.884   4.903  0.0114 -0.0998 -0.0546
29025ION     NA47879  14.965  14.166  10.095 -0.3225  0.1493  0.2092
29026ION     NA47880  10.707  16.346   5.145  0.0201 -0.0599  0.1624
29027ION     NA47881   6.472   6.885  10.014 -0.0418  0.1794  0.2791
29028ION     NA47882   4.807  17.000   9.961 -0.0421  0.1818  0.2860
29029ION     NA47883   9.511  16.486   4.723  0.2032 -0.1555 -0.0163
29030ION     NA47884  18.004  11.106   9.842  0.0726 -0.1036  0.0030
29031ION     NA47885   0.965  12.716  12.141  0.0937  0.1070 -0.4175
29032ION     NA47886  12.059  16.738  10.059  0.0118 -0.1552 -0.0796
29033ION     NA47887  14.368   3.098   9.873 -0.0919  0.1563  0.1864
29034ION     NA47888   5.790   3.370   9.665  0.2110  0.0658 -0.1308
29035ION     NA47889   0.611  18.262  10.174  0.1685 -0.0368 -0.1121
29036ION     NA47890  10.231  18.154   4.920  0.0147 -0.2384 -0.1045
29037ION     NA47891   8.264  16.457   5.030 -0.0003 -0.1774 -0.0299
29038ION     NA47892   0.360   0.735  10.189 -0.0198 -0.2237 -0.2869
29039ION     NA47893  11.860   4.599   4.356  0.1143 -0.3670 -0.1244
29040ION     NA47894   9.899   8.252   2.357 -0.1194 -0.1361 -0.0034
29041ION     NA47895  16.559  12.966   5.320  0.0789 -0.0463 -0.2330
29042ION     NA47896  17.292  17.177   4.434  0.1880 -0.0516  0.1703
29043ION     NA47897  17.703  15.729  10.148  0.2834  0.2645  0.1219
29044ION     NA47898  10.264   5.723   9.984 -0.0814  0.0292 -0.1009
29045ION     NA47899  12.785   0.757   9.637 -0.2673 -0.0543  0.0545
29046ION     NA47900   9.905  17.724   9.988  0.1001  0.1336  0.2785
29047ION     NA47901   6.758  16.585   9.681 -0.0934  0.2486  0.3101
29048ION     NA47902   6.768  17.570   9.947  0.0757  0.1476  0.2835
29049ION     NA47903   6.852   0.770   5.022  0.0920  0.1878  0.1706
29050ION     NA47904  15.957  16.360   2.740  0.1597  0.3158  0.1697
29051ION     NA47905   1.434  18.240   9.724 -0.2654  0.1300 -0.0744
29052ION     NA47906   9.373  17.659   5.300 -0.2605  0.2567  0.1220
29053ION     NA47907  10.798  10.023  10.474 -0.0323  0.0179  0.0615
29054ION     NA47908   2.574   2.411  14.127 -0.1259  0.0124 -0.1069
29055ION     NA47909   1.948  15.448   4.985  0.1402 -0.0332  0.1228
29056ION     NA47910   4.554  14.151   9.665 -0.2587  0.0952 -0.1095
29057ION     NA47911  16.909   8.707   2.626 -0.2980 -0.1959  0.0558
29058ION     NA47912  10.384   0.907   5.080 -0.1693  0.2789  0.0991
29059ION     NA47913   8.020  13.407   0.005 -0.0682  0.0872 -0.1739
29060ION     NA47914   4.913  10.098   5.364  0.0442  0.1272  0.3666
29061ION     NA47915   3.161  19.115   9.593  0.4043  0.3977  0.2963
29062ION     NA47916  10.083   5.798   4.820 -0.0037 -0.1458  0.1698
29063ION     NA47917   2.362  13.153   5.168  0.0673  0.1840  0.0789
29064ION     NA47918   1.520  11.603   5.281  0.2102  0.0461  0.1856
29065ION     NA47919   4.952  14.113   3.517 -0.1045  0.0045 -0.0710
29066ION     NA47920  15.985  16.782   4.772 -0.0298  0.0046  0.0881
29067ION     NA47921   6.542  18.889   9.474 -0.0821 -0.1164  0.3123
29068ION     NA47922   8.112  15.896   9.538 -0.1949  0.0576  0.1322
29069ION     NA47923   0.634  12.777   5.025  0.3259 -0.1847  0.0622
29070ION     NA47924   5.920   4.493   4.479 -0.3680 -0.0089 -0.1681
29071ION     NA47925   2.631   0.560  10.253  0.1416  0.1416 -0.2454
29072ION     NA47926   8.998   7.555   5.339  0.3268 -0.1792 -0.0148
29073ION     NA47927   5.149   4.030   9.931 -0.0720  0.2703 -0.1644
29074ION     NA47928   0.053   3.521   5.203 -0.0932 -0.0211  0.1358
29075ION     NA47929  15.444  11.708  12.714  0.1379  0.0956 -0.1227
29076ION     NA47930   0.968  12.379   5.051  0.1465 -0.1296  0.0630
29077ION     NA47931   5.009   1.648   9.735 -0.0806 -0.0461  0.0225
29078ION     NA47932   6.852  18.399   5.066 -0.0607 -0.0446  0.2661
29079ION     NA47933   9.842  11.113   5.239  0.1134  0.0614  0.1427
29080ION     NA47934  14.195   8.546   5.326  0.2821 -0.1167  0.2670
29081ION     NA47935  12.072  14.047  11.031  0.0590  0.3797 -0.0609
29082ION     NA47936   4.859  14.865  10.196 -0.0894  0.2335  0.0136
29083ION     NA47937  10.311   3.648  14.043 -0.1866 -0.0643  0.1150
29084ION     NA47938   5.425  10.289   3.477 -0.1692 -0.1598 -0.0147
29085ION     NA47939  11.288  17.886   4.803  0.0324  0.2922 -0.0426
29086ION     NA47940   4.303   3.764   5.080  0.2216 -0.1182 -0.0620
29087ION     NA47941   6.707   5.232   5.003 -0.0677  0.1915 -0.0940
29088ION     NA47942  10.988   2.250   2.415 -0.1071  0.3528 -0.0372
29089ION     NA47943  12.950   5.810  11.329 -0.0083  0.1403 -0.1487
29090ION     NA47944   3.195   1.315   5.023  0.1649  0.0221 -0.3039
29091ION     NA47945   3.642   8.192   5.067 -0.0837  0.0270  0.3940
29092ION     NA47946   8.454   4.408   9.607  0.0299  0.2848 -0.1768
29093ION     NA47947   4.761   3.754  12.443  0.0669 -0.2216  0.0066
29094ION     NA47948   8.350   9.690   5.212 -0.0710 -0.0966 -0.1019
29095ION     NA47949  15.310   6.158   4.602  0.1197  0.1494  0.0220
29096ION     NA47950  14.442  13.510   9.857 -0.2123 -0.1088 -0.1629
29097ION     NA47951  14.641  18.874   2.454  0.0658 -0.1127  0.0021
29098ION     NA47952   3.461   9.578  11.136 -0.0421  0.1615 -0.0273
29099ION     NA47953  12.083   7.829  10.048  0.1331  0.1983 -0.0963
29100ION     NA47954   9.042   5.870   5.083  0.4091 -0.3621  0.0604
29101ION     NA47955  10.937  14.889   2.635  0.2111 -0.0564  0.1794
29102ION     NA47956   1.195  14.067   9.906 -0.0427  0.0102  0.3379
29103ION     NA47957   6.072   4.798   9.974  0.0612  0.3132 -0.0908
29104ION     NA47958   6.141  18.209   9.633 -0.0183 -0.0745 -0.0588
29105ION     NA47959  15.542   0.207   4.855  0.0107  0.1340 -0.1810
29106ION     NA47960   3.159  14.936   1.381 -0.0004  0.2043  0.1627
29107ION     NA47961  18.819  15.946  10.662 -0.3641  0.1500 -0.0659
29108ION     NA47962   3.662  13.523   3.331  0.3987 -0.0685 -0.1060
29109ION     NA47963  16.861   3.664   5.328 -0.1168 -0.2816  0.1210
29110ION     NA47964   2.562   6.731  10.290  0.1914  0.1931 -0.1387
29111ION     NA47965   6.854   8.825   4.967 -0.2537 -0.1265 -0.1881
29112ION     NA47966  15.763  12.076   9.961 -0.0147 -0.1071  0.0719
29113ION     NA47967   9.343  17.551   9.666 -0.0067 -0.0184  0.1305
29114ION     NA47968  13.439   7.355   1.057 -0.0704  0.1020  0.0751
29115ION     NA47969  11.639  18.888   9.646 -0.0150 -0.4735 -0.3046
29116ION     NA47970   5.524  10.455  10.794  0.1539 -0.1483  0.0817
29117ION     NA47971   6.178  17.361   5.075 -0.1284  0.2395  0.1421
29118ION     NA47972   3.384   5.347   9.881  0.0348 -0.0473  0.0700
29119ION     NA47973  14.583  18.337   9.651  0.3136 -0.0857  0.0110
29120ION     NA47974  15.767  15.973  11.312 -0.0082  0.0449  0.4086
29121ION     NA47975  16.400   9.435   5.112 -0.1186  0.0324  0.0908
29122ION     NA47976   2.004   5.252   4.841  0.3429  0.2309  0.0011
29123ION     NA47977   6.861  11.917   1.690  0.1329  0.1292  0.1798
29124ION     NA47978  11.462  19.143   5.022 -0.0592 -0.3542  0.1103
29125ION     NA47979  10.078   9.529   5.154 -0.2664 -0.1655 -0.1785
29126ION     NA47980   7.929  14.472   9.821  0.3927  0.3628  0.2017
29127ION     NA47981   9.689  14.112   9.503 -0.0755  0.1142  0.3023
29128ION     NA47982   7.270  12.517   9.905  0.0662  0.2054 -0.0648
29129ION     NA47983   1.837   1.303   4.682 -0.0655 -0.0367 -0.1962
29130ION     NA47984   2.558  12.089   2.438 -0.1212 -0.1694  0.1523
29131ION     NA47985  11.761   3.035   5.021 -0.0018  0.1571 -0.3537
29132ION     NA47986  12.727   3.149   5.123 -0.0023 -0.0175 -0.1042
29133ION     NA47987  14.480  16.707  12.912  0.0057 -0.0762 -0.2629
29134ION     NA47988  15.512   9.516   9.965  0.4281  0.3576  0.0821
29135ION     NA47989   4.001   5.861   5.027 -0.0793 -0.1050 -0.1890
29136ION     NA47990   6.081  18.935   0.003  0.0117  0.1358 -0.1797
29137ION     NA47991   5.647  12.317   4.893 -0.0141 -0.3017  0.2918
29138ION     NA47992  15.193  10.285   5.210  0.1976 -0.0090  0.0215
29139ION     NA47993   7.883   5.968   4.806  0.1582  0.1827  0.0669
29140ION     NA47994  16.357   8.316   9.751 -0.1107  0.2042  0.1022
29141ION     NA47995   3.186   6.705   3.211  0.0551 -0.2932 -0.0942
29142ION     NA47996  12.199   4.526   4.980  0.1019  0.1234 -0.2009
29143ION     NA47997   9.242   9.134  14.087 -0.1614 -0.0216  0.0631
29144ION     NA47998   5.074   6.475   9.986  0.1461  0.2646 -0.3851
29145ION     NA47999   4.098  15.912   3.512 -0.0969 -0.3522 -0.1428
29146ION     NA48000   3.149   9.541  10.204  0.5222  0.2563  0.0862
29147ION     NA48001   7.819   9.938   5.332 -0.2822  0.4658 -0.0997
29148ION     NA48002   8.984   9.063   9.898 -0.2126 -0.0484 -0.0639
29149ION     NA48003   0.490   8.942   9.998  0.1524  0.4173  0.2520
29150ION     NA48004  17.293  15.651   5.068 -0.2738  0.0536 -0.4087
29151ION     NA48005  17.620  17.617   9.499  0.1505 -0.1240 -0.1296
29152ION     NA48006   3.158   1.467  10.601  0.1228  0.1361  0.1169
29153ION     NA48007   9.109  14.932   3.534 -0.1774 -0.3451 -0.1529
29154ION     NA48008   8.020   8.106   9.957 -0.1886 -0.0415 -0.2027
29155ION     NA48009   9.451  11.931   4.944 -0.0799 -0.0011 -0.1656
29156ION     NA48010  19.037  11.744   4.219  0.2646 -0.1314  0.1639
29157ION     NA48011  17.388  18.682   4.634 -0.2242  0.3037 -0.2487
29158ION     NA48012  18.024   3.696   2.600 -0.0511  0.1984 -0.0551
29159ION     NA48013   7.684   7.396   5.378 -0.3549 -0.1009 -0.3975
29160ION     NA48014   3.767   0.483  13.496  0.1159 -0.0578  0.0021
29161ION     NA48015   0.093  10.525   5.386 -0.1937 -0.0569 -0.3264
29162ION     NA48016  14.340   7.434   9.933  0.1380 -0.4497 -0.2710
29163ION     NA48017   0.636   9.885  10.667  0.0885  0.2917  0.1458
29164ION     NA48018  15.979  18.038   5.012 -0.0996  0.0767  0.3941
29165ION     NA48019  18.964   4.228   5.113 -0.1514  0.0865 -0.0415
29166ION     NA48020  14.091  16.775   4.937 -0.0666 -0.0628 -0.2503
29167ION     NA48021   6.104   2.903  14.324 -0.2308 -0.1429  0.0356
29168ION     NA48022   6.340   6.766  10.460 -0.1520 -0.2698  0.1625
29169ION     NA48023  10.426   7.253   9.844  0.1910 -0.0386  0.0599
29170ION     NA48024   3.657  17.220  14.260  0.2314  0.0086  0.0892
29171ION     NA48025  11.957   9.246  10.303 -0.2033 -0.2473 -0.2721
29172ION     NA48026   8.580  17.892   9.779  0.0064  0.0653  0.0387
29173ION     NA48027  10.678  18.867   4.679  0.0898 -0.0904  0.2184
29174ION     NA48028   9.957   7.197   5.384  0.0427  0.0888  0.2514
29175ION     NA48029  11.165  15.128   4.984 -0.0009  0.1612  0.0909
29176ION     NA48030   5.891   6.385  14.173  0.2035 -0.2039  0.1071
29177ION     NA48031   6.399  15.428   4.692 -0.0087  0.0333 -0.1065
29178ION     NA48032   4.897  13.813  12.952 -0.0121 -0.2750  0.0913
29179ION     NA48033  18.856   1.459   9.760 -0.1785 -0.1275 -0.0898
29180ION     NA48034  18.301   4.717   9.804  0.3575  0.1380  0.0001
29181ION     NA48035  16.958   2.170   5.146 -0.0834  0.0384  0.1646
29182ION     NA48036   4.680  11.906   9.714  0.0151  0.0485 -0.1211
29183ION     NA48037  15.372  15.256   4.807  0.1462 -0.1659  0.3102
29184ION     NA48038   4.286   3.626   9.740 -0.0634 -0.3191  0.1822
29185ION     NA48039  12.246   4.921   0.272  0.5577  0.4313  0.1876
29186ION     NA48040   0.995  16.469  10.122 -0.2655 -0.1751  0.3740
29187ION     NA48041  18.087  14.851   5.133 -0.0793  0.0843 -0.1286
29188ION     NA48042  17.894  10.919   5.267  0.0056  0.0217  0.0621
29189ION     NA48043   1.222   9.316   9.890  0.2212 -0.1109 -0.0903
29190ION     NA48044  16.415  15.465   9.812 -0.1069 -0.0725 -0.0684
29191ION     NA48045  18.104  19.042   4.356 -0.0167 -0.2381  0.1325
29192ION     NA48046   7.302   6.340   9.882  0.1264 -0.0905 -0.0083
29193ION     NA48047   9.291  17.173   5.149  0.1569  0.2377  0.0554
29194ION     NA48048   8.885   3.690   9.714 -0.0469 -0.3775  0.0841
29195ION     NA48049   2.847  16.661  13.937 -0.1986  0.0917  0.1208
29196ION     NA48050  10.415  13.210   1.216 -0.2384  0.0835 -0.1497
29197ION     NA48051   8.682   7.592   9.975 -0.0996  0.0864  0.2873
29198ION     NA48052  10.083  10.366  10.063  0.0565  0.1140 -0.0838
29199ION     NA48053  14.569  10.411  12.334  0.0699 -0.0408 -0.4083
29200ION     NA48054   4.508   2.217   9.426 -0.3218 -0.0042 -0.0289
29201ION     NA48055  18.781   9.888  10.008  0.0925  0.0499  0.2008
29202ION     NA48056  13.248  13.458  14.160  0.0759 -0.1336 -0.0469
29203ION     NA48057   6.575  14.363   9.968  0.3311  0.0167  0.0528
29204ION     NA48058   5.775   7.589   9.707  0.2495 -0.0894 -0.0817
29205ION     NA48059  18.079  15.791   5.008  0.1141 -0.2014  0.1824
29206ION     NA48060   8.705  15.255   9.383 -0.1641 -0.0780 -0.0732
29207ION     NA48061  11.585  18.407   9.786 -0.2187 -0.0678 -0.0864
29208ION     NA48062  16.484   7.301   2.078  0.0657  0.1247 -0.1897
29209ION     NA48063  10.059   3.612   1.483  0.0065  0.2746 -0.0529
29210ION     NA48064  15.633  17.248  10.973 -0.2294 -0.0065  0.1995
29211ION     NA48065  16.326   2.364   9.393  0.0794 -0.0865 -0.0698
29212ION     NA48066   7.110  17.311   5.062  0.0206 -0.0322  0.2945
29213ION     NA48067  15.208  17.597   4.545 -0.3146  0.0112 -0.1482
29214ION     NA48068  13.247   3.830   1.846 -0.2765  0.1648  0.0061
29215ION     NA48069  16.660  16.027   4.714 -0.2206  0.1910 -0.0002
29216ION     NA48070  12.031  17.465  11.921 -0.0873  0.0394 -0.0722
29217ION     NA48071  11.739   6.877   5.210 -0.0376 -0.0137  0.2652
29218ION     NA48072   4.712  13.620   4.438 -0.1202  0.0394  0.0551
29219ION     NA48073   0.227   4.079  10.024 -0.0048  0.1586  0.0616
29220ION     NA48074   9.841  10.251   3.196  0.2568 -0.1869 -0.1195
29221ION     NA48075   0.845   0.117  11.817  0.1655 -0.1580 -0.1604
29222ION     NA48076   0.831   7.428   5.490  0.1286 -0.2881 -0.0814
29223ION     NA48077   3.112  12.395   9.903  0.0304 -0.0616  0.5175
29224ION     NA48078   9.354  13.818   4.730 -0.0654 -0.0352  0.2384
29225ION     NA48079   1.149  10.743  10.055 -0.0808  0.0902 -0.0129
29226ION     NA48080   3.412   7.797  10.157  0.0416 -0.0002 -0.0223
29227ION     NA48081  12.700   1.571   2.993  0.2305  0.2867  0.2011
29228ION     NA48082   4.778   1.327   1.711  0.0478 -0.1047  0.1662
29229ION     NA48083   0.278  18.571   9.412  0.1359 -0.0330 -0.0495
29230ION     NA48084   5.364   4.262   4.992  0.2061  0.2644  0.1749
29231ION     NA48085   6.579  14.726   5.117  0.3844  0.0619 -0.0728
29232ION     NA48086  14.105   9.367  10.157 -0.2326 -0.2192 -0.2021
29233ION     NA48087   9.563   2.678   9.465 -0.0421 -0.2460  0.3565
29234ION     NA48088   8.181   0.649   3.541 -0.1027 -0.0757  0.5781
29235ION     NA48089   4.376   1.204   9.370  0.0375  0.2518  0.1015
29236ION     NA48090   5.560   2.050   4.713  0.3972  0.1535 -0.1630
29237ION     NA48091   2.201   7.732   4.175 -0.0658 -0.2496  0.0268
29238ION     NA48092   4.096   7.420   4.914 -0.0162  0.1353 -0.1988
29239ION     NA48093  14.789  15.968   9.661  0.1515 -0.2330  0.4037
29240ION     NA48094   2.624   1.412   9.825 -0.1198  0.2387  0.1681
29241ION     NA48095  18.231   6.652  10.023  0.2760  0.1180  0.1543
29242ION     NA48096  16.757   6.639   5.079  0.0185 -0.1945  0.1816
29243ION     NA48097  18.535   1.020  11.932  0.0477  0.3834 -0.1364
29244ION     NA48098   7.179  15.565   4.184  0.3786  0.2327 -0.0989
29245ION     NA48099   5.920  17.652  10.289  0.0016 -0.0446 -0.3800
29246ION     NA48100  17.996  17.889   4.844  0.0486 -0.1566 -0.0965
29247ION     NA48101   7.501  17.063   9.735  0.3880 -0.0323  0.0061
29248ION     NA48102  10.342   3.312   5.014  0.2357  0.2924  0.0012
29249ION     NA48103   3.912   6.203   9.765  0.2791 -0.2460  0.1406
29250ION     NA48104  12.876  13.992   4.733 -0.1687  0.4995 -0.2959
29251ION     NA48105   4.389  12.680   5.066 -0.0156 -0.1420  0.0106
29252ION     NA48106   0.129   7.478   5.448  0.0095  0.0678  0.0872
29253ION     NA48107  11.670   4.111   9.809  0.0814 -0.3231 -0.2379
29254ION     NA48108  16.995  13.822  13.714  0.2167  0.1174 -0.1211
29255ION     NA48109   4.458  19.128   9.747  0.3133  0.1250 -0.0167
29256ION     NA48110   5.493  11.084  10.096  0.3598 -0.0271 -0.2751
29257ION     NA48111  17.657   5.301   2.608 -0.0946 -0.0828  0.0642
29258ION     NA48112   0.754  14.955   3.406 -0.0254  0.0916  0.0136
29259ION     NA48113   1.919   1.644   9.835  0.0123 -0.1939 -0.1590
29260ION     NA48114  14.637   0.104   9.999 -0.3747 -0.1502 -0.1741
29261ION     NA48115   2.936  16.603  10.044  0.2231 -0.2020  0.0257
29262ION     NA48116  19.150   0.158   9.589 -0.0086  0.2639 -0.0279
29263ION     NA48117  15.734  18.509   4.940 -0.0477  0.0202  0.2838
29264ION     NA48118  18.415  11.707   5.120 -0.0171  0.1120 -0.3135
29265ION     NA48119   0.161   9.116   5.296  0.0565 -0.2675  0.3232
29266ION     NA48120   2.477   8.758  12.637  0.1690 -0.4016  0.0164
29267ION     NA48121   6.566  12.469   5.138  0.1312 -0.2928  0.2116
29268ION     NA48122   0.768  17.119  12.869  0.2059  0.0351  0.4635
29269ION     NA48123   3.826  15.037   9.962  0.1483 -0.0703  0.0300
29270ION     NA48124   9.383   1.369  13.272  0.0259 -0.1581 -0.3291
29271ION     NA48125  10.900   2.631   4.897 -0.3725  0.0185  0.0913
29272ION     NA48126  14.714   0.638   4.890 -0.1515  0.1313 -0.1593
29273ION     NA48127  11.474   6.527   9.829  0.0631  0.2598  0.0976
29274ION     NA48128  13.606   1.061   9.614 -0.1154 -0.3700 -0.1617
29275ION     NA48129  13.622   2.334   4.610  0.0587  0.1717  0.0249
29276ION     NA48130   4.941  12.978   9.571  0.3412  0.2114 -0.0989
29277ION     NA48131  16.675  15.015  11.757 -0.1974  0.0896 -0.0636
29278ION     NA48132  12.944  12.355  10.128 -0.2695  0.3915  0.2478
29279ION     NA48133   0.515   9.920   9.960 -0.1176 -0.0097 -0.0815
29280ION     NA48134  15.865   7.647   9.676  0.0115  0.1031  0.1074
29281ION     NA48135  10.580  15.471   0.688  0.1768  0.0506 -0.0512
29282ION     NA48136   0.186   0.537   4.628 -0.1372 -0.2710  0.2453
29283ION     NA48137  15.068   8.271   5.064 -0.0760 -0.2413 -0.4966
29284ION     NA48138  11.284  12.073   5.007  0.1018 -0.1221  0.0166
29285ION     NA48139  16.397   7.151  10.398 -0.0693  0.3023  0.1750
29286ION     NA48140   4.539   8.151   4.879 -0.3404  0.0271  0.1651
29287ION     NA48141  18.812   2.666  11.004 -0.1926 -0.0817  0.0530
29288ION     NA48142  14.841  11.489  11.913  0.3117  0.1094  0.0436
29289ION     NA48143   1.102   9.352   5.154  0.0876  0.0575  0.0352
29290ION     NA48144  16.704   1.634   9.647 -0.0566  0.2245 -0.3106
29291ION     NA48145   3.853  18.457   0.006  0.0966 -0.0649 -0.1298
29292ION     NA48146   7.280  14.831   4.828  0.2266 -0.4361 -0.0729
29293ION     NA48147  11.008  10.806   4.903  0.0094  0.1128 -0.1456
29294ION     NA48148  18.198   0.735   9.784  0.2097  0.2138  0.1967
29295ION     NA48149  14.548  16.959   9.743 -0.3037 -0.3082  0.1768
29296ION     NA48150  17.703  14.173   9.868  0.1231  0.0587 -0.0912
29297ION     NA48151   5.996   4.783   4.995 -0.2473 -0.0427  0.1542
29298ION     NA48152  13.539   6.260   9.607  0.1852 -0.0334 -0.2033
29299ION     NA48153   5.657   7.429   3.101 -0.4307  0.2790  0.3257
29300ION     NA48154   0.130  13.753   9.983 -0.3646 -0.4150  0.3397
29301ION     NA48155  12.935   5.005   4.918  0.1983 -0.0872 -0.0759
29302ION     NA48156  15.955   3.760   5.084  0.1153 -0.2380  0.2948
29303ION     NA48157  17.903  15.393   0.330  0.0113  0.1341  0.2789
29304ION     NA48158  11.352   1.064   5.050 -0.0554  0.0344 -0.1628
29305ION     NA48159   3.150  17.562  10.003 -0.1068  0.1997 -0.0282
29306ION     NA48160  17.901   0.439   3.612  0.0742  0.3349 -0.0471
29307ION     NA48161  12.706   0.295   4.884  0.2644  0.1878 -0.1771
29308ION     NA48162   5.324   1.776   0.718  0.0873  0.0933  0.0109
29309ION     NA48163  14.860  11.728  10.236 -0.2816  0.1104  0.1521
29310ION     NA48164  16.679  11.456   5.074  0.0017  0.2047  0.1046
29311ION     NA48165  12.333   6.970  10.060  0.3793 -0.0992  0.1956
29312ION     NA48166   2.906  12.619  12.874 -0.1955 -0.0517 -0.3404
29313ION     NA48167  16.154  19.033   9.554 -0.2176 -0.0061  0.0598
29314ION     NA48168   4.285   1.793  11.764 -0.0765  0.4123 -0.1062
29315ION     NA48169   8.856  11.411   5.179 -0.1481 -0.1893 -0.0985
29316ION     NA48170  12.862   2.721  14.007  0.0458 -0.0182 -0.1197
29317ION     NA48171   1.512   0.102   9.508 -0.0569 -0.1830 -0.0984
29318ION     NA48172  17.331  10.490  12.621 -0.0057  0.0518 -0.2048
29319ION     NA48173  15.196   2.067   3.918  0.1617  0.5056 -0.4836
29320ION     NA48174   4.573  18.687   4.790 -0.1110  0.3296  0.0305
29321ION     NA48175   2.297  11.373  10.167 -0.3108  0.0904  0.0014
29322ION     NA48176   3.556  12.398  12.605 -0.1837 -0.2418 -0.0934
29323ION     NA48177  14.996   1.927   4.899  0.0611  0.0359 -0.0345
29324ION     NA48178   7.921  12.461   2.312 -0.2173 -0.2444  0.0448
29325ION     NA48179   9.125   7.543   1.399 -0.1373 -0.1506  0.2589
29326ION     NA48180  11.099   7.818   9.980  0.2788 -0.0602 -0.1352
29327ION     NA48181   9.259  12.542   1.839 -0.0518  0.1312  0.2426
29328ION     NA48182   7.972   3.031   4.931  0.0878 -0.0461  0.1177
29329ION     NA48183   7.929  13.352   9.390 -0.1072  0.2041  0.2041
29330ION     NA48184   2.392   8.320   5.174  0.0105  0.1625 -0.1278
29331ION     NA48185   9.375   2.136   9.261  0.1032 -0.1699 -0.1570
29332ION     NA48186   0.890   1.197   5.039  0.0108 -0.0507  0.0188
29333ION     NA48187   3.301   3.212  12.714  0.0309 -0.0706  0.2055
29334ION     NA48188   3.393   1.687  12.471 -0.3156 -0.1149  0.0720
29335ION     NA48189   3.188  15.167   4.576  0.2068 -0.4288 -0.2950
29336ION     NA48190  13.732   7.736   5.292 -0.2364  0.2252 -0.1718
29337ION     NA48191   4.036  15.333   4.858 -0.2091  0.0189 -0.0265
29338ION     NA48192   3.652   9.336   5.102 -0.2540  0.0379  0.0420
29339ION     NA48193  14.723   0.609  11.614  0.0990 -0.2596  0.0920
29340ION     NA48194  15.849   1.829   5.288 -0.0298 -0.0540  0.1263
29341ION     NA48195  13.420  14.874   4.954 -0.0029 -0.0996  0.2465
29342ION     NA48196  18.265  12.323  10.362 -0.1028  0.2723 -0.0718
29343ION     NA48197   6.558   5.432  14.604  0.4060  0.1379  0.0050
29344ION     NA48198   3.098   0.417   9.841  0.2611  0.1764  0.1046
29345ION     NA48199   8.062   9.970  13.446 -0.1867  0.0947 -0.1560
29346ION     NA48200   4.389   9.385   9.905  0.0134 -0.1162  0.0067
29347ION     NA48201   9.189   8.343   5.316 -0.0620  0.1626  0.2380
29348ION     NA48202  10.063  12.926   9.104  0.2965 -0.1663 -0.2127
29349ION     NA48203   0.943  17.893   4.658 -0.0029 -0.1053 -0.2583
29350ION     NA48204  11.030  16.013   4.916 -0.2865 -0.0173 -0.1012
29351ION     NA48205   1.780  12.418   5.538  0.1470  0.1455  0.0765
29352ION     NA48206  10.585  11.780  14.052 -0.0448  0.0338 -0.3332
29353ION     NA48207  14.998  16.889   4.774  0.1611  0.0938 -0.0918
29354ION     NA48208   0.820  11.002   5.337  0.2389  0.2242  0.0627
29355ION     NA48209   6.431  19.129   4.988  0.3099 -0.0706 -0.2312
29356ION     NA48210  12.522  10.747   5.338 -0.0579 -0.0773  0.1866
29357ION     NA48211  14.743   0.464   9.623  0.0291  0.0107 -0.1553
29358ION     NA48212   7.245   8.525   9.967  0.0307 -0.2435 -0.2714
29359ION     NA48213   8.607   6.545   4.845 -0.1460  0.0480  0.0174
29360ION     NA48214   0.080  10.642  10.185  0.0627 -0.0755  0.1772
29361ION     NA48215  11.250   4.699   9.695  0.1266 -0.2862  0.0737
29362ION     NA48216  10.221  18.031   9.635 -0.0688  0.1865  0.0966
29363ION     NA48217   1.878   9.795   5.221 -0.0762 -0.1000 -0.1974
29364ION     NA48218  15.278   5.335   9.989  0.1639 -0.3190 -0.0760
29365ION     NA48219  13.768  12.869   9.960 -0.0081 -0.3003  0.0743
29366ION     NA48220   9.627   0.543   4.865  0.0725 -0.0668 -0.0377
29367ION     NA48221  18.201   2.225   4.873 -0.0416 -0.2730 -0.1204
29368ION     NA48222  16.028  15.561  13.388  0.3994  0.1005  0.1930
29369ION     NA48223  10.235  15.640   4.867  0.3672  0.1203 -0.0538
29370ION     NA48224  13.972  12.057  10.096  0.0333  0.0148  0.1101
29371ION     NA48225  10.944  15.663   9.618 -0.2607 -0.0578  0.0298
29372ION     NA48226  18.765  10.719  14.192  0.1633  0.1967 -0.0249
29373ION     NA48227  16.294  18.015   9.593 -0.1888  0.2350  0.2660
29374ION     NA48228  10.887   0.238  13.486 -0.1536 -0.2727  0.0489
29375ION     NA48229  10.797  13.296   4.958  0.2529 -0.1218  0.1837
29376ION     NA48230  17.170  16.161   9.831 -0.4270 -0.0774  0.1203
29377ION     NA48231   7.190  15.653   9.715  0.1374  0.1059  0.1504
29378ION     NA48232  16.677  14.682  12.546 -0.4175 -0.0092 -0.1495
29379ION     NA48233  14.615   1.165   4.164  0.0236 -0.0533  0.0123
29380ION     NA48234  13.946  14.275   3.463 -0.2277 -0.2893 -0.3778
29381ION     NA48235   1.445   8.491   9.936 -0.2145  0.2073 -0.0687
29382ION     NA48236   4.092   9.139   5.224 -0.0410  0.3932  0.2429
29383ION     NA48237   1.523  15.381  10.945 -0.0100  0.0754 -0.2688
29384ION     NA48238   2.814   9.550   5.374  0.1237  0.0936 -0.0671
29385ION     NA48239  14.572  16.096   4.898 -0.2049 -0.3382 -0.0337
29386ION     NA48240   0.904  10.287   3.637 -0.1087 -0.2846  0.2407
29387ION     NA48241   8.630  12.728   4.854 -0.1343  0.2241 -0.2407
29388ION     NA48242  17.563  10.045   5.065 -0.4271 -0.1383 -0.2084
29389ION     NA48243  18.941   5.698   9.998 -0.4052 -0.1083  0.1109
29390ION     NA48244   6.889   6.677   0.786  0.0601  0.0324 -0.1968
29391ION     NA48245   8.945   1.362   3.115  0.0425 -0.0434 -0.2813
29392ION     NA48246   0.472   3.132   9.688  0.0316 -0.1892 -0.0055
29393ION     NA48247   8.583   1.836   9.915  0.2655  0.1109  0.2755
29394ION     NA48248  13.139  12.285   5.177 -0.1327 -0.1366  0.3371
29395ION     NA48249  18.846  16.486   9.913  0.3731  0.0224 -0.0171
29396ION     NA48250  12.733   1.035   0.111 -0.0259 -0.0698 -0.0602
29397ION     NA48251  13.526  13.091   4.744  0.0545 -0.0061 -0.2386
29398ION     NA48252   8.935  12.803   9.288  0.0067 -0.0838 -0.0344
29399ION     NA48253  15.997   3.003  10.087 -0.1336 -0.4419  0.1067
29400ION     NA48254  17.257   3.501  10.029  0.2056 -0.1531 -0.3156
29401ION     NA48255  16.911   9.515   5.208 -0.1816  0.0912  0.1290
29402ION     NA48256  17.018  19.049   4.809 -0.2139 -0.2642  0.0917
29403ION     NA48257   5.662  15.819   4.696 -0.1938  0.0238 -0.1978
29404ION     NA48258  16.591  17.393   4.709  0.0942 -0.0719 -0.3029
29405ION     NA48259   7.008  10.116   9.870  0.0620  0.0103  0.1172
29406ION     NA48260   0.398  17.209   9.925  0.0960  0.1036 -0.0805
29407ION     NA48261  12.804  12.161  12.619  0.2891  0.0594  0.0760
29408ION     NA48262   2.472  12.254  11.055 -0.0892 -0.2229 -0.0960
29409ION     NA48263  10.260  12.315   5.028  0.1784  0.1486 -0.1051
29410ION     NA48264   4.252   3.370   4.746  0.0470 -0.0194 -0.0581
29411ION     NA48265   4.018  17.278  11.818  0.0963  0.2729  0.1419
29412ION     NA48266   5.594  15.024   5.024 -0.1753  0.0682 -0.2511
29413ION     NA48267   2.764  17.649   0.133  0.1754 -0.2313  0.2548
29414ION     NA48268  18.015   3.273  11.002 -0.4029  0.3238 -0.0526
29415ION     NA48269  13.973  11.940   5.212 -0.2149 -0.1160  0.1323
29416ION     NA48270   7.334   9.379  10.009  0.2538 -0.2469  0.0994
29417ION     NA48271  19.100   7.149  10.018  0.2721 -0.0034 -0.1325
29418ION     NA48272  16.019   4.309   5.130 -0.1912  0.2657 -0.3340
29419ION     NA48273  18.791   2.645   4.654  0.0631 -0.3242  0.4919
29420ION     NA48274   1.764   0.302   5.061  0.0227 -0.0352  0.2178
29421ION     NA48275  17.237  14.259   4.851  0.0150 -0.0197 -0.2620
29422ION     NA48276   2.386  13.137   9.947 -0.1411  0.0894 -0.4250
29423ION     NA48277   1.701   6.444  14.710  0.2676  0.3158 -0.1598
29424ION     NA48278  16.714   2.861  14.351  0.1241  0.0742  0.1315
29425ION     NA48279  13.806   3.299   4.887  0.2306  0.0117 -0.1237
29426ION     NA48280   4.321   6.789   9.890 -0.0730 -0.0307  0.0487
29427ION     NA48281   5.202   3.510  13.741 -0.3115 -0.0708  0.3527
29428ION     NA48282   3.322   4.833   2.048 -0.2900  0.0902  0.0979
29429ION     NA48283  13.268  10.782   5.284  0.2756  0.0314  0.2023
29430ION     NA48284   5.465  10.880   5.175 -0.0339 -0.2915  0.0180
29431ION     NA48285  10.780  15.214   9.382  0.0377  0.0520 -0.0891
29432ION     NA48286   8.292  14.702   4.780  0.1829 -0.2978  0.2093
29433ION     NA48287   7.187  18.204   9.827 -0.1496 -0.0106 -0.1801
29434ION     NA48288  11.849   0.804   5.246  0.0573  0.0437 -0.0344
29435ION     NA48289   7.391  12.777   5.292  0.2642 -0.1145  0.0366
29436ION     NA48290   3.533  16.019   5.001 -0.1894 -0.0869 -0.1719
29437ION     NA48291   6.997   2.186   1.192  0.1088  0.0559  0.0368
29438ION     NA48292  13.853  16.376  10.179 -0.0053  0.1677  0.4082
29439ION     NA48293   7.501   8.363  11.340  0.1747 -0.2630  0.0577
29440ION     NA48294   1.133  16.021   5.173 -0.0638 -0.1774 -0.1600
29441ION     NA48295   7.661  11.733   3.611 -0.3008 -0.0745  0.1009
29442ION     NA48296  10.110  15.192   4.657  0.1639 -0.1480 -0.1402
29443ION     NA48297  15.455  18.556   9.400 -0.3067  0.2293  0.1198
29444ION     NA48298   0.523  11.666  10.094 -0.0347  0.0561 -0.2187
29445ION     NA48299  16.952  11.465  14.404  0.1733 -0.2278  0.0284
29446ION     NA48300  17.044   7.379   5.405  0.1139  0.0441  0.4340
29447ION     NA48301   1.853   2.814   4.453  0.3097 -0.3073 -0.3407
29448ION     NA48302  17.407  14.225   5.353 -0.1948  0.0401  0.0674
29449ION     NA48303  15.680   5.286   4.925 -0.0902 -0.1065 -0.0308
29450ION     NA48304  12.877   8.562   5.224  0.3030 -0.0951  0.2088
29451ION     NA48305   7.177   7.593   9.960 -0.0152  0.1113  0.0993
29452ION     NA48306  12.069   5.316   5.006  0.2578  0.0507 -0.2440
29453ION     NA48307  13.109  15.973   9.646 -0.1105  0.0105  0.1021
29454ION     NA48308  17.419  12.088   4.958 -0.1077  0.0225  0.1519
29455ION     NA48309   4.465   6.981   4.980  0.0649 -0.0036 -0.0374
29456ION     NA48310  14.719  15.050   0.842  0.0837  0.0107 -0.1247
29457ION     NA48311   4.839  15.674   2.409 -0.1290 -0.0129  0.1333
29458ION     NA48312  15.773  16.227   4.954 -0.0819  0.0063 -0.1170
29459ION     NA48313  18.118   7.325   0.265  0.0976  0.1660  0.1073
29460ION     NA48314   5.058  13.817  13.981  0.1056  0.3557  0.0297
29461ION     NA48315  13.659   2.680  10.366 -0.0693 -0.2732  0.3283
29462ION     NA48316   1.713   3.234   3.602 -0.1332  0.0656  0.1532
29463ION     NA48317  14.064   4.748   4.843  0.1468 -0.0826  0.1473
29464ION     NA48318  14.339  14.758   9.529 -0.0438 -0.4103 -0.2941
29465ION     NA48319   1.925   6.067   9.858 -0.1278 -0.3131  0.0830
29466ION     NA48320   4.060   1.102   5.114 -0.2027  0.2500 -0.1879
29467ION     NA48321   2.727  10.539   9.981  0.1238  0.1984  0.0110
29468ION     NA48322   7.984   9.068   9.961 -0.2815 -0.1605  0.1384
29469ION     NA48323   7.104  13.529   9.858 -0.0734  0.1313 -0.0309
29470ION     NA48324  14.734   3.066  11.384  0.2309 -0.0439  0.1452
29471ION     NA48325   1.405  13.047  10.662  0.3440  0.0819 -0.0869
29472ION     NA48326   7.272   3.489   4.924  0.1645 -0.4951 -0.1113
29473ION     NA48327  18.869  16.377   4.850  0.0680  0.2203  0.2496
29474ION     NA48328   2.064   7.599   5.343 -0.2188  0.0527 -0.1600
29475ION     NA48329   0.577  17.485   4.807  0.2658  0.0335  0.0471
29476ION     NA48330   6.696  10.994   9.641 -0.1954 -0.1677 -0.4766
29477ION     NA48331   4.593  17.960   9.665  0.0262 -0.1108  0.0725
29478ION     NA48332  18.902  13.181   5.111 -0.3380 -0.0188  0.1426
29479ION     NA48333  17.108  11.499   2.266 -0.0098  0.0628  0.2628
29480ION     NA48334   8.268   1.422   5.245  0.1091  0.1116 -0.2773
29481ION     NA48335   5.569  15.002   1.958  0.1756  0.1678  0.0855
29482ION     NA48336   5.826   2.421   3.329  0.1777  0.0009  0.0783
29483ION     NA48337  16.355  10.482  10.321 -0.2421  0.0696 -0.0912
29484ION     NA48338  14.072  15.714  13.108 -0.1652 -0.2316 -0.0102
29485ION     NA48339   9.720   4.042   9.687  0.1918 -0.2371  0.0601
29486ION     NA48340  18.432   9.384   5.357 -0.2156  0.1036 -0.0366
29487ION     NA48341   8.236   3.555   1.337 -0.1484  0.2814  0.2479
29488ION     NA48342  15.917  14.506   9.567 -0.4496 -0.1472 -0.0786
29489ION     NA48343   0.933  15.099  12.688 -0.3553 -0.0862  0.0908
29490ION     NA48344   2.303  13.968   5.055  0.0008  0.0825 -0.1531
29491ION     NA48345  12.206  18.663   4.681 -0.1340 -0.2502 -0.0616
29492ION     NA48346  10.405   4.855   5.153  0.1195 -0.0990  0.2049
29493ION     NA48347  19.140  18.181  13.707 -0.2756 -0.0754  0.3660
29494ION     NA48348   9.885   8.560  10.013 -0.4132 -0.1060 -0.1192
29495ION     NA48349  13.348  14.845   9.794  0.2435  0.0173  0.1657
29496ION     NA48350   3.002   3.696   1.008  0.0679 -0.1316  0.3159
29497ION     NA48351   7.391   4.199   9.710  0.0130 -0.1035  0.0869
29498ION     NA48352  18.689  17.386   9.738  0.2154  0.0327 -0.0025
29499ION     NA48353   9.219  15.655   5.010 -0.2883  0.4590  0.3209
29500ION     NA48354   9.107   5.627   3.971  0.1320 -0.3212 -0.2680
29501ION     NA48355  11.598  10.805   4.932 -0.1688  0.0627 -0.2260
29502ION     NA48356   8.994  16.959  13.883 -0.1575  0.5128  0.2001
29503ION     NA48357   8.607  14.246   5.042 -0.1564  0.2431  0.0454
29504ION     NA48358  10.085   4.562   4.700  0.0755  0.6329 -0.2039
29505ION     NA48359  17.580   6.814   5.366 -0.0713  0.0551 -0.0086
29506ION     NA48360   3.349   6.783   4.662 -0.2456 -0.0702  0.1791
29507ION     NA48361  17.267  13.870   9.834  0.3597  0.4435 -0.0673
29508ION     NA48362  16.683   2.845   1.554  0.1000  0.2262 -0.1740
29509ION     NA48363  13.872   5.332   4.975 -0.0961  0.0596  0.2323
29510ION     NA48364  18.658   5.130  11.615 -0.0701 -0.1269  0.1131
29511ION     NA48365   3.990  11.818  12.087  0.2993 -0.3299 -0.1082
29512ION     NA48366  12.931   2.962   9.653 -0.0521 -0.0222  0.1267
29513ION     NA48367  11.660   2.972   9.842 -0.0211 -0.1977 -0.1895
29514ION     NA48368   6.069  11.460   9.431  0.1950  0.2380  0.5890
29515ION     NA48369   9.179   9.383   5.172 -0.2343 -0.1079  0.1641
29516ION     NA48370  17.324   1.107   9.911  0.0338  0.0993 -0.2008
29517ION     NA48371   0.062   1.979   3.478 -0.0930 -0.1376 -0.3115
29518ION     NA48372  12.194   5.823   4.936  0.0157 -0.0974 -0.4074
29519ION     NA48373   8.718  10.825  10.095  0.0281  0.0136 -0.0995
29520ION     NA48374  15.655  11.108  10.118  0.0685  0.2683  0.0393
29521ION     NA48375  11.922   7.802   5.207  0.1137 -0.1097 -0.1010
29522ION     NA48376   9.697  11.084   2.511  0.0859  0.0781  0.3063
29523ION     NA48377  13.010  10.451  10.460  0.2267  0.4338  0.0970
29524ION     NA48378   6.527  10.646  13.278  0.0353 -0.1183  0.0901
29525ION     NA48379  10.556   2.026   0.577 -0.3412  0.2647 -0.0090
29526ION     NA48380  17.740   1.759  12.971 -0.1981 -0.2193  0.1527
29527ION     NA48381  12.245  12.059   5.205 -0.2901 -0.2315  0.3006
29528ION     NA48382   7.156   4.669   9.657 -0.0743  0.0255 -0.0623
29529ION     NA48383  12.454  15.198   9.603  0.1706 -0.1440  0.0930
29530ION     NA48384   5.647   9.283   9.903  0.2638 -0.1207 -0.3082
29531ION     NA48385   7.138  18.099  12.215  0.1383 -0.2564  0.0203
29532ION     NA48386  13.581   6.635  14.336 -0.1025  0.0327  0.0731
29533ION     NA48387  18.720   5.513   5.203  0.0193 -0.5264 -0.1065
29534ION     NA48388  11.379  10.394   1.986  0.1216 -0.2106  0.0191
29535ION     NA48389  18.041   4.933   5.186 -0.0962 -0.2800  0.0966
29536ION     NA48390   1.419   8.872   3.797  0.3167  0.2406  0.0733
29537ION     NA48391   4.611  16.548  13.361  0.4515 -0.0686 -0.0424
29538ION     NA48392   5.895   2.511   9.730  0.0065  0.0905 -0.2169
29539ION     NA48393   3.124  10.054   4.800 -0.3938 -0.1402 -0.0829
29540ION     NA48394   3.891   9.985  10.275  0.0854  0.0284 -0.0720
29541ION     NA48395   7.966  17.442   5.084  0.3057 -0.0183 -0.1054
29542ION     NA48396  13.558  11.665  10.099 -0.0506  0.0416 -0.1702
29543ION     NA48397  14.510   9.911   5.253  0.0688  0.1222 -0.0972
29544ION     NA48398   9.286   1.328   9.542 -0.2352 -0.1333  0.2328
29545ION     NA48399  16.134  13.667   5.216  0.1611  0.1835  0.0384
29546ION     NA48400   3.386  17.309   4.922 -0.0400  0.1211  0.0351
29547ION     NA48401   8.228   2.197   4.974 -0.2919  0.1881  0.1715
29548ION     NA48402   3.321   0.186  12.546 -0.4501 -0.0046  0.0285
29549ION     NA48403   2.707  14.609   2.543 -0.1868 -0.1933  0.2178
29550ION     NA48404   5.458   5.462   9.830 -0.1481  0.1317 -0.5387
29551ION     NA48405  12.054  17.112   9.675 -0.0404 -0.0758 -0.1189
29552ION     NA48406  15.797  15.107   2.546  0.2890  0.0150  0.1015
29553ION     NA48407   6.431  11.490  10.454 -0.2082  0.1599 -0.0262
29554ION     NA48408   2.751  11.450  10.001 -0.1152 -0.1546  0.2688
29555ION     NA48409   0.767   7.413  10.110  0.1719 -0.0492  0.1117
29556ION     NA48410  17.132   8.820   9.843 -0.1608 -0.0360  0.2108
29557ION     NA48411   7.137   0.366   9.683  0.0613  0.3735  0.2394
29558ION     NA48412   1.146  12.160  10.070  0.2008  0.1727  0.1130
29559ION     NA48413  13.780   6.138   5.175 -0.0997 -0.0445  0.2650
29560ION     NA48414  15.887  10.799   5.318 -0.2888 -0.2058  0.0284
29561ION     NA48415  18.628  15.936   0.117  0.0604  0.0395 -0.0206
29562ION     NA48416   4.089  17.984   4.556  0.0512  0.0117  0.3200
29563ION     NA48417  17.758   0.305   4.508 -0.2755  0.2213 -0.5675
29564ION     NA48418   8.332   8.138   5.458  0.0736 -0.2187  0.3605
29565ION     NA48419  11.951  11.638   4.924 -0.4510  0.2148  0.0064
29566ION     NA48420   1.200   0.937   2.133  0.1153 -0.3176  0.5041
29567ION     NA48421  10.766   8.660  10.060  0.2799  0.1959  0.3114
29568ION     NA48422   3.503   3.237   5.020  0.1815  0.1344 -0.0739
29569ION     NA48423  14.760   5.290   4.918 -0.0795  0.2505  0.3519
29570ION     NA48424   3.525  10.817   5.002 -0.0387  0.2185 -0.0304
29571ION     NA48425   4.036  12.640   9.587  0.2111  0.0148 -0.2170
29572ION     NA48426   7.790  11.634   1.544 -0.0841 -0.0927  0.4485
29573ION     NA48427   3.318  17.626   2.535  0.3041  0.0290  0.2202
29574ION     NA48428   9.804   1.384   5.018  0.1960 -0.3061  0.2422
29575ION     NA48429   6.566   5.474   9.680 -0.1574  0.1030  0.0620
29576ION     NA48430   7.378   0.037   0.323  0.3329 -0.2689  0.2287
29577ION     NA48431  11.873   9.586   5.107 -0.1422 -0.0025 -0.1206
29578ION     NA48432  17.343   5.508   5.382  0.1628 -0.2720 -0.1296
29579ION     NA48433  16.992  12.233   9.888  0.0773  0.0119  0.2753
29580ION     NA48434   0.411   4.986   5.111  0.1542 -0.0175  0.1865
29581ION     NA48435   7.245   0.907   9.666  0.1143 -0.2917  0.2273
29582ION     NA48436  18.962   9.540  12.670  0.0925  0.1865  0.0117
29583ION     NA48437  11.947   0.181   9.481 -0.2336 -0.0217 -0.1400
29584ION     NA48438  15.623  15.455  10.512 -0.0184 -0.2790 -0.0737
29585ION     NA48439   6.388   3.056   4.785  0.0652  0.2648 -0.3841
29586ION     NA48440   6.096   6.919   5.086 -0.3983  0.2004 -0.0743
29587ION     NA48441  10.541   5.542  13.030 -0.1683 -0.2053 -0.0179
29588ION     NA48442   1.611  15.718  10.222 -0.4296 -0.3685  0.2287
29589ION     NA48443   1.757   7.642   2.606  0.1041  0.0989 -0.3585
29590ION     NA48444   1.183   5.981  10.105  0.0623  0.2390 -0.2280
29591ION     NA48445   5.195   7.437   4.877  0.1160 -0.0522 -0.2289
29592ION     NA48446  18.273   7.923  10.100 -0.0295 -0.1183  0.4014
29593ION     NA48447  17.984  16.610   9.839  0.0295 -0.0280  0.0201
29594ION     NA48448  11.567   4.806  10.598 -0.0634 -0.1743  0.1923
29595ION     NA48449  16.567  13.114  10.002  0.0882 -0.2113 -0.0103
29596ION     NA48450  10.322  15.988   9.622  0.2658 -0.0191  0.2785
29597ION     NA48451  15.410  14.236   4.692  0.0777  0.2177  0.0754
29598ION     NA48452  15.914  13.706  11.511  0.1945  0.1227 -0.2137
29599ION     NA48453  12.993   2.229  11.089 -0.0752  0.1512 -0.5523
29600ION     NA48454  14.005  15.561   9.564  0.1630  0.1479  0.1673
29601ION     NA48455   1.445   1.472   9.779  0.2940  0.0410 -0.0864
29602ION     NA48456  18.783  15.428   4.935 -0.0746 -0.1988 -0.2238
29603ION     NA48457   8.450   8.832   4.949  0.1489 -0.0346 -0.0103
29604ION     NA48458  10.702   4.297   9.903  0.2103 -0.0338  0.1894
29605ION     NA48459  18.406   5.080   3.299  0.2374 -0.1312  0.4423
29606ION     NA48460  15.778  11.690   4.897 -0.2859 -0.2236  0.1341
29607ION     NA48461  14.851   9.624  10.081 -0.2951  0.2077 -0.4927
29608ION     NA48462  16.497  13.530  10.381 -0.0921 -0.1071 -0.0261
29609ION     NA48463  16.587  15.104   5.091  0.2090  0.0600 -0.0440
29610ION     NA48464   0.072   6.673  10.067 -0.0623  0.0483 -0.0485
29611ION     NA48465   2.162   3.715  10.662  0.0368  0.1445 -0.0564
29612ION     NA48466  18.410   6.476  11.712 -0.2548 -0.2620  0.2035
29613ION     NA48467   0.198  17.208   0.031 -0.0036  0.0880  0.2520
29614ION     NA48468   7.050   2.802   9.747 -0.1470 -0.1843  0.1100
29615ION     NA48469  18.075   5.466  10.858  0.0720  0.0407  0.1662
29616ION     NA48470   2.716  16.548   5.162  0.1621  0.3711 -0.1801
29617ION     NA48471   6.552   7.991   5.064 -0.0519 -0.0329 -0.0218
29618ION     NA48472  18.242  14.854  10.352  0.2024 -0.1239  0.0730
29619ION     NA48473   3.076   1.850   3.835  0.0406  0.2253 -0.0661
29620ION     NA48474   0.709   4.541  13.757 -0.2720  0.3088 -0.1176
29621ION     NA48475  12.155  16.438  11.643  0.1257 -0.2470 -0.0522
29622ION     NA48476   3.366  15.760  10.061 -0.1007 -0.0047 -0.1860
29623ION     NA48477   8.639  18.555   0.078 -0.0689 -0.3919  0.1021
29624ION     NA48478  10.757  14.225   9.317 -0.2121 -0.4366 -0.1969
29625ION     NA48479   0.146   8.159   9.984  0.2602 -0.1292  0.0350
29626ION     NA48480   9.592  18.221  12.624  0.1612 -0.0968  0.2205
29627ION     NA48481  11.151  10.589  10.113  0.0235  0.0963 -0.2313
29628ION     NA48482  18.018   3.819   9.761 -0.2101  0.0345  0.2478
29629ION     NA48483  11.790  15.907   9.941  0.1487 -0.2954  0.1217
29630ION     NA48484   0.936  10.249   5.313 -0.4611  0.2103  0.4636
29631ION     NA48485  11.975  13.037  11.934  0.0927 -0.0055 -0.2470
29632ION     NA48486  14.662  12.514   5.271  0.0656 -0.2725 -0.1591
29633ION     NA48487  14.367  14.166   4.724  0.0245  0.1338  0.0152
29634ION     NA48488  15.514   5.997   5.134  0.3518 -0.0527  0.0528
29635ION     NA48489   9.548   5.556   5.209  0.2166  0.0896  0.1140
29636ION     NA48490   4.917  17.816   4.768 -0.2614  0.2564 -0.0632
29637ION     NA48491  17.936   3.976   5.125  0.2043 -0.1244 -0.0408
29638ION     NA48492  16.549  18.234   4.470 -0.2200 -0.0141 -0.1902
29639ION     NA48493  11.566  18.466   3.963  0.3070  0.0705 -0.1619
29640ION     NA48494   5.240  12.811  12.024  0.0456  0.0256 -0.3161
29641ION     NA48495  14.312   5.305  14.179 -0.2033  0.2039 -0.1358
29642ION     NA48496   0.385  16.658   5.070  0.3088 -0.0225  0.0297
29643ION     NA48497  14.570  16.048   4.424  0.1237  0.0564  0.2151
29644ION     NA48498   8.198  11.820   9.952 -0.0937  0.1629  0.0579
29645ION     NA48499   4.737   2.358   5.025 -0.1814  0.0073 -0.3677
29646ION     NA48500  11.927  11.183  10.098 -0.1315  0.1741  0.0368
29647ION     NA48501  18.745   8.933   5.464 -0.0109  0.0180  0.5098
29648ION     NA48502  10.833  13.537  13.383 -0.1920  0.2454  0.3915
29649ION     NA48503   3.203   1.761   2.378 -0.0033  0.1243  0.0206
29650ION     NA48504   2.475   3.918  12.077  0.0945 -0.2240 -0.0443
29651ION     NA48505  15.500  14.079   9.907  0.2484  0.0080  0.0099
29652ION     NA48506  13.097   3.682  10.117 -0.3049  0.4887 -0.0759
29653ION     NA48507   9.529  15.732   9.538  0.0863  0.1389  0.0837
29654ION     NA48508   2.186   5.085  10.078 -0.1393  0.1075 -0.3160
29655ION     NA48509   6.902   7.811  11.805  0.0251 -0.0100  0.0261
29656ION     NA48510   6.932   7.067   4.982 -0.3017  0.3305 -0.4494
29657ION     NA48511   1.451   6.861   9.980  0.0913 -0.0633  0.1032
29658ION     NA48512   8.725   0.730   5.032 -0.1354  0.2467 -0.2275
29659ION     NA48513  15.705   0.390   9.646  0.0153  0.0065  0.0645
29660ION     NA48514  17.338  13.049   9.926  0.0612 -0.0598 -0.0806
29661ION     NA48515  12.653   5.970   9.982  0.0058  0.0622  0.2781
29662ION     NA48516  14.625  12.558  10.029  0.2218  0.0867 -0.0299
29663ION     NA48517   9.277   4.740   5.001  0.0315 -0.1778 -0.0436
29664ION     NA48518   0.030   1.568   4.340  0.2730  0.0179 -0.0357
29665ION     NA48519  11.139  14.183   4.844  0.0129 -0.1241 -0.1939
29666ION     NA48520  11.110   2.412   9.872 -0.0053 -0.1008 -0.0597
29667ION     NA48521  17.647   5.355  10.020 -0.4176 -0.1424 -0.1797
29668ION     NA48522   4.177  11.115   9.795 -0.2606 -0.2409  0.0704
29669ION     NA48523  15.039   3.880   9.888 -0.1654 -0.1259  0.0798
29670ION     NA48524  16.631   0.470  11.515  0.0818 -0.1227  0.0343
29671ION     NA48525   6.433  15.187   1.958 -0.1451  0.2917  0.3477
29672ION     NA48526   3.702  18.698   5.087 -0.1687 -0.3171  0.0984
29673ION     NA48527  14.364  18.897   4.893 -0.1844  0.2059  0.2124
29674ION     NA48528  12.734   9.146   5.192  0.1353 -0.2494 -0.0608
29675ION     NA48529   8.059   2.369   0.541  0.1640  0.1267  0.0497
29676ION     NA48530   2.791  14.591   9.932 -0.2571  0.0382 -0.4271
29677ION     NA48531  14.868   5.626  14.739  0.0372 -0.2302 -0.2658
29678ION     NA48532  12.930  16.723   3.994 -0.0462  0.0543  0.1581
29679ION     NA48533  18.403  13.841  14.431  0.2284  0.0352  0.0491
29680ION     NA48534  10.230  17.144   4.954 -0.0776  0.2591  0.3361
29681ION     NA48535   0.341   5.800   4.748  0.2139  0.1126  0.1329
29682ION     NA48536   5.635   8.510   9.727  0.4159  0.1186  0.1145
29683ION     NA48537   3.035  10.930   4.999 -0.2128 -0.0975 -0.0058
29684ION     NA48538  18.453   6.971   5.600  0.1892 -0.0946 -0.1416
29685ION     NA48539   9.464  17.680  14.312  0.1615  0.0278 -0.1899
29686ION     NA48540   0.762  13.959   4.663  0.1304 -0.1108 -0.1558
29687ION     NA48541   0.708  18.734   0.738  0.0637  0.2333  0.3186
29688ION     NA48542   3.415   6.851  10.002  0.1239 -0.1431  0.0502
29689ION     NA48543  12.669  16.284   4.851  0.2986 -0.1604  0.1952
29690ION     NA48544   8.137  11.922   5.241 -0.0776  0.0064  0.1352
29691ION     NA48545   7.880   5.340  11.390  0.0557  0.0965  0.1367
29692ION     NA48546  15.374   9.347   5.301  0.2604 -0.0582 -0.2833
29693ION     NA48547  11.239  16.562   9.775 -0.0867  0.0820 -0.0263
29694ION     NA48548  18.177   8.852   9.579 -0.0054 -0.0317 -0.2137
29695ION     NA48549  14.976   2.117   9.607 -0.0436  0.1809  0.1062
29696ION     NA48550  13.256  15.433   9.689  0.0108  0.1845 -0.2814
29697ION     NA48551  11.423  17.402   9.666 -0.0929  0.2240 -0.1160
29698ION     NA48552   7.682  10.376  10.831 -0.1541  0.1109  0.1599
29699ION     NA48553  12.723  18.801  10.262  0.1902 -0.3216  0.2647
29700ION     NA48554  13.002  11.612   5.040  0.1147  0.2357 -0.0983
29701ION     NA48555  15.802   6.738   5.188  0.1761 -0.2807  0.2729
29702ION     NA48556  18.660  11.455  10.012 -0.3567 -0.3423 -0.2089
29703ION     NA48557  13.322   9.174   9.933  0.5184  0.0995 -0.0383
29704ION     NA48558   9.452  10.646   0.962 -0.0408  0.1780 -0.2393
29705ION     NA48559  10.351  10.414   5.182  0.1339  0.4873 -0.0280
29706ION     NA48560   2.886   7.366  10.685 -0.1042  0.1217  0.0317
29707ION     NA48561  13.425  16.763  11.332 -0.0801 -0.0999  0.1363
29708ION     NA48562   4.459   9.838   4.712  0.0968  0.0931  0.1998
29709ION     NA48563   3.174   8.153  14.155 -0.2850  0.1056  0.0647
29710ION     NA48564  18.391   7.717   5.188 -0.1308  0.2311  0.1782
29711ION     NA48565  13.934   1.708   9.737 -0.0868 -0.0061  0.1992
29712ION     NA48566   4.647  10.738   4.868 -0.1618 -0.1084 -0.1611
29713ION     NA48567  17.765   6.823  10.712  0.1902 -0.0984 -0.0826
29714ION     NA48568   5.827   0.550   4.882 -0.1676 -0.1235  0.0272
29715ION     NA48569   5.627   0.852  10.128  0.2451 -0.1038  0.0423
29716ION     NA48570  15.801  16.260   4.356 -0.0654  0.1167 -0.0422
29717ION     NA48571   9.471   3.255   9.496 -0.1398  0.0761 -0.2541
29718ION     NA48572  13.957  10.302  10.464 -0.0188  0.0315 -0.2997
29719ION     NA48573  13.869   2.591   3.318 -0.0862 -0.1367  0.0709
29720ION     NA48574  17.274  14.687   3.864  0.1118  0.0698 -0.1494
29721ION     NA48575   1.914   3.100   9.986  0.2812  0.0828  0.2789
29722ION     NA48576  18.997  18.982  10.292 -0.1090  0.1633 -0.3293
29723ION     NA48577  18.958  15.467  10.032 -0.0765 -0.1857  0.1628
29724ION     NA48578  15.595   3.386   5.053 -0.1752  0.0660  0.0353
29725ION     NA48579   4.749  10.961  12.060  0.0685  0.1440  0.2145
29726ION     NA48580  15.251   6.937   1.402  0.0248 -0.3392 -0.1955
29727ION     NA48581   8.798   3.912   5.282 -0.2076  0.0462  0.0556
29728ION     NA48582   1.973  10.462   2.056  0.1604  0.1026 -0.0937
29729ION     NA48583  11.665  11.184  11.032 -0.0400  0.0034  0.3010
29730ION     NA48584  11.560   7.563  11.540 -0.1505  0.0071 -0.0812
29731ION     NA48585   2.806   7.539   5.347 -0.1843 -0.2355  0.1715
29732ION     NA48586  18.839   6.068  14.000  0.1537 -0.1696  0.3375
29733ION     NA48587   1.512  17.274   9.876  0.1207 -0.1387 -0.0165
29734ION     NA48588  10.388   5.136   9.872  0.0887  0.2999  0.2878
29735ION     NA48589  14.023   3.905   9.996 -0.1948  0.4325  0.1898
29736ION     NA48590   3.819   6.490  11.917 -0.1078  0.1181 -0.1906
29737ION     NA48591  10.506  18.928  10.150 -0.4412  0.2676 -0.1016
29738ION     NA48592   6.348   6.061   5.072 -0.2471  0.0757 -0.2271
29739ION     NA48593   0.971  15.168   4.965 -0.2483 -0.2110  0.1233
29740ION     NA48594  14.610   8.878   5.116 -0.0849  0.0802 -0.1928
29741ION     NA48595  19.092  18.157   4.809  0.2030  0.1567  0.0731
29742ION     NA48596   5.929  13.838   9.772  0.1165 -0.0513  0.2222
29743ION     NA48597   5.971   1.488   9.458  0.0521  0.1430 -0.4389
29744ION     NA48598   4.653  14.767   4.947  0.0170  0.1397 -0.2474
29745ION     NA48599  10.898  13.281   9.679  0.2816  0.0021  0.1430
29746ION     NA48600  18.024  16.669   4.547 -0.0458  0.0216 -0.0591
29747ION     NA48601   8.573  10.599   5.176  0.2369  0.2942 -0.2303
29748ION     NA48602   8.014   3.609   9.658  0.3712  0.1475 -0.1694
29749ION     NA48603  16.332   6.046   4.899 -0.1999 -0.0699 -0.0771
29750ION     NA48604  11.502  12.031   2.721  0.1570  0.2883  0.3828
29751ION     NA48605  12.026   1.050   9.665 -0.1019  0.0319 -0.0082
29752ION     NA48606  10.387  14.694   4.827  0.2280  0.0128  0.2840
29753ION     NA48607   5.688   3.255   5.045 -0.1376  0.1440 -0.1124
29754ION     NA48608   9.793   6.489  10.006 -0.1335 -0.0575  0.0299
29755ION     NA48609  14.507  11.123   5.388 -0.0185  0.0425  0.0088
29756ION     NA48610   4.855  13.308  12.797  0.0629  0.0813  0.2037
29757ION     NA48611  18.788  13.188  10.421 -0.0920  0.0505 -0.0599
29758ION     NA48612  10.896   6.296   5.015 -0.1632 -0.0297 -0.3604
29759ION     NA48613  12.505   4.341   9.959 -0.1498 -0.0187 -0.1665
29760ION     NA48614   2.442  15.926  10.424 -0.1778 -0.0021 -0.3070
29761ION     NA48615   8.693   2.261   5.110  0.1209 -0.4711 -0.1609
29762ION     NA48616  17.430  18.729   9.480 -0.0792  0.1614 -0.0032
29763ION     NA48617   5.676  14.540   9.782 -0.1641 -0.0989 -0.2597
29764ION     NA48618   9.268   0.433   9.786  0.1059  0.2818  0.1700
29765ION     NA48619  14.812   3.100   4.923  0.1941 -0.1373  0.1479
29766ION     NA48620   3.375   5.735   1.698 -0.0678 -0.1031 -0.1815
29767ION     NA48621  11.671   8.419   9.999  0.0177 -0.1096 -0.1548
29768ION     NA48622  16.551   7.314   9.922  0.1519  0.0073 -0.1895
29769ION     NA48623   2.993   8.646  12.013  0.0425  0.0921  0.2186
29770ION     NA48624  15.182  16.619   9.591 -0.0333  0.3513  0.0446
29771ION     NA48625   1.677  18.619   4.820  0.3516  0.0368 -0.0037
29772ION     NA48626   7.754  16.172  10.062  0.2915  0.0486 -0.1980
29773ION     NA48627  17.705   9.014   5.341 -0.0959  0.2413  0.0961
29774ION     NA48628  13.497   1.306  11.716  0.0121  0.3275 -0.2390
29775ION     NA48629  15.527   1.121   4.930 -0.1435 -0.1494 -0.0078
29776ION     NA48630  16.044  10.653   3.217  0.0200  0.2964 -0.0697
29777ION     NA48631   7.976   7.033  10.081  0.3122 -0.1407  0.0414
29778ION     NA48632   9.731  11.793  11.423 -0.0935  0.1539 -0.3445
29779ION     NA48633   5.939   1.238   4.750 -0.2549  0.1594 -0.0928
29780ION     NA48634   9.631   9.305  10.178  0.2875  0.2136  0.0836
29781ION     NA48635  12.926  18.663   0.744  0.0076  0.2306 -0.3628
29782ION     NA48636   1.755  18.214   0.915 -0.0774  0.0259  0.1477
29783ION     NA48637   1.231   2.375  10.093 -0.0830  0.2608 -0.2153
29784ION     NA48638   0.565   2.799   4.924  0.1411  0.0125 -0.3589
29785ION     NA48639   8.565  15.822   4.453 -0.4366 -0.2156  0.0737
29786ION     NA48640   8.983   3.527   4.862 -0.2740 -0.2385  0.1753
29787ION     NA48641   5.910   8.856   4.724  0.0952 -0.0408  0.1811
29788ION     NA48642   9.895  10.578   0.567 -0.1097 -0.1879 -0.0992
29789ION     NA48643  17.221  13.047   2.736 -0.0478 -0.0270  0.3531
29790ION     NA48644   2.875   0.352   2.770 -0.0539 -0.0061  0.1254
29791ION     NA48645   9.474  10.137   5.165  0.0993 -0.1138  0.3213
29792ION     NA48646  16.909   4.764  10.083 -0.2490  0.2864  0.0859
29793ION     NA48647   4.308   7.698  11.729 -0.1689  0.1388  0.0328
29794ION     NA48648  17.017  16.837   9.746  0.2910  0.3160 -0.1197
29795ION     NA48649   1.237  17.300   3.813 -0.0548 -0.0713 -0.3351
29796ION     NA48650   5.830  10.145   4.752  0.0897  0.2471  0.0248
29797ION     NA48651   0.868  19.044   9.714 -0.2326  0.0218  0.0555
29798ION     NA48652  12.897   9.520  12.972  0.2739  0.1633  0.1138
29799ION     NA48653   9.312  14.718   4.899  0.0789 -0.0249  0.0743
29800ION     NA48654   2.091   0.542   2.188 -0.0956  0.2705  0.0297
29801ION     NA48655   4.582  11.787   1.159  0.0480  0.1782 -0.0107
29802ION     NA48656   3.010  18.260   9.808 -0.0011 -0.0978 -0.0891
29803ION     NA48657   6.280  18.103  11.166  0.0795  0.1584 -0.1483
29804ION     NA48658  15.136   7.379   4.985  0.0226 -0.1841 -0.1859
29805ION     NA48659   9.046  18.931   4.914 -0.0700 -0.3181 -0.0251
29806ION     NA48660  10.711  16.308  12.804 -0.0286 -0.0975 -0.0804
29807ION     NA48661  13.650  17.571   4.749 -0.2041  0.0492 -0.0299
29808ION     NA48662   6.542   3.945   9.703 -0.1440 -0.3424 -0.3246
29809ION     NA48663  11.577  12.556   4.966  0.0432  0.2042  0.2894
29810ION     NA48664  16.594   3.188   5.245  0.0990  0.2340  0.2102
29811ION     NA48665   2.133   9.048  10.034  0.1061 -0.0633 -0.0578
29812ION     NA48666  13.771   2.432   2.436  0.3083  0.1333 -0.2755
29813ION     NA48667   0.325  13.374   1.661 -0.1776 -0.1079  0.2122
29814ION     NA48668   8.385   5.433   9.726 -0.3208  0.0361  0.0756
29815ION     NA48669  11.222   0.663   9.463 -0.1096 -0.1782  0.0215
29816ION     NA48670  17.180  17.545   9.890  0.0755  0.1897  0.1824
29817ION     NA48671   2.779  16.750  12.007 -0.0202 -0.1167  0.3513
29818ION     NA48672  14.617   6.527   5.036 -0.1573  0.0754 -0.0562
29819ION     NA48673   2.459  13.860   4.121 -0.0205  0.1226  0.0915
29820ION     NA48674   2.677   6.419   1.566 -0.0434  0.0561 -0.1762
29821ION     NA48675   2.765   0.900   4.525  0.2828  0.0115  0.1140
29822ION     NA48676   1.600   4.990   4.994 -0.4218 -0.0394  0.1694
29823ION     NA48677   7.266  18.663   9.925 -0.0835 -0.1798  0.0645
29824ION     NA48678  10.407  16.793   1.846 -0.3238  0.0317  0.0823
29825ION     NA48679   5.337  18.732   9.525  0.1426  0.4121  0.1703
29826ION     NA48680   1.316   5.923   5.137  0.0718  0.1599  0.1286
29827ION     NA48681   7.434  16.502   4.752 -0.3013 -0.1655 -0.0488
29828ION     NA48682  11.106   3.757   4.659  0.1143  0.1296  0.0162
29829ION     NA48683  13.039   5.128   9.920 -0.2099  0.0281  0.1840
29830ION     NA48684   7.174   4.387   4.621  0.2031 -0.1155 -0.1653
29831ION     NA48685   0.625  15.704  10.038 -0.0740 -0.1892 -0.1054
29832ION     NA48686  18.332   9.951  11.861  0.2056  0.1423  0.1288
29833ION     NA48687  13.443   3.763   4.876  0.0494  0.5950 -0.2951
29834ION     NA48688  13.873   3.003   9.957  0.0636  0.1025  0.0221
29835ION     NA48689   4.742  16.080  10.101  0.1455  0.0111  0.0817
29836ION     NA48690   7.648  11.793  10.322  0.1374  0.3182 -0.0110
29837ION     NA48691   1.144   3.727   9.948 -0.1747  0.0466  0.0303
29838ION     NA48692   9.514  12.868   5.127  0.0480  0.0841  0.0554
29839ION     NA48693  12.521  17.999   9.630 -0.3873  0.2536 -0.1834
29840ION     NA48694   2.498  17.440   9.927  0.3035 -0.0484  0.0790
29841ION     NA48695  12.300  15.442   4.387  0.1555 -0.2468 -0.0882
29842ION     NA48696  17.806  11.433   1.331  0.1199 -0.0855 -0.0257
29843ION     NA48697  17.865  10.124   9.855 -0.0500 -0.1157 -0.0471
29844ION     NA48698   8.815   6.768  10.285 -0.0243 -0.0648 -0.1179
29845ION     NA48699   6.038   9.328   5.100  0.1424  0.1006 -0.0212
29846ION     NA48700   2.094  10.395   3.104  0.0942  0.4467 -0.4079
29847ION     NA48701  13.804   0.107   4.644  0.2376 -0.0610 -0.0001
29848ION     NA48702   0.576   0.328   0.122 -0.2145  0.0979 -0.1749
29849ION     NA48703  10.762   1.242   4.213 -0.0956 -0.0645 -0.1722
29850ION     NA48704  18.778   6.103   5.571  0.1359  0.1799  0.0981
29851ION     NA48705  11.937   8.531   4.954 -0.0657 -0.3108  0.2096
29852ION     NA48706   7.395   5.525   9.658 -0.0948 -0.0709  0.0242
29853ION     NA48707   9.532   2.848   5.013 -0.0256  0.1170 -0.0090
29854ION     NA48708   7.379   8.247   5.301 -0.2074 -0.2011  0.1078
29855ION     NA48709   4.621  12.764   9.965 -0.1679  0.0453 -0.2005
29856ION     NA48710   5.869  15.442   9.718 -0.0463 -0.0312  0.1750
29857ION     NA48711   2.877  13.682  10.042  0.1297 -0.1105  0.3232
29858ION     NA48712   1.762   7.259   5.170 -0.2006  0.2398  0.0229
29859ION     NA48713   3.054   3.993   4.904 -0.4139 -0.2223  0.1430
29860ION     NA48714   5.530  12.643   9.672  0.2335 -0.3316 -0.0424
29861ION     NA48715  12.649   4.055   5.198 -0.0986 -0.1318  0.0436
29862ION     NA48716  17.356   5.703   4.250 -0.0166  0.1225  0.0832
29863ION     NA48717  12.300   3.503   9.959  0.0001 -0.0629 -0.0264
29864ION     NA48718   1.104   0.450   4.374 -0.3360  0.0039  0.0280
29865ION     NA48719  11.307  14.655   9.591  0.0070 -0.0395  0.3041
29866ION     NA48720  14.635   4.658  10.181 -0.2124 -0.0432  0.1402
29867ION     NA48721  11.484  12.394   9.813 -0.0097 -0.1190 -0.0166
29868ION     NA48722  17.115  13.917   2.504  0.0274 -0.2359 -0.1363
29869ION     NA48723  15.835  16.134   9.761 -0.0077  0.1518  0.0110
29870ION     NA48724  17.969   4.195   3.497  0.0597  0.1417  0.1274
29871ION     NA48725  13.019   6.457   5.061  0.1627  0.1671 -0.0085
29872ION     NA48726  10.254   2.758   9.447 -0.0002 -0.3115 -0.1643
29873ION     NA48727   4.548  18.978  13.205  0.2331  0.1675  0.1507
29874ION     NA48728  16.949   4.734   5.121  0.2750 -0.0610  0.1139
29875ION     NA48729  13.561  16.352   4.834 -0.0558 -0.1971  0.1476
29876ION     NA48730   3.429  12.833   4.996 -0.3551  0.0176 -0.1872
29877ION     NA48731   0.579   4.128   5.201 -0.1314 -0.0738  0.2841
29878ION     NA48732   4.321  13.740   5.118  0.2081 -0.0183 -0.1759
29879ION     NA48733  16.769  14.594   9.829 -0.2334  0.2333 -0.0860
29880ION     NA48734  17.813   6.566   0.035 -0.1261 -0.4237  0.1813
29881ION     NA48735   8.490   6.471  14.027  0.1747  0.0762  0.0081
29882ION     NA48736   1.631   5.282  12.121  0.1487  0.0975 -0.2714
29883ION     NA48737   0.945   9.210  10.299 -0.2847  0.1522  0.0701
29884ION     NA48738  13.705   9.267   5.201 -0.3590 -0.4444 -0.0398
29885ION     NA48739   4.909   2.589  10.235  0.1782 -0.0312  0.1948
29886ION     NA48740  15.865  15.481   1.112  0.0199 -0.1804  0.0342
29887ION     NA48741   8.462  17.889   2.830  0.0069  0.0467 -0.0957
29888ION     NA48742  16.138  12.996   0.771  0.1996 -0.3159 -0.2497
29889ION     NA48743   7.785  15.667   4.903 -0.4073  0.1447 -0.0701
29890ION     NA48744   1.959   0.943   9.487 -0.2440 -0.5379  0.1162
29891ION     NA48745  14.462  17.941   4.981 -0.0673  0.0834 -0.1230
29892ION     NA48746  16.673   3.876  11.690 -0.2871 -0.3891  0.0690
29893ION     NA48747  15.173   3.661  14.777 -0.2562  0.1521 -0.0029
29894ION     NA48748  14.976  10.355  10.117 -0.0855 -0.2620 -0.2104
29895ION     NA48749  13.278   7.746  14.618 -0.1097 -0.0602 -0.1369
29896ION     NA48750   1.956  16.395   5.075 -0.1805  0.0360 -0.0104
29897ION     NA48751  17.537   7.421  10.055 -0.2970 -0.3860  0.0293
29898ION     NA48752  10.865   1.471   9.662  0.1456 -0.0396  0.2149
29899ION     NA48753   6.550   7.729  10.429  0.1516  0.0170 -0.0809
29900ION     NA48754  18.713   8.253  11.303  0.0784  0.1975 -0.0573
29901ION     NA48755   4.899  17.183   3.384  0.0185  0.0460  0.0866
29902ION     NA48756  12.657  12.221   0.227 -0.2194  0.2286 -0.1078
29903ION     NA48757  15.812   1.557   9.771 -0.0671 -0.1137 -0.2566
29904ION     NA48758   9.796  18.857   9.700 -0.3299  0.2146  0.0074
29905ION     NA48759  17.388   3.415  13.664  0.0737  0.2503  0.2758
29906ION     NA48760   2.429   5.925   9.983 -0.0374 -0.0318 -0.1382
29907ION     NA48761  18.520   4.526   4.908  0.0210  0.1493  0.2439
29908ION     NA48762  15.512  12.509   5.416  0.1417  0.1311  0.0843
29909ION     NA48763   7.613   2.420   3.290  0.0557 -0.2435 -0.0881
29910ION     NA48764   5.523  11.170   0.171 -0.0227 -0.0351 -0.1069
29911ION     NA48765  15.212  15.117   9.750  0.5049  0.0364  0.1087
29912ION     NA48766  11.341  14.432  13.569 -0.2927 -0.3358 -0.3770
29913ION     NA48767  14.240  17.590   9.603 -0.0782  0.2034 -0.2095
29914ION     NA48768  11.374   9.239   9.831 -0.1385 -0.0163 -0.1708
29915ION     NA48769   2.284  18.009   4.793  0.1659  0.0047 -0.4572
29916ION     NA48770   3.157   2.505   5.126  0.0381 -0.0983  0.0709
29917ION     NA48771   9.444  13.758   9.121 -0.0960  0.1084 -0.0096
29918ION     NA48772   9.510  11.024   9.684 -0.1794 -0.4040 -0.1040
29919ION     NA48773  11.599  17.502   4.739  0.1856 -0.4394  0.3500
29920ION     NA48774  12.561   7.117   5.168 -0.0074  0.2376 -0.1151
29921ION     NA48775  14.137  10.316   5.119 -0.4479 -0.1625 -0.0327
29922ION     NA48776   2.668  15.715   5.026 -0.1380  0.1042  0.0038
29923ION     NA48777  17.404   6.552   4.298 -0.0162 -0.2251 -0.4696
29924ION     NA48778   8.170  12.797  10.090 -0.1892  0.1747  0.1398
29925ION     NA48779  11.338  16.508   4.924  0.0989 -0.0002  0.1196
29926ION     NA48780  16.300   5.427   1.312  0.1972 -0.2154 -0.0432
29927ION     NA48781   4.259  16.235   4.670 -0.0736 -0.0459 -0.0339
29928ION     NA48782   2.715   8.086  10.128 -0.0728 -0.0134  0.2039
29929ION     NA48783  13.389   7.075  11.019 -0.1576 -0.3217  0.5561
29930ION     NA48784  17.600  12.757  10.941 -0.1412  0.2746 -0.0693
29931ION     NA48785  12.652   1.908   5.148 -0.0808 -0.0952  0.0429
29932ION     NA48786  15.779   8.994  13.791  0.2238 -0.0013  0.1126
29933ION     NA48787  15.372  12.249   1.779  0.0360 -0.1827 -0.0212
29934ION     NA48788   8.204  18.672   9.726 -0.1124 -0.2251 -0.0615
29935ION     NA48789  11.323  11.972  10.034  0.2028 -0.1692  0.0229
29936ION     NA48790   6.116  10.257   5.206  0.4744 -0.0721  0.1280
29937ION     NA48791  16.993   0.569   4.012  0.3461 -0.0258  0.1836
29938ION     NA48792   1.722   5.939  10.976 -0.1396  0.0794  0.0276
29939ION     NA48793   3.921  13.543   9.931 -0.0469 -0.0604  0.2790
29940ION     NA48794   8.368   5.699   4.954 -0.1743 -0.0449  0.1934
29941ION     NA48795   3.926   1.952   9.590 -0.0655  0.0359  0.3101
29942ION     NA48796  18.213   9.610   3.543  0.0567 -0.1634 -0.1416
29943ION     NA48797   2.978   0.314   5.307  0.3334  0.0049 -0.0950
29944ION     NA48798  17.156  18.529  10.328  0.2157  0.1295 -0.0468
29945ION     NA48799  16.432  18.932   4.854  0.1288  0.2254  0.1351
29946ION     NA48800   5.037   1.454   5.005  0.1157 -0.0601 -0.0524
29947ION     NA48801  17.667   0.370   9.754  0.0179  0.0095  0.5354
29948ION     NA48802  18.249  15.395   3.084 -0.1287  0.0505  0.0015
29949ION     NA48803  19.114   9.938   5.401  0.1789  0.0211 -0.2514
29950ION     NA48804  18.646  14.662   3.865  0.1017 -0.0034  0.3591
29951ION     NA48805   1.647   4.217   4.793 -0.0402  0.0261  0.2135
29952ION     NA48806  13.394   7.632  10.119 -0.2398 -0.0393  0.0759
29953ION     NA48807  17.903   9.545  10.017  0.0107  0.0281  0.0046
29954ION     NA48808   0.658  15.166  13.607 -0.2499  0.0942  0.0400
29955ION     NA48809  12.724  12.620   2.703  0.3038 -0.2164  0.1596
29956ION     NA48810  15.133  18.468   4.901  0.2219 -0.0435 -0.0423
29957ION     NA48811   5.919  12.881   9.503  0.0973 -0.0294 -0.0783
29958ION     NA48812  10.928  17.468   9.611 -0.1141  0.1154  0.0462
29959ION     NA48813  18.110  13.582   5.022 -0.0775  0.0843 -0.0348
29960ION     NA48814  18.050  18.066   9.432  0.0157  0.0243 -0.1518
29961ION     NA48815   9.772   8.377   1.601 -0.3324 -0.0935 -0.0609
29962ION     NA48816   7.815   1.380  10.746 -0.1766  0.0595 -0.0771
29963ION     NA48817  15.815   8.328  12.239 -0.3386 -0.0644 -0.3272
29964ION     NA48818   1.309  10.202  10.109 -0.1417  0.0556 -0.2891
29965ION     NA48819   7.227  12.075   4.824 -0.1955 -0.0845  0.4297
29966ION     NA48820   6.321   3.948   5.061 -0.2248  0.1104 -0.0058
29967ION     NA48821  10.296   3.321   2.442  0.0090 -0.2848 -0.1315
29968ION     NA48822   8.571  18.937   9.912 -0.2296 -0.1569 -0.0103
29969ION     NA48823  18.249  18.918   9.673  0.0618 -0.0322 -0.1818
29970ION     NA48824   4.966   5.685   0.275 -0.1710 -0.0210  0.2576
29971ION     NA48825  12.712  17.895   4.522 -0.0149 -0.1244 -0.1814
29972ION     NA48826   7.842   5.117   9.669 -0.0720 -0.1490  0.1286
29973ION     NA48827   4.684   5.786   9.827  0.1504  0.2496  0.1643
29974ION     NA48828  15.505   7.220   9.944 -0.2235 -0.1939 -0.2873
29975ION     NA48829   2.529  14.889   5.192  0.0747  0.3547  0.3176
29976ION     NA48830  14.829   2.634  10.430 -0.0002  0.1157  0.0168
29977ION     NA48831   0.488  15.072   5.134 -0.1988  0.0507 -0.0884
29978ION     NA48832   3.509  14.231  10.524 -0.2337 -0.5125  0.1185
29979ION     NA48833   0.079   8.114   5.486  0.2081  0.2685 -0.0464
29980ION     NA48834  13.191  15.415  14.116  0.2830  0.1002  0.0387
29981ION     NA48835   3.756   8.989  10.434  0.0331  0.1809 -0.1136
29982ION     NA48836   0.683  15.988   4.575 -0.0479 -0.2657  0.0038
29983ION     NA48837  15.909   5.768   0.727 -0.0109  0.3279  0.0025
29984ION     NA48838   1.989  11.948  13.466 -0.2680  0.2016  0.1731
29985ION     NA48839   1.098  11.794  11.881  0.4007  0.1789 -0.0046
29986ION     NA48840   1.773  14.884  10.174 -0.4852  0.0881  0.3497
29987ION     NA48841   2.217   8.130  10.256 -0.0400 -0.2394 -0.0979
29988ION     NA48842   1.370   3.390   4.943  0.0353 -0.1737  0.0640
29989ION     NA48843   4.667  10.210  10.088 -0.1208 -0.0125  0.3659
29990ION     NA48844   4.220   2.582   5.199  0.2109 -0.1457 -0.2946
29991ION     NA48845   1.815  16.288  12.875  0.4296 -0.1712  0.0629
29992ION     NA48846   6.833  11.807   9.848  0.1420 -0.0758  0.2279
29993ION     NA48847  10.612  12.465   9.571 -0.2152  0.4142  0.1201
29994ION     NA48848  17.569   5.635  12.120 -0.0079 -0.2544  0.0582
29995ION     NA48849  15.663   6.474  12.285  0.0669  0.3567 -0.0820
29996ION     NA48850   0.628  11.751   4.999 -0.2235 -0.2170 -0.0733
29997ION     NA48851   7.778  13.749   4.933  0.1675  0.2457  0.0064
29998ION     NA48852   2.192   6.346   5.223  0.1808  0.0819  0.0879
29999ION     NA48853  16.624  19.033   9.631 -0.0913 -0.0206  0.3055
30000ION     NA48854   8.453   6.063   1.564  0.2697  0.1772  0.2751
30001ION     NA48855  18.749   8.752   9.839  0.0045 -0.1943  0.0715
30002ION     NA48856  11.280   4.648   2.152  0.4026  0.5409 -0.2751
30003ION     NA48857  10.933   9.581   5.261 -0.2470 -0.2574 -0.4473
30004ION     NA48858   1.602  13.938  12.085  0.0293 -0.3184 -0.0646
30005ION     NA48859  16.086   8.050  13.139 -0.1261  0.2477 -0.1654
30006ION     NA48860  15.049   8.616  10.193 -0.1392 -0.1421  0.0626
30007ION     NA48861   5.320  18.729  10.058  0.3297  0.0913 -0.0787
30008ION     NA48862   3.711   5.062   4.976  0.3269  0.2060 -0.2647
30009ION     NA48863  15.868   8.039   5.334  0.1597  0.0451 -0.2192
30010ION     NA48864  12.949   7.653   5.090  0.0082  0.0048  0.0865
30011ION     NA48865  10.506  11.632   9.795 -0.2045  0.1472 -0.2088
30012ION     NA48866  13.176   6.649   9.973 -0.1949 -0.1126 -0.1547
30013ION     NA48867  11.293   2.766  10.622  0.2402 -0.0252 -0.2150
30014ION     NA48868   6.505  13.543   4.938 -0.1576 -0.0381  0.2321
30015ION     NA48869  11.035   7.916   4.822  0.0186  0.0846  0.4828
30016ION     NA48870   9.485   7.520  10.085  0.1022  0.1973  0.4392
30017ION     NA48871  10.610   8.583   5.306  0.2315 -0.0325 -0.1621
30018ION     NA48872  16.268   2.806   5.255  0.0640 -0.1533  0.0486
30019ION     NA48873  18.331   5.018   1.408  0.2464  0.1544  0.1760
30020ION     NA48874  17.137  13.743   5.028 -0.1767 -0.3181 -0.0620
30021ION     NA48875  18.624   0.666   4.799  0.1866  0.3151  0.1554
30022ION     NA48876  12.888   9.563   4.964  0.1457 -0.3494 -0.0740
30023ION     NA48877   6.508  16.445   4.824  0.2863 -0.3253  0.1430
30024ION     NA48878   2.211  12.262   9.966  0.2374 -0.0243 -0.0172
30025ION     NA48879   8.677  11.327  11.955 -0.0077  0.1508 -0.0927
30026ION     NA48880   4.421  17.167   4.898 -0.0715 -0.2637  0.1118
30027ION     NA48881  12.755  12.775   9.860 -0.0407 -0.1091  0.1999
30028ION     NA48882   2.596  18.767   5.071  0.1539  0.0963  0.0226
30029ION     NA48883   5.232  14.019   5.107 -0.0546  0.1663 -0.0468
30030ION     NA48884  16.995   5.636  10.226 -0.1448 -0.0794  0.0279
30031ION     NA48885  16.091  12.911   4.220 -0.1015  0.2094  0.1305
30032ION     NA48886   4.768   9.057   9.833 -0.0001  0.0913  0.2978
30033ION     NA48887   9.097  18.112   5.134 -0.1027 -0.1596  0.2904
30034ION     NA48888  17.540   1.160   4.829 -0.0336 -0.0138  0.0694
30035ION     NA48889   0.960  10.384   2.239  0.1353 -0.5237 -0.4406
30036ION     NA48890  19.104  18.954   4.756 -0.0534 -0.1529 -0.0345
30037ION     NA48891   2.220  17.868   9.967  0.4156 -0.1349  0.1152
30038ION     NA48892   6.218   0.481   9.418  0.1019  0.1449 -0.0923
30039ION     NA48893  18.706   1.750  12.440  0.0070 -0.4025 -0.1650
30040ION     NA48894  15.760  13.341   4.908  0.0304 -0.0601 -0.0292
30041ION     NA48895   7.162   6.531   5.163  0.1825 -0.2597  0.0682
30042ION     NA48896   3.390   5.520   4.155  0.0834 -0.0484  0.1424
30043ION     NA48897  17.551   2.864  12.206  0.1352  0.2327 -0.0615
30044ION     NA48898  14.135   7.381   0.249 -0.1507 -0.2677 -0.0602
30045ION     NA48899  12.359  12.923   5.302 -0.0348 -0.0302 -0.1872
30046ION     NA48900   4.985   5.527   5.054 -0.2174 -0.1364 -0.0892
30047ION     NA48901  14.474   8.001   9.928 -0.1413  0.0040  0.1412
30048ION     NA48902  14.364   6.493   9.886 -0.0817 -0.0418 -0.0439
30049ION     NA48903   5.895  11.749   5.205 -0.2682  0.1728  0.0379
30050ION     NA48904  15.108  13.479   2.181 -0.0624 -0.0166 -0.3102
30051ION     NA48905  12.021  13.553   5.124  0.0202 -0.0513 -0.2918
30052ION     NA48906  17.490   2.962   9.677 -0.0298 -0.0013  0.4105
30053ION     NA48907  10.387  10.247  11.802 -0.1264  0.2248  0.1771
30054ION     NA48908   4.645   4.290   4.607  0.2753  0.1224  0.0375
30055ION     NA48909   7.462   5.219   1.318 -0.0983 -0.2211 -0.0813
30056ION     NA48910   7.525   5.167   4.760  0.0361  0.3233  0.1181
30057ION     NA48911  13.060   2.043   9.784  0.0640 -0.2695  0.2211
30058ION     NA48912  10.897  10.961   4.418 -0.0452  0.2021 -0.0400
30059ION     NA48913   5.435   6.379   5.009 -0.2066  0.2680 -0.3106
30060ION     NA48914   4.573  11.688   5.121 -0.1185 -0.0390 -0.3220
30061ION     NA48915  11.879   1.739   5.322  0.1676  0.0496  0.4235
30062ION     NA48916  15.470   7.053   4.918 -0.3658 -0.3162 -0.3097
30063ION     NA48917   1.384   1.682   4.583 -0.1607  0.3256 -0.0760
30064ION     NA48918   2.177   3.448   4.896  0.0733 -0.0693  0.0556
30065ION     NA48919  12.760   1.605   9.772 -0.2063 -0.3503 -0.3146
30066ION     NA48920   2.831  18.844   2.146 -0.1171 -0.2826 -0.1575
30067ION     NA48921   2.802   9.955  14.488 -0.0253  0.0952  0.0776
30068ION     NA48922   2.191  18.683   9.935  0.0395 -0.0077 -0.0469
30069ION     NA48923  17.596   3.164   5.001  0.2262 -0.0697  0.3851
30070ION     NA48924  13.751   5.701  10.157  0.2243  0.0221 -0.1315
30071ION     NA48925   2.805   4.873   5.044 -0.3540  0.0585 -0.0843
30072ION     NA48926  18.730  11.282   5.405 -0.0395 -0.0003  0.0469
30073ION     NA48927   5.116   9.282   5.179  0.0531 -0.1002  0.1446
30074ION     NA48928   6.610   2.653   4.103  0.0367  0.2884 -0.1155
30075ION     NA48929  13.412  18.312   9.855  0.0109  0.1407  0.4043
30076ION     NA48930  10.734   3.104   9.665 -0.2233 -0.0391  0.0525
30077ION     NA48931  11.581   2.097   5.043  0.5914  0.0482  0.3934
30078ION     NA48932  16.958   6.953  13.472  0.0034  0.1190  0.1039
30079ION     NA48933  15.685  14.084   0.138  0.2523 -0.1358 -0.1065
30080ION     NA48934   0.008  12.792   2.501  0.0375  0.0925  0.0078
30081ION     NA48935   3.113   2.422   9.929 -0.2897  0.1193 -0.0473
30082ION     NA48936   2.165  16.865   2.113 -0.0305  0.1922 -0.1123
30083ION     NA48937   2.026  16.670  10.193 -0.3014 -0.4255 -0.4305
30084ION     NA48938   2.002  14.025   9.926  0.3205 -0.2979 -0.3702
30085ION     NA48939  16.352   8.600   5.440 -0.3144 -0.1267  0.0279
30086ION     NA48940  18.265  13.937   9.924  0.2129 -0.0478 -0.1793
30087ION     NA48941   3.746  17.226   0.402 -0.0544  0.0543  0.1449
30088ION     NA48942  16.437   0.893   9.533  0.0117  0.1473  0.1924
30089ION     NA48943   4.120  14.419   3.020 -0.0742 -0.1766 -0.1848
30090ION     NA48944   5.814   5.067   1.898 -0.2450  0.0641  0.4662
30091ION     NA48945   0.427  12.898  10.410 -0.0935 -0.1727 -0.2962
30092ION     NA48946   2.313   1.981   4.887  0.2005  0.1297  0.1318
30093ION     NA48947  12.453   3.435  10.561  0.3572  0.1260 -0.2745
30094ION     NA48948  14.436  17.606   0.463 -0.3375 -0.0076 -0.1987
30095ION     NA48949   8.228  14.210   9.455 -0.1579 -0.2581  0.2274
30096ION     NA48950  12.236   2.333   9.579  0.1863 -0.1019 -0.2283
30097ION     NA48951   5.722  14.119   5.273  0.2886  0.1214  0.2295
30098ION     NA48952  14.854   4.546   0.894 -0.0787 -0.3137  0.0535
30099ION     NA48953  12.340   6.296   9.812  0.2883 -0.0671  0.2069
30100ION     NA48954  17.498   9.289  11.992 -0.2557 -0.3502 -0.0090
30101ION     NA48955  15.091   7.182   9.681  0.2106  0.0132  0.2184
30102ION     NA48956   1.751   4.200   2.234 -0.2102  0.3037  0.0466
30103ION     NA48957   5.284  16.979   4.621 -0.0378 -0.0346 -0.2054
30104ION     NA48958   6.076  17.176   2.051  0.0202 -0.2975 -0.0760
30105ION     NA48959  15.513  10.465  10.179 -0.0908  0.1588 -0.0197
30106ION     NA48960  14.555   4.244   4.627  0.0936 -0.0570 -0.2004
30107ION     NA48961  18.828  13.153   9.899 -0.1566 -0.1321 -0.0952
30108ION     NA48962  16.031   4.504   0.661  0.0879 -0.1397 -0.2099
30109ION     NA48963  15.645  12.464  14.074 -0.0372 -0.0137  0.0178
30110ION     NA48964   4.133   1.614   5.077  0.1625  0.1275  0.1678
30111ION     NA48965   5.700  10.197   9.933 -0.0956  0.0009 -0.0774
30112ION     NA48966  17.909  16.899   4.968 -0.2763  0.0824  0.2154
30113ION     NA48967   8.654   2.727   9.623  0.1566  0.2253 -0.1068
30114ION     NA48968   9.934  19.005   5.016 -0.0806 -0.0891 -0.1932
30115ION     NA48969  16.386  13.754   9.768  0.0126  0.0012  0.1268
30116ION     NA48970   3.910  16.545  10.012 -0.0463 -0.1518 -0.1953
30117ION     NA48971   0.474   5.519   5.136 -0.2044  0.2032 -0.1041
30118ION     NA48972   8.590   8.229   2.568 -0.0348 -0.3251 -0.1010
30119ION     NA48973   2.285   9.952   9.966 -0.2767  0.1579  0.1397
30120ION     NA48974   2.118  13.928   1.403  0.0420 -0.0738  0.1980
30121ION     NA48975  11.825   6.114   4.731 -0.1406 -0.0054 -0.0059
30122ION     NA48976  16.373   9.111  10.039  0.0343 -0.1135  0.2325
30123ION     NA48977   2.431  11.514   5.167  0.1966 -0.2439 -0.1921
30124ION     NA48978   6.211   8.357  14.222 -0.1261  0.2068 -0.0516
30125ION     NA48979   4.986  13.900   9.863 -0.2760  0.0080  0.0494
30126ION     NA48980   0.393  14.695   9.769  0.0125 -0.0295 -0.2634
30127ION     NA48981   3.718  13.211   5.312 -0.1057 -0.3771  0.3535
30128ION     NA48982   8.126  10.360   0.097 -0.0432  0.1385 -0.1262
30129ION     NA48983   7.863  18.513   4.724 -0.2442 -0.0799 -0.0307
30130ION     NA48984  12.333  12.382  11.055  0.0714  0.0462 -0.3734
30131ION     NA48985   9.750   7.521  13.467 -0.2703 -0.0106  0.0373
30132ION     NA48986   0.641   0.849   9.761 -0.1278  0.1691 -0.0500
30133ION     NA48987   5.827   6.229   9.778 -0.0888  0.0888  0.1451
30134ION     NA48988   8.861  16.853   9.632 -0.0748  0.0118  0.0558
30135ION     NA48989   8.611   4.564  10.555  0.1568  0.1577 -0.4572
30136ION     NA48990   4.612   0.021  11.182  0.2580 -0.3300 -0.1160
30137ION     NA48991  12.077  18.848   1.932 -0.0177  0.3122  0.0426
30138ION     NA48992   8.273   9.918   9.802  0.2692 -0.0417  0.2232
30139ION     NA48993   9.879  13.595  10.817 -0.0626  0.0199  0.1391
30140ION     NA48994  10.392   8.292  13.565  0.0293 -0.0145  0.2159
30141ION     NA48995  11.192  12.045  12.243 -0.2363 -0.1614 -0.0679
30142ION     NA48996   0.692  11.416   3.651 -0.1504 -0.2321  0.0719
30143ION     NA48997   2.009   9.154   5.316  0.0269 -0.2010  0.0539
30144ION     NA48998   2.184   4.261   4.653  0.2444 -0.2124 -0.0799
30145ION     NA48999  16.918   6.083  13.015  0.4164  0.1535 -0.6521
30146ION     NA49000  12.055   5.320   9.764 -0.1171 -0.0254 -0.3248
30147ION     NA49001   6.430  12.370   9.693 -0.0511 -0.2445  0.0585
30148ION     NA49002  10.022   0.458  10.016 -0.0865  0.0856  0.1756
30149ION     NA49003   7.951   3.985   5.054 -0.0618 -0.1782 -0.3273
30150ION     NA49004   1.698   5.002  14.541  0.1366  0.2599 -0.0126
30151ION     NA49005   5.153   3.167   9.586  0.0901 -0.3174 -0.0596
30152ION     NA49006  10.689  17.224  11.854 -0.1414 -0.0507 -0.3818
30153ION     NA49007  16.958  10.711   5.188 -0.2660 -0.0172  0.0050
30154ION     NA49008   3.771   2.873   9.606 -0.0971 -0.0512  0.0501
30155ION     NA49009  12.030  13.673   4.647  0.1121  0.2835  0.0851
30156ION     NA49010   9.458   5.175   9.697  0.2439  0.2198  0.1813
30157ION     NA49011  18.290  10.428   5.231  0.1505 -0.2390  0.1355
30158ION     NA49012  10.124  16.463   4.942  0.0802  0.2186  0.0395
30159ION     NA49013  17.031  10.035  10.135 -0.1335  0.3211  0.0612
30160ION     NA49014   5.440   4.199  14.775  0.0466  0.1244  0.0703
30161ION     NA49015   6.837  12.608  14.574  0.2360 -0.0032 -0.1794
30162ION     NA49016  12.483  17.263   1.697  0.1503  0.1334  0.1826
30163ION     NA49017  11.760  13.678   1.337  0.2158 -0.0985 -0.0406
30164ION     NA49018  10.326  14.501   1.335  0.1517 -0.0704  0.1635
30165ION     NA49019   4.396  15.194  14.484 -0.0273  0.0062  0.2176
  19.15556  19.15556  14.79321
